Title
82308
    1SAPS     N    1   3.673   2.272  11.152 -0.0142 -0.3555 -0.4766
    1SAPS   HN1    2   3.607   2.352  11.158 -0.3805 -0.7238  0.7072
    1SAPS   HN2    3   3.716   2.269  11.057 -1.2707 -0.4269 -1.0503
    1SAPS   HN3    4   3.619   2.185  11.175  0.4848 -0.4079  0.5145
    1SAPS   C12    5   3.781   2.275  11.255  0.1142  0.4015  0.3214
    1SAPS  H12A    6   3.829   2.371  11.251 -0.4081  0.6067 -1.8469
    1SAPS   C13    7   3.726   2.234  11.396 -0.1242  0.1126  0.6908
    1SAPS  O13A    8   3.609   2.199  11.420  0.2964  0.6401  0.4809
    1SAPS  O13B    9   3.804   2.252  11.491  0.2695  0.3541 -0.1987
    1SAPS   C11   10   3.890   2.166  11.208 -0.0879 -0.1280  0.0888
    1SAPS  H11A   11   3.840   2.068  11.198  2.5056 -1.2715 -2.2737
    1SAPS  H11B   12   3.973   2.155  11.281  0.9553 -1.1349 -1.2196
    1SAPS     P   13   4.065   2.109  11.032 -0.2801  0.2102 -0.0839
    1SAPS   O13   14   4.174   2.200  10.992 -0.4279 -0.4413  0.4020
    1SAPS   O14   15   4.099   2.006  11.130 -0.0912  0.9319 -0.0837
    1SAPS   O12   16   3.949   2.202  11.087  0.4261 -0.5339  0.0729
    1SAPS   O11   17   4.012   2.026  10.911  0.4302  0.7089 -0.5232
    1SAPS    C1   18   3.912   2.065  10.815 -0.2688 -0.2660  0.1462
    1SAPS    HA   19   3.878   1.971  10.766  1.0704 -1.4734  1.4834
    1SAPS    HB   20   3.823   2.110  10.864 -0.1327  1.0599 -0.7982
    1SAPS    C2   21   3.954   2.167  10.709  0.3929 -0.0735  0.2324
    1SAPS    HS   22   3.980   2.261  10.763 -0.1559  0.0314  0.3122
    1SAPS   O21   23   3.850   2.186  10.610 -0.3385 -0.1373  0.6308
    1SAPS   C21   24   3.844   2.303  10.558  0.9872  0.0599  0.7372
    1SAPS   O22   25   3.909   2.403  10.592 -0.0748  0.4946 -0.0950
    1SAPS   C22   26   3.750   2.301  10.440 -0.0006 -0.1463  0.3143
    1SAPS   H2R   27   3.712   2.202  10.407 -1.9189  0.7822 -0.3368
    1SAPS   H2S   28   3.658   2.360  10.459  0.1264  0.9760 -2.3703
    1SAPS    C3   29   4.090   2.133  10.641  0.6260  0.4496 -0.0381
    1SAPS    HX   30   4.068   2.039  10.586 -0.2515  2.1998 -2.7304
    1SAPS    HY   31   4.178   2.109  10.704  2.4411  0.6246 -2.4704
    1SAPS   O31   32   4.132   2.228  10.544  0.8617  0.7235 -0.4463
    1SAPS   C31   33   4.203   2.339  10.578 -0.6351 -0.0629 -0.4125
    1SAPS   O32   34   4.243   2.366  10.690  0.8980 -0.2979  0.7423
    1SAPS   C32   35   4.241   2.420  10.453  0.2298 -0.4070  0.3417
    1SAPS   H2X   36   4.351   2.431  10.466  0.4495  1.0945 -2.2924
    1SAPS   H2Y   37   4.212   2.527  10.450  0.1526 -0.4538 -1.1371
    1SAPS   C23   38   3.825   2.345  10.307  0.0385 -0.6699 -0.3234
    1SAPS   H3R   39   3.897   2.266  10.279 -1.8481 -2.5372  0.0040
    1SAPS   H3S   40   3.893   2.428  10.337  0.5358 -0.1794 -2.7200
    1SAPS   C24   41   3.744   2.392  10.179  0.1746 -0.4160  0.0070
    1SAPS   H4R   42   3.825   2.437  10.118  2.4126 -0.5454  2.7766
    1SAPS   H4S   43   3.671   2.474  10.199 -0.7643 -0.5027 -2.9047
    1SAPS   C25   44   3.674   2.273  10.122 -0.3013  0.7652  0.1119
    1SAPS   H5R   45   3.581   2.235  10.166 -0.6668  0.4123 -0.9380
    1SAPS   C26   46   3.716   2.209  10.013  0.0591  0.0047 -0.0273
    1SAPS   H6R   47   3.665   2.114   9.991  0.9777 -0.2123 -1.2994
    1SAPS   C27   48   3.846   2.236   9.932  0.1857  0.1609  0.2813
    1SAPS   H7R   49   3.940   2.206   9.981  0.1149  0.7676  0.7944
    1SAPS   H7S   50   3.853   2.345   9.914  2.0984  0.0133  0.0724
    1SAPS   C28   51   3.841   2.174   9.795  0.0557  0.0414 -0.1447
    1SAPS   H8R   52   3.806   2.070   9.783  1.2281 -0.5916  1.7761
    1SAPS   C29   53   3.887   2.233   9.681  0.2004  0.6178  0.0856
    1SAPS   H9R   54   3.891   2.167   9.593 -2.4871  0.9627 -0.3359
    1SAPS  C210   55   3.943   2.369   9.661 -0.4098 -0.0326  0.3651
    1SAPS  H10R   56   4.043   2.356   9.615 -0.0077  1.7725  0.6726
    1SAPS  H10S   57   3.959   2.421   9.758  0.1298  0.4417  0.0289
    1SAPS  C211   58   3.854   2.445   9.566 -0.4763 -0.1549 -0.3771
    1SAPS  H11R   59   3.749   2.456   9.596 -0.3288 -0.7356  0.3782
    1SAPS  C212   60   3.891   2.500   9.448  0.3762  0.2889 -0.4958
    1SAPS  H12R   61   3.817   2.532   9.374 -1.0312 -0.3590  0.5999
    1SAPS  C213   62   4.030   2.502   9.386  0.1703 -0.0000 -0.3238
    1SAPS  H13R   63   4.110   2.518   9.462 -1.9874 -0.2748  2.0563
    1SAPS  H13S   64   4.044   2.580   9.308  0.2303 -1.7200 -2.0453
    1SAPS  C214   65   4.048   2.374   9.304  0.9245  0.1699 -0.2093
    1SAPS  H14R   66   4.115   2.298   9.347  2.2431  0.7976 -1.1369
    1SAPS  C215   67   3.997   2.348   9.178 -0.4953 -0.6610 -0.3405
    1SAPS  H15R   68   4.030   2.251   9.138  1.3460 -0.8479  1.5648
    1SAPS  C216   69   3.903   2.432   9.087  0.2263 -0.0710 -0.7155
    1SAPS  H16R   70   3.855   2.518   9.138  1.0922  1.1829 -1.9763
    1SAPS  H16S   71   3.821   2.372   9.044  1.5282 -0.8631 -2.1683
    1SAPS  C217   72   3.969   2.492   8.955 -0.1749  0.3811  0.4815
    1SAPS  H17R   73   4.077   2.517   8.965 -0.8189  3.1153  1.0305
    1SAPS  H17S   74   3.921   2.591   8.940  1.7562  1.0725 -1.3947
    1SAPS  C218   75   3.934   2.398   8.840 -0.3911 -1.1146  0.6313
    1SAPS  H18R   76   3.826   2.415   8.821  0.4680  1.5429 -2.1840
    1SAPS  H18S   77   3.949   2.291   8.865  0.9941 -1.2980 -0.9068
    1SAPS  C219   78   4.022   2.439   8.715 -0.2839  0.2119  0.1927
    1SAPS  H19R   79   4.120   2.393   8.739 -1.2999 -2.3427 -0.4297
    1SAPS  H19S   80   4.014   2.550   8.721  0.8055  0.2554  0.9259
    1SAPS  C220   81   3.979   2.388   8.577  0.6727 -0.0849 -0.1354
    1SAPS  H20R   82   3.988   2.277   8.580  0.1021 -0.1088  1.3760
    1SAPS  H20S   83   4.041   2.419   8.490  1.9022 -1.1319  0.3535
    1SAPS  H20T   84   3.871   2.408   8.556  0.9481  1.2240 -0.3673
    1SAPS   C33   85   4.217   2.354  10.311 -0.2778 -0.3484 -0.5342
    1SAPS   H3X   86   4.111   2.364  10.281 -0.1243 -1.2470 -1.3908
    1SAPS   H3Y   87   4.251   2.249  10.310 -2.3986 -1.1327  2.5043
    1SAPS   C34   88   4.292   2.436  10.206 -0.6788  0.9130  0.7727
    1SAPS   H4X   89   4.403   2.437  10.210 -0.6606  3.3879  0.3325
    1SAPS   H4Y   90   4.266   2.544  10.205  2.0999  1.6339 -0.1115
    1SAPS   C35   91   4.253   2.392  10.059 -0.0709  0.0409 -0.0161
    1SAPS   H5X   92   4.195   2.475  10.012  1.4740  1.8023  1.0813
    1SAPS   H5Y   93   4.185   2.307  10.078 -0.4693  0.5563  0.8644
    1SAPS   C36   94   4.368   2.353   9.974 -0.3884  0.5204 -0.7220
    1SAPS   H6X   95   4.390   2.250  10.010 -1.2958 -0.0889 -1.8802
    1SAPS   H6Y   96   4.450   2.424   9.996 -0.8013  1.1545 -1.2436
    1SAPS   C37   97   4.323   2.334   9.825  0.4887 -0.0220 -0.2840
    1SAPS   H7X   98   4.261   2.423   9.800  0.5255  0.3075  0.7663
    1SAPS   H7Y   99   4.268   2.238   9.820 -0.0058  0.2077  0.7120
    1SAPS   C38  100   4.440   2.316   9.722 -0.1107 -0.2848 -0.5663
    1SAPS   H8X  101   4.481   2.213   9.717 -1.2698 -0.7826  0.1681
    1SAPS   H8Y  102   4.521   2.384   9.757 -1.9348  2.6012 -1.7269
    1SAPS   C39  103   4.390   2.355   9.575 -0.7917  0.3600 -0.2422
    1SAPS   H9X  104   4.351   2.458   9.581  1.4561  1.0943  3.0097
    1SAPS   H9Y  105   4.308   2.284   9.550  0.4727 -1.1446 -0.1751
    1SAPS  C310  106   4.503   2.355   9.474 -0.4050  0.0361  0.4510
    1SAPS  H10X  107   4.556   2.258   9.489  1.0351  0.5362 -1.2446
    1SAPS  H10Y  108   4.572   2.439   9.497  0.0521 -0.0023 -0.7541
    1SAPS  C311  109   4.444   2.380   9.335  0.0284  0.1615  0.8099
    1SAPS  H11X  110   4.358   2.314   9.310  1.5417 -0.9188 -1.6567
    1SAPS  H11Y  111   4.538   2.356   9.281  1.4066  0.4871  2.9625
    1SAPS  C312  112   4.415   2.527   9.310 -0.1426 -0.0404  0.3272
    1SAPS  H12X  113   4.505   2.589   9.329 -1.6096  1.9801  0.9217
    1SAPS  H12Y  114   4.339   2.562   9.384  1.1478  1.9844  0.7604
    1SAPS  C313  115   4.357   2.554   9.173 -0.0127  0.2713  1.0862
    1SAPS  H13X  116   4.323   2.659   9.168  0.3058  0.3048 -0.5943
    1SAPS  H13Y  117   4.259   2.502   9.172  0.2079 -0.1293 -1.3223
    1SAPS  C314  118   4.456   2.529   9.056  0.0336  0.2912  0.0447
    1SAPS  H14X  119   4.474   2.419   9.058  1.9688  0.5741 -0.5702
    1SAPS  H14Y  120   4.550   2.586   9.069 -0.0004  0.1537  0.9470
    1SAPS  C315  121   4.392   2.565   8.924  0.6028  0.3288  0.1352
    1SAPS  H15X  122   4.369   2.673   8.937 -2.6154 -0.5277  2.0963
    1SAPS  H15Y  123   4.290   2.522   8.925 -0.0152  1.7712  0.5861
    1SAPS  C316  124   4.475   2.530   8.801  0.0590  0.4123 -0.6562
    1SAPS  H16X  125   4.543   2.446   8.826 -2.0624 -0.4257  2.6407
    1SAPS  H16Y  126   4.539   2.618   8.778  0.5218 -0.2174 -1.8221
    1SAPS  C317  127   4.396   2.499   8.677  0.0600  0.2376  0.0078
    1SAPS  H17X  128   4.325   2.418   8.704  3.0467 -2.1385  1.0110
    1SAPS  H17Y  129   4.458   2.441   8.605  0.1188  0.8830 -0.4720
    1SAPS  C318  130   4.336   2.620   8.610  0.0586  0.3059 -0.0116
    1SAPS  H18X  131   4.403   2.673   8.539  1.5951 -1.1565  0.3038
    1SAPS  H18Y  132   4.314   2.706   8.677  1.3703  1.4468 -0.9996
    1SAPS  H18Z  133   4.241   2.600   8.557  0.3860  0.4376 -0.6488
    2SAPS     N  134   2.004   2.124  10.598 -0.0663  0.0577 -0.4276
    2SAPS   HN1  135   2.106   2.110  10.611 -0.3125 -1.0481  0.4137
    2SAPS   HN2  136   1.973   2.041  10.542 -2.5763 -0.2252  1.2968
    2SAPS   HN3  137   1.995   2.219  10.558  0.8624  0.2678 -0.1571
    2SAPS   C12  138   1.921   2.115  10.724 -0.2773 -0.0924 -0.2863
    2SAPS  H12A  139   1.894   2.012  10.739  0.0937  0.0031  1.0743
    2SAPS   C13  140   1.996   2.163  10.854  0.6020  1.0072 -0.5656
    2SAPS  O13A  141   2.121   2.154  10.858 -0.6101 -0.5322  0.2755
    2SAPS  O13B  142   1.931   2.164  10.962  0.0407  0.3650  0.3699
    2SAPS   C11  143   1.791   2.198  10.709  0.1216  0.2473 -0.2702
    2SAPS  H11A  144   1.809   2.302  10.674 -1.9434  1.0277  0.8679
    2SAPS  H11B  145   1.749   2.212  10.811 -0.7264  1.7153 -0.8006
    2SAPS     P  146   1.542   2.163  10.629  0.3897  0.7795 -0.4807
    2SAPS   O13  147   1.475   2.124  10.755 -0.5037 -0.0408  0.1771
    2SAPS   O14  148   1.518   2.307  10.591  0.2428  0.3588 -0.0005
    2SAPS   O12  149   1.694   2.128  10.636 -0.2742  0.1232 -0.5674
    2SAPS   O11  150   1.499   2.064  10.514 -0.0352 -0.6261 -0.0502
    2SAPS    C1  151   1.566   1.942  10.495  0.2069 -0.5373  0.2660
    2SAPS    HA  152   1.597   1.889  10.588 -2.2329  2.0104  2.5822
    2SAPS    HB  153   1.499   1.872  10.441 -0.7009  1.8082 -1.7669
    2SAPS    C2  154   1.697   1.952  10.402 -0.1971 -0.3879 -0.2590
    2SAPS    HS  155   1.775   2.019  10.446  0.3214 -0.9323 -0.3465
    2SAPS   O21  156   1.650   1.993  10.274  0.2149 -0.0793  0.7966
    2SAPS   C21  157   1.727   2.068  10.202 -0.6913 -0.0802  0.1440
    2SAPS   O22  158   1.836   2.113  10.232  0.0337 -0.3003 -0.1624
    2SAPS   C22  159   1.670   2.082  10.059  0.1451 -0.5456 -0.5366
    2SAPS   H2R  160   1.573   2.131  10.080  1.9113  1.8021  2.5428
    2SAPS   H2S  161   1.746   2.145  10.007  2.1882 -1.5394  1.1167
    2SAPS    C3  162   1.755   1.813  10.399 -0.3642  0.0248 -1.0097
    2SAPS    HX  163   1.670   1.756  10.356 -2.4289  1.0621  1.5919
    2SAPS    HY  164   1.794   1.786  10.500  1.9021 -0.5386 -1.9838
    2SAPS   O31  165   1.861   1.795  10.301  0.2303 -0.1043  0.3537
    2SAPS   C31  166   1.983   1.848  10.335 -0.2564  0.6228 -0.1560
    2SAPS   O32  167   2.012   1.901  10.436 -0.1092 -0.2747  0.5247
    2SAPS   C32  168   2.091   1.820  10.233  0.4975  0.4516 -0.2339
    2SAPS   H2X  169   2.084   1.709  10.223  0.5871  0.2256  2.0336
    2SAPS   H2Y  170   2.190   1.840  10.279  1.6559 -0.0789 -2.4055
    2SAPS   C23  171   1.654   1.954   9.986 -0.9753  0.4067 -0.0447
    2SAPS   H3R  172   1.572   1.899  10.038  0.9470 -3.6971 -1.1157
    2SAPS   H3S  173   1.746   1.895  10.008 -0.6348  0.4465 -1.3280
    2SAPS   C24  174   1.620   1.970   9.832 -0.1709  0.0596 -0.2152
    2SAPS   H4R  175   1.535   2.041   9.824  0.0141  0.4260  1.0697
    2SAPS   H4S  176   1.589   1.870   9.794 -0.1341  0.4470 -1.2870
    2SAPS   C25  177   1.733   2.022   9.741 -0.0689  0.4340  0.1427
    2SAPS   H5R  178   1.820   2.072   9.786 -1.1917  2.1033  0.4882
    2SAPS   C26  179   1.724   2.007   9.608 -0.2337 -0.2118 -0.1269
    2SAPS   H6R  180   1.812   2.041   9.551 -0.0680  2.6061  1.7341
    2SAPS   C27  181   1.608   1.942   9.535  0.2303 -0.1420  0.3232
    2SAPS   H7R  182   1.621   1.993   9.437  2.2880  1.8422  1.5712
    2SAPS   H7S  183   1.516   1.979   9.584  0.5274 -0.4074  1.0938
    2SAPS   C28  184   1.613   1.792   9.518  0.1289 -0.2325  0.1057
    2SAPS   H8R  185   1.638   1.729   9.605 -1.3452 -0.6915  0.2001
    2SAPS   C29  186   1.580   1.731   9.403  0.3054 -0.3244  0.0132
    2SAPS   H9R  187   1.558   1.624   9.405  1.6547 -0.6221 -0.1698
    2SAPS  C210  188   1.516   1.800   9.283 -0.0203  0.6168  0.2502
    2SAPS  H10R  189   1.468   1.891   9.325 -0.5822  0.3700  0.1401
    2SAPS  H10S  190   1.440   1.730   9.242 -0.1896  0.7213  0.3843
    2SAPS  C211  191   1.625   1.848   9.186 -0.2540  0.8124 -0.6604
    2SAPS  H11R  192   1.724   1.803   9.205 -0.0624  1.4970 -0.0372
    2SAPS  C212  193   1.605   1.907   9.064 -0.2850 -0.0884 -0.4759
    2SAPS  H12R  194   1.692   1.918   8.998 -0.7849  0.1307 -1.1094
    2SAPS  C213  195   1.466   1.941   9.012 -0.6055  0.3123 -0.7571
    2SAPS  H13R  196   1.405   1.994   9.087 -1.2498 -2.8040  1.0105
    2SAPS  H13S  197   1.409   1.846   9.005  0.6446 -0.5401  0.1723
    2SAPS  C214  198   1.466   1.995   8.874  0.1239 -0.7209  0.9048
    2SAPS  H14R  199   1.556   1.981   8.811 -1.2110  0.0415 -1.2416
    2SAPS  C215  200   1.375   2.077   8.813  0.9500  0.0033 -0.1802
    2SAPS  H15R  201   1.398   2.133   8.722  4.0510  0.4625  0.8182
    2SAPS  C216  202   1.253   2.127   8.893 -0.1897  0.2858  0.9525
    2SAPS  H16R  203   1.247   2.238   8.894 -1.4445  0.2563 -0.5929
    2SAPS  H16S  204   1.272   2.110   9.001  0.3498 -1.5066  0.5911
    2SAPS  C217  205   1.110   2.076   8.850  0.6207  0.5842  0.0636
    2SAPS  H17R  206   1.031   2.107   8.921 -0.3025  0.9148 -1.0883
    2SAPS  H17S  207   1.108   1.965   8.860  1.0909  0.3076 -2.4996
    2SAPS  C218  208   1.077   2.132   8.711 -0.0042  0.0856  0.0172
    2SAPS  H18R  209   1.171   2.131   8.650 -0.6584 -0.3056 -0.9967
    2SAPS  H18S  210   1.061   2.241   8.708  1.7260  0.4174  1.7118
    2SAPS  C219  211   0.962   2.043   8.652 -0.0322  0.5026  0.3856
    2SAPS  H19R  212   0.868   2.080   8.698  0.3931  0.2142  1.4869
    2SAPS  H19S  213   0.976   1.938   8.686 -0.5345 -0.6069 -2.6450
    2SAPS  C220  214   0.952   2.050   8.498  0.0940 -0.6417  0.0460
    2SAPS  H20R  215   0.880   1.969   8.472  0.6812 -1.2391  0.2732
    2SAPS  H20S  216   1.045   2.030   8.441 -2.0377 -1.6628 -3.2214
    2SAPS  H20T  217   0.910   2.151   8.478  1.9366  0.0767 -0.2463
    2SAPS   C33  218   2.076   1.860  10.083  0.1669 -0.0528  0.2469
    2SAPS   H3X  219   2.068   1.970  10.064 -0.6008  0.4674  3.3972
    2SAPS   H3Y  220   1.988   1.818  10.030  0.2387  2.3936 -1.9409
    2SAPS   C34  221   2.199   1.810  10.006  0.1426 -0.2497  0.6120
    2SAPS   H4X  222   2.206   1.700  10.016 -0.8201 -0.3915 -0.1405
    2SAPS   H4Y  223   2.298   1.847  10.040 -0.0026  0.7947 -0.0767
    2SAPS   C35  224   2.198   1.848   9.848 -0.6089  0.0837 -0.0437
    2SAPS   H5X  225   2.222   1.955   9.837 -2.9862  1.0644  3.4367
    2SAPS   H5Y  226   2.093   1.837   9.813 -0.5007  0.4046 -0.4747
    2SAPS   C36  227   2.288   1.769   9.752  0.8083  0.6234 -0.5018
    2SAPS   H6X  228   2.244   1.668   9.739  3.0090 -0.3806 -0.3282
    2SAPS   H6Y  229   2.382   1.754   9.809  1.2893  1.6793 -0.9914
    2SAPS   C37  230   2.281   1.840   9.619  0.7799  0.2737 -0.0452
    2SAPS   H7X  231   2.333   1.781   9.541  0.5571 -0.1644  0.1334
    2SAPS   H7Y  232   2.336   1.937   9.620  2.1043 -0.4652 -0.0384
    2SAPS   C38  233   2.145   1.849   9.551 -0.2454  0.4899  0.3360
    2SAPS   H8X  234   2.082   1.927   9.599 -2.3269 -0.0575 -1.4322
    2SAPS   H8Y  235   2.096   1.750   9.560  0.3598  0.3145  1.8855
    2SAPS   C39  236   2.147   1.892   9.399 -0.8138 -0.8653 -0.1802
    2SAPS   H9X  237   2.203   1.817   9.340  1.4067 -0.1091  0.8950
    2SAPS   H9Y  238   2.190   1.993   9.382  0.6056 -1.8525 -2.7254
    2SAPS  C310  239   2.009   1.891   9.322 -0.0280 -1.0534 -0.7457
    2SAPS  H10X  240   1.943   1.960   9.379 -0.8487 -2.3586 -0.0779
    2SAPS  H10Y  241   1.970   1.789   9.340 -0.4080 -0.5370  1.4551
    2SAPS  C311  242   2.020   1.922   9.174  0.4558  1.1194  0.1274
    2SAPS  H11X  243   1.937   1.863   9.127  0.7504  0.4580  0.4263
    2SAPS  H11Y  244   2.122   1.891   9.143 -0.0548 -1.0496  0.5040
    2SAPS  C312  245   2.015   2.074   9.149 -0.0330  0.0894  0.3950
    2SAPS  H12X  246   2.115   2.118   9.167  0.0894  1.2119 -2.6376
    2SAPS  H12Y  247   1.939   2.116   9.219  0.4344  1.6829 -0.0372
    2SAPS  C313  248   1.986   2.103   8.996  0.0600 -0.4560 -0.2994
    2SAPS  H13X  249   1.981   2.214   8.986 -0.8718 -0.2689  1.9792
    2SAPS  H13Y  250   1.885   2.065   8.971  0.7247 -2.2320 -0.3038
    2SAPS  C314  251   2.088   2.046   8.904  0.4389 -0.6935 -0.8010
    2SAPS  H14X  252   2.070   1.937   8.917 -0.7638 -0.3770  0.3251
    2SAPS  H14Y  253   2.192   2.075   8.931 -1.0205  3.2650  0.9526
    2SAPS  C315  254   2.064   2.075   8.753  0.7284  0.1015 -0.4904
    2SAPS  H15X  255   2.082   2.183   8.735 -0.2351  0.8497  2.7378
    2SAPS  H15Y  256   1.959   2.053   8.725  0.8420 -0.7046 -0.3059
    2SAPS  C316  257   2.152   1.991   8.666  0.6507 -0.8543 -0.2135
    2SAPS  H16X  258   2.123   1.993   8.559 -1.3801 -1.0481  0.3077
    2SAPS  H16Y  259   2.126   1.887   8.693 -0.2180 -1.0104 -1.5752
    2SAPS  C317  260   2.300   2.022   8.678 -0.0469 -0.1379 -0.8166
    2SAPS  H17X  261   2.342   1.973   8.768 -1.6079  1.6643  0.9233
    2SAPS  H17Y  262   2.293   2.131   8.696  1.2913 -0.4050  1.5082
    2SAPS  C318  263   2.385   1.984   8.555 -0.0587 -0.5357 -0.0362
    2SAPS  H18X  264   2.389   1.875   8.534  0.3684 -0.2060 -1.6796
    2SAPS  H18Y  265   2.489   2.021   8.548 -0.8253  1.6589 -0.4517
    2SAPS  H18Z  266   2.337   2.031   8.466 -0.5135 -2.1234 -0.6423
    3SAPS     N  267   2.397   3.788  11.025 -0.0250 -0.6461 -0.3525
    3SAPS   HN1  268   2.421   3.720  11.100 -2.9107 -1.4404 -0.0955
    3SAPS   HN2  269   2.293   3.796  11.018  0.1197  0.8474 -0.8828
    3SAPS   HN3  270   2.431   3.758  10.932 -1.6762 -2.4234 -0.4215
    3SAPS   C12  271   2.462   3.917  11.061  0.0990  0.1405  0.4499
    3SAPS  H12A  272   2.435   3.985  10.981  3.0280 -0.3205 -0.9993
    3SAPS   C13  273   2.414   3.986  11.195 -0.0807  0.3109  0.0300
    3SAPS  O13A  274   2.331   3.931  11.272  0.6098  0.0953  0.2451
    3SAPS  O13B  275   2.458   4.101  11.211 -0.0723  0.0585  0.0363
    3SAPS   C11  276   2.613   3.895  11.069 -0.9270 -0.4693  0.6946
    3SAPS  H11A  277   2.635   3.824  11.151  0.1482  2.2685  2.8539
    3SAPS  H11B  278   2.661   3.992  11.092 -0.4831 -1.2344  3.1225
    3SAPS     P  279   2.716   3.932  10.835  0.2006  0.0921 -0.1569
    3SAPS   O13  280   2.774   4.054  10.895 -0.1277 -0.7085 -0.3099
    3SAPS   O14  281   2.809   3.867  10.738  0.5576  0.2410 -0.2275
    3SAPS   O12  282   2.678   3.837  10.957  0.4475 -0.0818 -0.3372
    3SAPS   O11  283   2.578   3.972  10.768  0.1807  0.4855  0.4089
    3SAPS    C1  284   2.497   3.893  10.694 -0.3643  0.3636 -0.2241
    3SAPS    HA  285   2.510   3.785  10.716  0.7110  0.6501  0.5772
    3SAPS    HB  286   2.394   3.931  10.709  0.1457  0.8171  2.4158
    3SAPS    C2  287   2.529   3.897  10.545 -0.0129  0.4731 -0.2669
    3SAPS    HS  288   2.630   3.854  10.533 -0.5972 -1.2209  0.7621
    3SAPS   O21  289   2.527   4.034  10.508  0.2875  0.0428  0.0486
    3SAPS   C21  290   2.615   4.076  10.420  0.0402 -0.6660 -0.5419
    3SAPS   O22  291   2.700   4.002  10.371  0.2978 -0.4656  0.5902
    3SAPS   C22  292   2.606   4.223  10.394  0.5473 -0.0583 -0.4293
    3SAPS   H2R  293   2.501   4.232  10.359  0.8404  3.1533 -0.6533
    3SAPS   H2S  294   2.611   4.288  10.484  0.6478  0.4701 -0.8145
    3SAPS    C3  295   2.432   3.814  10.463 -0.6373  0.5980  0.1601
    3SAPS    HX  296   2.327   3.849  10.472 -1.1649 -1.5116  2.9217
    3SAPS    HY  297   2.429   3.718  10.519 -2.1653 -0.5952 -1.8950
    3SAPS   O31  298   2.487   3.792  10.338  0.2999  0.4595 -0.7834
    3SAPS   C31  299   2.446   3.869  10.246 -0.1609  0.3652  0.0249
    3SAPS   O32  300   2.373   3.965  10.262 -0.2005 -0.0266  0.0445
    3SAPS   C32  301   2.500   3.820  10.111 -0.6380 -0.1831 -0.0434
    3SAPS   H2X  302   2.435   3.743  10.065  0.3243  0.2499 -2.1776
    3SAPS   H2Y  303   2.599   3.770  10.124 -1.1214 -1.0382  0.4380
    3SAPS   C23  304   2.693   4.279  10.278 -0.2460  0.1417 -0.2310
    3SAPS   H3R  305   2.702   4.209  10.192 -3.3804 -0.1965 -0.3213
    3SAPS   H3S  306   2.797   4.285  10.316  0.6895 -0.4051 -2.6189
    3SAPS   C24  307   2.645   4.414  10.241 -0.6424 -0.8381  0.7390
    3SAPS   H4R  308   2.620   4.472  10.332  0.0083  1.1490 -0.3202
    3SAPS   H4S  309   2.552   4.403  10.180 -0.2741 -1.6090  0.3163
    3SAPS   C25  310   2.741   4.481  10.148  0.1474  0.1308 -0.0566
    3SAPS   H5R  311   2.784   4.575  10.186 -1.1786  0.4338  0.7145
    3SAPS   C26  312   2.780   4.444  10.022  0.1212 -0.0593  0.5441
    3SAPS   H6R  313   2.859   4.493   9.963 -0.8823 -1.2715 -1.8321
    3SAPS   C27  314   2.729   4.329   9.939 -0.0082 -0.1694 -0.3413
    3SAPS   H7R  315   2.648   4.271   9.988  3.2271 -3.8304  1.0109
    3SAPS   H7S  316   2.807   4.251   9.932 -1.7057 -1.7400 -2.1112
    3SAPS   C28  317   2.682   4.380   9.806 -0.1484 -0.6403 -0.6400
    3SAPS   H8R  318   2.589   4.438   9.811 -0.3103 -0.8486 -1.2454
    3SAPS   C29  319   2.748   4.367   9.688  0.0786  0.6513 -0.0183
    3SAPS   H9R  320   2.703   4.411   9.598  3.2659  1.3301 -1.3258
    3SAPS  C210  321   2.876   4.296   9.651 -0.2004 -0.6123  0.0114
    3SAPS  H10R  322   2.850   4.205   9.592  0.4638 -1.9405  1.7094
    3SAPS  H10S  323   2.919   4.246   9.741  1.5590 -0.3087 -0.6518
    3SAPS  C211  324   2.982   4.380   9.593 -0.1818 -0.0200  0.4012
    3SAPS  H11R  325   3.060   4.407   9.665 -0.7996 -1.1001  1.5031
    3SAPS  C212  326   2.988   4.415   9.462 -0.2411  0.2823  0.0500
    3SAPS  H12R  327   3.069   4.480   9.426 -0.4939  0.6661  0.1705
    3SAPS  C213  328   2.895   4.380   9.352  0.1697 -0.4470 -0.5927
    3SAPS  H13R  329   2.837   4.292   9.386  0.5524  0.8136  3.6204
    3SAPS  H13S  330   2.953   4.343   9.264 -0.8479 -1.9455 -0.6365
    3SAPS  C214  331   2.810   4.498   9.315  0.4771 -0.7425 -0.2467
    3SAPS  H14R  332   2.774   4.559   9.400 -1.8001 -0.1563 -1.5893
    3SAPS  C215  333   2.767   4.534   9.193 -0.4232 -0.6061 -0.5479
    3SAPS  H15R  334   2.702   4.623   9.190 -0.9129 -0.8790  1.1630
    3SAPS  C216  335   2.801   4.475   9.064  0.3748 -0.7054  0.2516
    3SAPS  H16R  336   2.716   4.477   8.992 -0.3597 -1.1255  1.1011
    3SAPS  H16S  337   2.810   4.365   9.077  0.7883 -0.5909  0.9192
    3SAPS  C217  338   2.929   4.516   8.995 -0.8707 -0.9405  0.7344
    3SAPS  H17R  339   2.940   4.457   8.901 -0.8682 -1.1288  0.8543
    3SAPS  H17S  340   3.014   4.488   9.060 -2.5236  3.7198  5.1843
    3SAPS  C218  341   2.939   4.659   8.949 -0.0748 -0.0251  0.8916
    3SAPS  H18R  342   3.047   4.675   8.930 -0.2281 -0.4442 -0.3748
    3SAPS  H18S  343   2.915   4.740   9.021 -0.2605  0.0786  0.7125
    3SAPS  C219  344   2.879   4.695   8.804  0.5015  0.1705  0.3968
    3SAPS  H19R  345   2.769   4.703   8.811  0.0674 -2.2881 -2.5893
    3SAPS  H19S  346   2.901   4.616   8.729  1.5688  0.1157  0.7604
    3SAPS  C220  347   2.942   4.826   8.752 -0.2593 -0.3430 -0.8190
    3SAPS  H20R  348   2.907   4.912   8.813 -0.4081 -1.2085  0.3488
    3SAPS  H20S  349   2.900   4.847   8.651  1.3733  1.3203 -1.1726
    3SAPS  H20T  350   3.051   4.806   8.750 -0.2289 -0.6013  1.6521
    3SAPS   C33  351   2.517   3.941  10.006  0.0139  0.2941  0.8530
    3SAPS   H3X  352   2.599   4.013  10.023  0.1131  0.2612  0.5158
    3SAPS   H3Y  353   2.422   4.000  10.002 -0.9819 -1.1950  1.9001
    3SAPS   C34  354   2.564   3.888   9.875 -0.2426  0.4144  0.5335
    3SAPS   H4X  355   2.488   3.812   9.844 -0.1836 -0.1434  1.7574
    3SAPS   H4Y  356   2.662   3.841   9.897 -0.3708  0.4347  1.1465
    3SAPS   C35  357   2.571   3.999   9.763 -0.1820  0.4439  0.2585
    3SAPS   H5X  358   2.616   4.091   9.805  1.0464  0.1773 -0.4662
    3SAPS   H5Y  359   2.469   4.043   9.748 -1.7041 -2.6960  0.9808
    3SAPS   C36  360   2.640   3.944   9.638  0.3981  0.1512  0.5283
    3SAPS   H6X  361   2.600   3.843   9.619  0.5050 -0.0213  1.1895
    3SAPS   H6Y  362   2.746   3.937   9.673  0.0157  0.3392  1.7348
    3SAPS   C37  363   2.608   4.030   9.510  0.0372 -0.6270  0.5879
    3SAPS   H7X  364   2.633   4.136   9.530 -0.6839 -0.1543 -0.9259
    3SAPS   H7Y  365   2.501   4.013   9.487 -0.6296  3.1603  0.6868
    3SAPS   C38  366   2.706   3.978   9.399 -0.0672 -0.5418 -0.0630
    3SAPS   H8X  367   2.695   3.870   9.379  0.9961 -0.6743  0.0539
    3SAPS   H8Y  368   2.809   4.004   9.433  0.1555 -1.9682  0.3706
    3SAPS   C39  369   2.666   4.046   9.266 -0.0853  0.2246  0.8172
    3SAPS   H9X  370   2.646   4.154   9.281 -2.1339  0.2311 -1.6886
    3SAPS   H9Y  371   2.577   3.988   9.233 -0.7786  1.5655  0.2804
    3SAPS  C310  372   2.772   4.013   9.168 -0.3288 -0.8719  0.2928
    3SAPS  H10X  373   2.783   3.903   9.172  0.5610 -0.7361  1.4987
    3SAPS  H10Y  374   2.869   4.055   9.202 -0.9218 -0.1199  1.0616
    3SAPS  C311  375   2.731   4.066   9.032 -0.3486  1.1814  0.5248
    3SAPS  H11X  376   2.704   4.170   9.057 -1.5764  0.6813  1.3397
    3SAPS  H11Y  377   2.636   4.016   9.000 -0.1412 -0.1555  1.9454
    3SAPS  C312  378   2.840   4.056   8.926  0.1979  0.2982 -0.4485
    3SAPS  H12X  379   2.933   4.095   8.972 -0.9306  2.3332  0.2009
    3SAPS  H12Y  380   2.813   4.117   8.838 -0.5807  1.8634  0.8517
    3SAPS  C313  381   2.883   3.920   8.869  0.3060 -1.2172 -0.7006
    3SAPS  H13X  382   2.798   3.859   8.832 -0.7251 -0.3188  0.1617
    3SAPS  H13Y  383   2.917   3.853   8.951  1.0991 -0.8291 -0.6997
    3SAPS  C314  384   2.995   3.933   8.763 -0.6679  0.8486  0.3595
    3SAPS  H14X  385   3.050   4.027   8.782 -0.0869  0.6138 -0.1440
    3SAPS  H14Y  386   2.950   3.953   8.664 -2.5164 -3.0576  0.3025
    3SAPS  C315  387   3.099   3.817   8.771 -0.0806  0.0432 -0.6186
    3SAPS  H15X  388   3.043   3.722   8.788 -0.6809  0.0558 -2.4350
    3SAPS  H15Y  389   3.161   3.825   8.863 -1.3465  0.4660  0.1979
    3SAPS  C316  390   3.200   3.805   8.651 -0.3314 -0.4161 -0.0687
    3SAPS  H16X  391   3.152   3.764   8.560 -0.2426  0.2169 -0.4000
    3SAPS  H16Y  392   3.279   3.733   8.682  2.0916  2.4129  0.4561
    3SAPS  C317  393   3.279   3.937   8.613  0.4063 -0.1184  0.4429
    3SAPS  H17X  394   3.324   3.987   8.702 -1.1367 -2.2731  2.4924
    3SAPS  H17Y  395   3.210   4.014   8.574  1.3047  0.4259 -0.1066
    3SAPS  C318  396   3.378   3.919   8.498 -0.4205 -0.1510  0.8011
    3SAPS  H18X  397   3.462   3.849   8.519 -0.2971 -0.0575  0.6170
    3SAPS  H18Y  398   3.416   4.020   8.471 -0.0140 -0.0230  1.8268
    3SAPS  H18Z  399   3.311   3.878   8.420  0.4363 -0.1942  0.0832
    4SAPS     N  400   4.341   5.640  10.987  0.8330  0.1725 -0.3790
    4SAPS   HN1  401   4.442   5.629  10.968  1.4245 -1.8943  3.4119
    4SAPS   HN2  402   4.300   5.653  10.892  2.3645  2.3296 -0.7701
    4SAPS   HN3  403   4.337   5.723  11.050  1.3133 -0.2972  0.2744
    4SAPS   C12  404   4.297   5.515  11.055 -0.3943 -0.6140 -0.6102
    4SAPS  H12A  405   4.336   5.502  11.155 -0.4973  1.0470 -0.3553
    4SAPS   C13  406   4.143   5.498  11.044 -0.0179  0.7471  0.6007
    4SAPS  O13A  407   4.072   5.553  10.959  0.4080  0.6007  0.0086
    4SAPS  O13B  408   4.096   5.434  11.139  0.2265  0.2140 -0.6846
    4SAPS   C11  409   4.366   5.402  10.965  0.0171  0.2633 -0.9315
    4SAPS  H11A  410   4.316   5.410  10.866 -4.0416 -0.6256  0.9253
    4SAPS  H11B  411   4.325   5.306  11.002  0.8273 -0.9072 -2.9439
    4SAPS     P  412   4.597   5.464  10.852  0.4381 -0.8206  0.4337
    4SAPS   O13  413   4.581   5.610  10.855 -0.1130 -0.2431  0.1582
    4SAPS   O14  414   4.733   5.408  10.859  0.1556  0.0526 -0.8924
    4SAPS   O12  415   4.506   5.409  10.969  0.6498  0.6741  0.2956
    4SAPS   O11  416   4.518   5.408  10.738 -0.2091 -0.1833 -0.4693
    4SAPS    C1  417   4.579   5.339  10.625  0.7908  0.5744  0.1754
    4SAPS    HA  418   4.655   5.402  10.573  0.3455  0.1238 -1.0361
    4SAPS    HB  419   4.629   5.244  10.654  0.7060  0.0567 -1.3074
    4SAPS    C2  420   4.474   5.311  10.512 -0.7505 -0.4225 -0.4748
    4SAPS    HS  421   4.397   5.237  10.542 -1.7738  1.2539  1.2050
    4SAPS   O21  422   4.539   5.279  10.393 -0.6237  0.4071  0.0114
    4SAPS   C21  423   4.596   5.154  10.397 -0.5777 -0.4718  0.5641
    4SAPS   O22  424   4.588   5.077  10.489 -0.2376  0.6986  0.7199
    4SAPS   C22  425   4.668   5.129  10.266  0.2636 -0.0946 -0.1183
    4SAPS   H2R  426   4.721   5.218  10.226 -1.5935 -0.0331 -2.4917
    4SAPS   H2S  427   4.739   5.044  10.276  0.0475 -0.4026 -1.1945
    4SAPS    C3  428   4.393   5.438  10.495 -0.3695 -0.0321  0.3548
    4SAPS    HX  429   4.445   5.526  10.451  0.9769 -0.1509  1.6627
    4SAPS    HY  430   4.359   5.469  10.596  2.9709  1.2726  1.1542
    4SAPS   O31  431   4.287   5.407  10.407  0.2310 -0.8732 -0.4196
    4SAPS   C31  432   4.175   5.365  10.453  0.5471 -0.3018  0.3580
    4SAPS   O32  433   4.141   5.351  10.569  0.3522 -0.0068 -0.5069
    4SAPS   C32  434   4.091   5.325  10.335  1.0833  0.1779  0.0362
    4SAPS   H2X  435   3.986   5.324  10.370  1.4481  1.0443  1.1977
    4SAPS   H2Y  436   4.125   5.224  10.304 -2.2736 -1.2274  0.7260
    4SAPS   C23  437   4.574   5.087  10.155  0.2138  0.6244  0.6283
    4SAPS   H3R  438   4.625   5.089  10.056  2.8000  2.5871  1.9381
    4SAPS   H3S  439   4.493   5.162  10.148  1.1501  1.5916 -0.1117
    4SAPS   C24  440   4.499   4.954  10.187  0.0351 -0.7533 -0.5930
    4SAPS   H4R  441   4.437   4.968  10.278  0.3537 -2.0179 -0.1791
    4SAPS   H4S  442   4.572   4.878  10.221  0.6327 -0.5254 -1.3550
    4SAPS   C25  443   4.425   4.917  10.064 -0.1485  0.0079  0.9779
    4SAPS   H5R  444   4.487   4.860   9.993 -0.3713 -0.0867  0.8611
    4SAPS   C26  445   4.298   4.950  10.042 -0.5827  0.3694  0.1740
    4SAPS   H6R  446   4.240   4.918   9.954 -2.7108 -0.1639  1.7198
    4SAPS   C27  447   4.218   5.038  10.135  0.3218 -0.5666  0.4065
    4SAPS   H7R  448   4.153   5.104  10.074  0.1961 -0.3969  0.7270
    4SAPS   H7S  449   4.287   5.110  10.184 -1.4321  2.0075 -0.7878
    4SAPS   C28  450   4.140   4.959  10.239 -0.1411 -0.5189  0.6144
    4SAPS   H8R  451   4.203   4.922  10.321 -1.8175 -1.7598  1.3441
    4SAPS   C29  452   4.012   4.928  10.225 -0.4150  0.3863 -0.1284
    4SAPS   H9R  453   3.964   4.868  10.303  1.4834  0.2199  0.9355
    4SAPS  C210  454   3.920   4.971  10.118  0.0096  0.1358 -0.2969
    4SAPS  H10R  455   3.980   5.042  10.057  0.6211  0.2258  0.3990
    4SAPS  H10S  456   3.840   5.034  10.163 -1.9277 -1.4960 -1.3968
    4SAPS  C211  457   3.865   4.849  10.040  0.3901 -0.4383 -0.1087
    4SAPS  H11R  458   3.798   4.791  10.105  0.8328 -0.7448  0.0774
    4SAPS  C212  459   3.888   4.817   9.914  0.1704 -0.0828 -0.2933
    4SAPS  H12R  460   3.854   4.716   9.885  0.3210 -0.9989  2.5455
    4SAPS  C213  461   3.972   4.899   9.811 -0.3053  0.1906  0.7810
    4SAPS  H13R  462   4.008   4.834   9.728 -0.0337  1.1186  0.1625
    4SAPS  H13S  463   4.066   4.924   9.865  0.6006 -1.6733  0.0832
    4SAPS  C214  464   3.906   5.027   9.773 -0.0294  0.2064  0.9737
    4SAPS  H14R  465   3.810   5.044   9.822 -0.7240  0.2296 -0.3793
    4SAPS  C215  466   3.955   5.114   9.683  0.0687  0.3190 -0.7225
    4SAPS  H15R  467   3.901   5.208   9.666 -0.6148  0.4024  1.6635
    4SAPS  C216  468   4.092   5.107   9.609  0.2779  0.1848  0.2505
    4SAPS  H16R  469   4.076   5.119   9.499  1.0516  0.2487  0.1410
    4SAPS  H16S  470   4.130   5.003   9.620  0.2151 -0.0258 -1.4026
    4SAPS  C217  471   4.184   5.214   9.664  0.5118  0.5897 -0.0992
    4SAPS  H17R  472   4.140   5.316   9.651  0.3025  0.9022  2.8634
    4SAPS  H17S  473   4.276   5.212   9.602  1.0431 -0.0738  0.7098
    4SAPS  C218  474   4.224   5.193   9.807  0.3459 -1.3065  0.6521
    4SAPS  H18R  475   4.236   5.084   9.821  0.4043 -1.3312  0.4163
    4SAPS  H18S  476   4.141   5.233   9.869  1.1857  3.2951 -0.9850
    4SAPS  C219  477   4.337   5.277   9.854 -0.1460 -0.0380 -0.1347
    4SAPS  H19R  478   4.336   5.269   9.965 -2.9402  1.3003 -0.0205
    4SAPS  H19S  479   4.323   5.383   9.823 -2.4877 -0.3292 -0.1618
    4SAPS  C220  480   4.481   5.216   9.820  0.4660 -0.4485 -0.4302
    4SAPS  H20R  481   4.489   5.117   9.870  1.9224 -0.4702 -0.6832
    4SAPS  H20S  482   4.564   5.283   9.853 -0.9345  1.2122 -0.2308
    4SAPS  H20T  483   4.489   5.193   9.712 -0.9683 -1.1884 -0.3953
    4SAPS   C33  484   4.104   5.421  10.211 -1.2010  0.3396 -0.1632
    4SAPS   H3X  485   4.204   5.416  10.165 -0.4601  3.0431  1.0236
    4SAPS   H3Y  486   4.083   5.522  10.253 -2.8226  0.2885 -0.8071
    4SAPS   C34  487   4.006   5.384  10.100  0.1916  0.2116 -0.2049
    4SAPS   H4X  488   4.021   5.277  10.074  0.7287 -0.2249  1.7623
    4SAPS   H4Y  489   4.033   5.447  10.013 -1.1747 -0.0894 -0.8503
    4SAPS   C35  490   3.859   5.402  10.126 -0.8059 -0.7734  0.5319
    4SAPS   H5X  491   3.828   5.482  10.196 -1.2863  0.1719 -0.7435
    4SAPS   H5Y  492   3.815   5.312  10.174  1.1298 -0.7135  2.5131
    4SAPS   C36  493   3.772   5.433   9.992 -0.0035  0.2981 -0.2413
    4SAPS   H6X  494   3.804   5.527   9.942  0.0566  1.2813  1.6354
    4SAPS   H6Y  495   3.670   5.460  10.027 -0.5105  1.7931 -2.7150
    4SAPS   C37  496   3.785   5.316   9.891  0.0315 -0.3285 -0.1110
    4SAPS   H7X  497   3.763   5.222   9.946 -2.2882 -0.8815 -1.9194
    4SAPS   H7Y  498   3.891   5.314   9.858  0.3173 -0.1465  0.7692
    4SAPS   C38  499   3.691   5.324   9.769  0.0944  0.0917  0.1480
    4SAPS   H8X  500   3.682   5.231   9.708 -0.5422  0.5174 -0.4081
    4SAPS   H8Y  501   3.727   5.409   9.709 -0.8733 -0.4807 -1.2667
    4SAPS   C39  502   3.540   5.363   9.787  0.8067 -0.0781  0.1784
    4SAPS   H9X  503   3.530   5.428   9.876 -0.6016 -0.2893  0.1937
    4SAPS   H9Y  504   3.478   5.274   9.811 -1.0264  1.3742  0.9581
    4SAPS  C310  505   3.482   5.432   9.669  0.7834 -0.8042 -0.7856
    4SAPS  H10X  506   3.489   5.363   9.582 -0.8018  1.6956 -2.9683
    4SAPS  H10Y  507   3.552   5.516   9.647  0.4017 -0.9221 -2.5663
    4SAPS  C311  508   3.334   5.467   9.676  0.5725 -0.4723  0.1848
    4SAPS  H11X  509   3.310   5.531   9.765  0.0965  0.2122 -0.4244
    4SAPS  H11Y  510   3.274   5.373   9.678 -0.6880  0.3320  2.0889
    4SAPS  C312  511   3.296   5.542   9.543  0.4221 -0.1613 -0.5869
    4SAPS  H12X  512   3.372   5.615   9.507 -1.8357  1.1812 -2.7425
    4SAPS  H12Y  513   3.203   5.600   9.560  0.7373 -0.0061  0.6983
    4SAPS  C313  514   3.272   5.444   9.425  0.1829 -0.1594 -0.0586
    4SAPS  H13X  515   3.191   5.377   9.462 -0.9664  0.1709 -1.9240
    4SAPS  H13Y  516   3.366   5.387   9.408  0.3464  0.2370 -0.4910
    4SAPS  C314  517   3.218   5.503   9.297  0.1147  0.0204  0.0901
    4SAPS  H14X  518   3.110   5.525   9.309 -0.1983 -0.6610 -1.4097
    4SAPS  H14Y  519   3.225   5.421   9.223 -1.4539  0.0278 -0.0877
    4SAPS  C315  520   3.303   5.626   9.247 -0.2895  0.2671 -0.6053
    4SAPS  H15X  521   3.408   5.596   9.266 -0.5544 -0.0180  0.4499
    4SAPS  H15Y  522   3.277   5.709   9.316  2.0999 -0.5998  1.4217
    4SAPS  C316  523   3.289   5.659   9.098 -0.6548  0.7097  0.1811
    4SAPS  H16X  524   3.311   5.564   9.044  1.7232  2.6404 -2.4473
    4SAPS  H16Y  525   3.358   5.743   9.076  0.0401  0.0767 -0.1204
    4SAPS  C317  526   3.146   5.704   9.055 -0.0785 -0.5435  0.1685
    4SAPS  H17X  527   3.140   5.806   9.099  0.7900 -0.7073  0.6766
    4SAPS  H17Y  528   3.072   5.630   9.095 -1.3809  0.6627  0.0170
    4SAPS  C318  529   3.137   5.721   8.908 -0.3838 -0.2322  0.0253
    4SAPS  H18X  530   3.162   5.631   8.849 -0.1768 -1.7252  2.3480
    4SAPS  H18Y  531   3.203   5.807   8.882 -1.5814  1.3808  2.0822
    4SAPS  H18Z  532   3.033   5.746   8.877 -0.8931 -2.2867  0.0261
    5SAPS     N  533   2.376   4.770  10.754 -0.0229 -1.1280 -0.3716
    5SAPS   HN1  534   2.474   4.772  10.719 -0.5376 -0.9879 -1.8664
    5SAPS   HN2  535   2.322   4.698  10.702 -2.2231 -0.3295  0.7595
    5SAPS   HN3  536   2.343   4.867  10.735 -0.3768 -0.7893  1.8238
    5SAPS   C12  537   2.351   4.754  10.899 -0.4217  0.3601  0.7800
    5SAPS  H12A  538   2.369   4.649  10.915  0.3573  0.1557 -1.3384
    5SAPS   C13  539   2.438   4.832  11.004 -0.3931 -0.2631 -0.7847
    5SAPS  O13A  540   2.536   4.900  10.966  0.2878 -0.2144  0.1999
    5SAPS  O13B  541   2.381   4.853  11.113 -0.6707  0.1468  0.0982
    5SAPS   C11  542   2.195   4.787  10.914 -0.5056  0.4891 -0.1007
    5SAPS  H11A  543   2.170   4.890  10.878 -1.7843 -0.3506 -1.7361
    5SAPS  H11B  544   2.168   4.780  11.021 -1.4616  0.8836 -0.3089
    5SAPS     P  545   1.962   4.699  10.829  0.1759  0.7250 -0.0339
    5SAPS   O13  546   1.917   4.582  10.912 -0.3309  0.1245 -0.2000
    5SAPS   O14  547   1.909   4.828  10.880  0.3473  0.2297 -0.1025
    5SAPS   O12  548   2.116   4.703  10.823  0.2143  0.3739 -0.1540
    5SAPS   O11  549   1.917   4.677  10.683  0.0593 -0.1099  0.6745
    5SAPS    C1  550   1.946   4.553  10.616 -0.0725 -0.2239 -0.5083
    5SAPS    HA  551   1.967   4.466  10.683 -2.5752 -1.2268 -0.9640
    5SAPS    HB  552   1.863   4.530  10.545  1.2910 -0.7332 -1.9434
    5SAPS    C2  553   2.057   4.576  10.509  0.2348 -0.2474  0.4093
    5SAPS    HS  554   2.149   4.599  10.567 -0.6744 -0.8873  2.1672
    5SAPS   O21  555   2.006   4.680  10.423  0.2419  0.1230 -0.7907
    5SAPS   C21  556   2.058   4.795  10.444 -0.8466 -0.0470  0.5288
    5SAPS   O22  557   2.148   4.824  10.522 -0.2239  0.3984  0.2118
    5SAPS   C22  558   1.977   4.885  10.352  0.2425  0.5021  0.3658
    5SAPS   H2R  559   2.021   4.864  10.252 -0.4343 -0.5074  0.2801
    5SAPS   H2S  560   1.874   4.843  10.355  0.4682 -0.3019 -2.3567
    5SAPS    C3  561   2.075   4.448  10.428  0.5683  0.7699 -0.0628
    5SAPS    HX  562   1.976   4.409  10.395  0.9328 -0.9002  0.7575
    5SAPS    HY  563   2.118   4.362  10.483 -0.1714 -0.0858 -0.8024
    5SAPS   O31  564   2.146   4.478  10.306  0.0143  0.0339  0.5006
    5SAPS   C31  565   2.162   4.361  10.233  0.2869  0.2869 -0.0872
    5SAPS   O32  566   2.112   4.255  10.263  0.2392 -0.0945 -0.1792
    5SAPS   C32  567   2.253   4.390  10.120  0.3494  0.2637 -0.1651
    5SAPS   H2X  568   2.350   4.430  10.158 -0.1442 -0.2929  1.6859
    5SAPS   H2Y  569   2.204   4.464  10.052 -2.6208 -1.1819  0.3284
    5SAPS   C23  570   1.973   5.036  10.390  0.1167 -0.3731  0.2238
    5SAPS   H3R  571   2.060   5.067  10.452 -0.3041  0.7792  0.2349
    5SAPS   H3S  572   1.884   5.057  10.453 -0.3088 -1.1983 -0.0888
    5SAPS   C24  573   1.948   5.114  10.266 -1.0176 -0.1453 -0.2716
    5SAPS   H4R  574   1.930   5.222  10.285  0.5495 -0.1828  1.6301
    5SAPS   H4S  575   1.859   5.071  10.215 -0.1371 -1.5080 -0.7102
    5SAPS   C25  576   2.066   5.122  10.171  0.1813 -0.5343  0.1516
    5SAPS   H5R  577   2.164   5.156  10.208 -0.4451  3.2407 -1.4025
    5SAPS   C26  578   2.063   5.094  10.041 -0.7542  0.5917 -0.8713
    5SAPS   H6R  579   2.150   5.134   9.987  0.3093 -0.2074  0.2125
    5SAPS   C27  580   1.947   5.057   9.955  0.2222 -0.3829  0.2199
    5SAPS   H7R  581   1.852   5.067  10.011  0.7668  0.4088  1.0174
    5SAPS   H7S  582   1.952   4.950   9.926 -3.6686 -0.6469  0.2637
    5SAPS   C28  583   1.937   5.144   9.826 -0.0121  0.7504 -0.3434
    5SAPS   H8R  584   1.920   5.250   9.847 -0.7175  0.6337 -0.2962
    5SAPS   C29  585   1.918   5.100   9.700  0.2656  0.3816 -0.4805
    5SAPS   H9R  586   1.928   5.175   9.620  3.1501  1.8013  1.1426
    5SAPS  C210  587   1.931   4.951   9.659 -0.0296 -0.7527 -0.0017
    5SAPS  H10R  588   2.025   4.910   9.701  0.9020  0.9373 -0.3973
    5SAPS  H10S  589   1.936   4.946   9.548 -0.7415  0.5969 -0.1031
    5SAPS  C211  590   1.808   4.871   9.704 -0.3235  0.1636 -1.0163
    5SAPS  H11R  591   1.774   4.897   9.805  4.5009 -0.7614  1.0047
    5SAPS  C212  592   1.771   4.756   9.643  0.1668 -0.4275  0.1109
    5SAPS  H12R  593   1.683   4.711   9.692 -1.1699  0.7031 -1.2161
    5SAPS  C213  594   1.816   4.690   9.507  0.1789 -0.0489 -0.7104
    5SAPS  H13R  595   1.847   4.764   9.430  1.9126 -0.7682 -0.7134
    5SAPS  H13S  596   1.726   4.638   9.467 -1.3292  0.4033  1.9890
    5SAPS  C214  597   1.911   4.577   9.500  0.3007  0.3009  0.8188
    5SAPS  H14R  598   1.984   4.565   9.581 -0.2628  0.0121  1.2921
    5SAPS  C215  599   1.930   4.496   9.398 -0.3539  0.1538 -0.6379
    5SAPS  H15R  600   1.994   4.407   9.413 -2.6983 -1.5401 -0.3298
    5SAPS  C216  601   1.863   4.512   9.261  0.6982  0.0917 -0.1461
    5SAPS  H16R  602   1.794   4.599   9.269  0.4622 -0.0313 -0.7968
    5SAPS  H16S  603   1.788   4.430   9.250  0.4847  0.3570 -0.7110
    5SAPS  C217  604   1.942   4.540   9.131  0.7320 -0.5501  0.1268
    5SAPS  H17R  605   2.031   4.605   9.142  0.7028 -0.1520 -1.8292
    5SAPS  H17S  606   1.874   4.579   9.052  1.1966  1.5979  0.7706
    5SAPS  C218  607   1.994   4.407   9.073  0.6311 -0.0230  0.0747
    5SAPS  H18R  608   2.093   4.432   9.028 -0.7590  2.7436 -1.5998
    5SAPS  H18S  609   2.009   4.339   9.159  0.6612  1.5891  1.3624
    5SAPS  C219  610   1.891   4.335   8.981 -0.2748 -0.0401  0.1461
    5SAPS  H19R  611   1.798   4.316   9.039 -0.5936 -0.8943 -0.6327
    5SAPS  H19S  612   1.930   4.231   8.975 -1.7799 -0.7085  1.3817
    5SAPS  C220  613   1.873   4.400   8.843  0.3170  0.0662 -0.2160
    5SAPS  H20R  614   1.966   4.412   8.783  0.8358  2.1469  0.9891
    5SAPS  H20S  615   1.824   4.498   8.857  0.6478 -0.1962  3.1085
    5SAPS  H20T  616   1.802   4.342   8.780  1.8026  0.3638 -2.2436
    5SAPS   C33  617   2.304   4.268  10.038  0.2421  0.1923  0.3772
    5SAPS   H3X  618   2.210   4.215  10.013  1.1011 -0.7226 -1.0068
    5SAPS   H3Y  619   2.376   4.205  10.095  2.7126  1.2864 -1.4148
    5SAPS   C34  620   2.371   4.304   9.903  0.6150  0.4984  0.5080
    5SAPS   H4X  621   2.454   4.231   9.892  0.4022  0.5438 -1.5893
    5SAPS   H4Y  622   2.405   4.409   9.917 -0.3685  0.7365  1.2114
    5SAPS   C35  623   2.284   4.297   9.779  0.2034 -0.1007 -0.0158
    5SAPS   H5X  624   2.214   4.383   9.774  0.9819  0.4657 -1.5834
    5SAPS   H5Y  625   2.234   4.200   9.759 -0.5429  0.5716 -1.4189
    5SAPS   C36  626   2.364   4.320   9.653 -0.1619  0.2669 -0.1265
    5SAPS   H6X  627   2.429   4.231   9.639  0.2296  0.9903 -3.2563
    5SAPS   H6Y  628   2.427   4.411   9.662 -2.0993  1.6875 -0.5276
    5SAPS   C37  629   2.285   4.341   9.523  0.1293  0.1371 -0.8322
    5SAPS   H7X  630   2.220   4.426   9.553  2.8582  1.7909  0.5789
    5SAPS   H7Y  631   2.223   4.253   9.496 -1.0522  0.8816 -0.6210
    5SAPS   C38  632   2.386   4.378   9.407  0.4199  0.1892  0.7058
    5SAPS   H8X  633   2.457   4.292   9.405 -1.0244 -1.0536  1.9654
    5SAPS   H8Y  634   2.427   4.479   9.428  0.4073  0.3032  0.1917
    5SAPS   C39  635   2.327   4.378   9.270 -0.2393 -0.0256 -0.3826
    5SAPS   H9X  636   2.269   4.470   9.249  0.5355  0.3581 -0.8605
    5SAPS   H9Y  637   2.262   4.288   9.269 -0.4156  0.1081 -2.1325
    5SAPS  C310  638   2.427   4.358   9.155 -0.4138  0.0588 -0.9891
    5SAPS  H10X  639   2.501   4.277   9.172 -0.6785  0.3787  1.9161
    5SAPS  H10Y  640   2.488   4.450   9.138 -0.3066 -0.2689 -2.4435
    5SAPS  C311  641   2.363   4.333   9.013 -0.1448  0.5590  0.0729
    5SAPS  H11X  642   2.444   4.353   8.939 -0.4815 -0.6634 -0.6280
    5SAPS  H11Y  643   2.275   4.398   8.994 -1.4744 -0.7145  1.6862
    5SAPS  C312  644   2.325   4.189   8.986 -0.1580 -0.4178 -0.3920
    5SAPS  H12X  645   2.286   4.142   9.079 -0.1192  0.4715  0.0744
    5SAPS  H12Y  646   2.424   4.139   8.972  1.0564  1.4168  1.3290
    5SAPS  C313  647   2.236   4.157   8.857  0.3186  0.3519  0.0885
    5SAPS  H13X  648   2.300   4.159   8.766 -0.5203 -1.4631 -0.5570
    5SAPS  H13Y  649   2.165   4.241   8.845 -1.9563 -1.5815 -0.2689
    5SAPS  C314  650   2.166   4.019   8.859  0.1279  0.0722  0.0494
    5SAPS  H14X  651   2.086   4.028   8.935  0.8795 -0.4883  0.9265
    5SAPS  H14Y  652   2.241   3.939   8.882  3.5146  2.4258 -2.2729
    5SAPS  C315  653   2.103   3.990   8.721  0.4528 -0.3982  0.2903
    5SAPS  H15X  654   2.176   3.928   8.664  0.6936  0.2943 -0.1675
    5SAPS  H15Y  655   2.091   4.092   8.678  1.8255  0.9138  2.8730
    5SAPS  C316  656   1.963   3.930   8.739 -0.2143 -0.0804  0.3562
    5SAPS  H16X  657   1.904   3.991   8.811  2.6523  2.7137  0.4807
    5SAPS  H16Y  658   1.960   3.825   8.774 -0.0892 -0.3655 -0.4708
    5SAPS  C317  659   1.884   3.919   8.613  0.3270 -0.0095  0.3769
    5SAPS  H17X  660   1.943   3.876   8.529 -2.3313 -1.2850 -0.8996
    5SAPS  H17Y  661   1.882   4.021   8.570  0.7507 -0.2377 -0.1976
    5SAPS  C318  662   1.745   3.850   8.621  0.0441 -0.1342 -0.2915
    5SAPS  H18X  663   1.684   3.898   8.700 -1.1060  1.4665 -2.1139
    5SAPS  H18Y  664   1.760   3.741   8.635  1.7541 -0.0409 -1.2680
    5SAPS  H18Z  665   1.693   3.868   8.524 -0.4466 -0.3142 -0.0617
    6SAPS     N  666   1.508   4.026  11.083 -0.4327  0.2548  0.0602
    6SAPS   HN1  667   1.500   4.124  11.050  2.2159  0.4041 -0.2466
    6SAPS   HN2  668   1.417   3.986  11.112 -1.2289  0.9943 -1.3805
    6SAPS   HN3  669   1.577   4.007  11.159  0.6685 -0.2508 -1.0429
    6SAPS   C12  670   1.541   3.939  10.968 -0.4056 -0.3891 -1.1932
    6SAPS  H12A  671   1.645   3.944  10.938  0.2259 -1.1269  0.8538
    6SAPS   C13  672   1.508   3.783  10.985 -0.7329 -0.1663 -0.1251
    6SAPS  O13A  673   1.462   3.744  11.093  0.4078 -0.2087  0.1037
    6SAPS  O13B  674   1.546   3.704  10.898  0.3823 -0.2926  0.2513
    6SAPS   C11  675   1.452   4.001  10.855 -0.8589  0.5478 -0.7134
    6SAPS  H11A  676   1.479   3.943  10.765  0.6717 -0.2329  0.2291
    6SAPS  H11B  677   1.496   4.103  10.844 -4.9189  2.6673  1.3459
    6SAPS     P  678   1.209   4.025  10.749 -0.2317 -0.2970  0.1261
    6SAPS   O13  679   1.094   3.938  10.788 -0.2541  0.6304 -0.2925
    6SAPS   O14  680   1.178   4.169  10.716 -0.3621 -0.0883  0.3678
    6SAPS   O12  681   1.314   4.019  10.873 -0.3661  0.0380  0.0512
    6SAPS   O11  682   1.283   3.963  10.625 -0.3115  0.1078 -0.8273
    6SAPS    C1  683   1.269   3.826  10.589  0.5370 -0.2898  0.2506
    6SAPS    HA  684   1.270   3.766  10.682 -0.3425 -0.2328  0.3026
    6SAPS    HB  685   1.168   3.819  10.544  1.2566 -1.9548 -1.1780
    6SAPS    C2  686   1.397   3.778  10.514  0.2135 -1.1586  0.7035
    6SAPS    HS  687   1.478   3.829  10.570 -0.2864  0.1570  0.2642
    6SAPS   O21  688   1.371   3.819  10.378  0.0058  0.0118  0.3369
    6SAPS   C21  689   1.479   3.870  10.320 -0.2128  0.3909 -0.1134
    6SAPS   O22  690   1.590   3.874  10.371 -0.5229  0.3586  0.6055
    6SAPS   C22  691   1.440   3.885  10.170 -0.2616 -0.6392  0.4975
    6SAPS   H2R  692   1.419   3.784  10.129 -1.2351 -0.6274  0.9638
    6SAPS   H2S  693   1.348   3.947  10.174 -0.1545 -0.5694  3.2186
    6SAPS    C3  694   1.422   3.622  10.521  0.5476 -1.6257 -0.0919
    6SAPS    HX  695   1.425   3.599  10.630 -2.2938  0.3878  0.4678
    6SAPS    HY  696   1.519   3.604  10.470  1.4578  1.5831  0.3844
    6SAPS   O31  697   1.308   3.556  10.465  0.6335 -0.2870 -0.2692
    6SAPS   C31  698   1.327   3.417  10.479 -0.0414 -0.1540  0.9930
    6SAPS   O32  699   1.415   3.369  10.542 -0.0496 -0.6223 -0.3104
    6SAPS   C32  700   1.222   3.354  10.384 -0.2592  0.7083  0.0469
    6SAPS   H2X  701   1.132   3.417  10.404  0.1065  0.7332  1.7194
    6SAPS   H2Y  702   1.208   3.253  10.428 -2.5259  1.3301  0.8707
    6SAPS   C23  703   1.559   3.936  10.091 -0.5502 -0.1265 -0.1058
    6SAPS   H3R  704   1.645   3.867  10.107 -1.7101 -1.2013  1.7182
    6SAPS   H3S  705   1.586   4.036  10.129  1.7580 -1.3260  1.4987
    6SAPS   C24  706   1.528   3.956   9.943 -0.3412 -0.4814  0.6405
    6SAPS   H4R  707   1.618   4.001   9.895 -0.9358 -1.1472 -1.1390
    6SAPS   H4S  708   1.444   4.025   9.924 -0.5357 -0.7218  0.6260
    6SAPS   C25  709   1.497   3.822   9.880  0.0065 -0.5924 -0.6551
    6SAPS   H5R  710   1.410   3.771   9.924  0.3139 -0.1596  0.4731
    6SAPS   C26  711   1.557   3.764   9.772 -0.2273  0.0607 -0.3770
    6SAPS   H6R  712   1.508   3.675   9.730  1.0059 -1.9240  2.2485
    6SAPS   C27  713   1.669   3.815   9.683 -0.6778  0.2670  0.1906
    6SAPS   H7R  714   1.742   3.879   9.736 -1.6195  1.9728 -0.5504
    6SAPS   H7S  715   1.619   3.880   9.609 -0.3985  1.1123  0.7455
    6SAPS   C28  716   1.753   3.718   9.604 -0.2519 -0.5380 -0.3432
    6SAPS   H8R  717   1.831   3.671   9.665 -1.2294  0.3359  1.6092
    6SAPS   C29  718   1.738   3.669   9.481 -0.1321 -0.0045 -0.5388
    6SAPS   H9R  719   1.817   3.608   9.434 -0.7863 -0.4105 -1.1238
    6SAPS  C210  720   1.620   3.706   9.393 -0.2915 -0.5389 -0.5774
    6SAPS  H10R  721   1.662   3.728   9.293  3.3685 -2.7902  0.3714
    6SAPS  H10S  722   1.579   3.805   9.423 -2.6046 -1.5859 -0.0987
    6SAPS  C211  723   1.506   3.608   9.379  0.3663  0.9171 -0.9528
    6SAPS  H11R  724   1.449   3.582   9.470  3.1089 -1.5434  0.1633
    6SAPS  C212  725   1.478   3.536   9.264 -0.4666  0.6382 -0.7772
    6SAPS  H12R  726   1.388   3.475   9.248 -0.7387  1.0453 -0.8023
    6SAPS  C213  727   1.549   3.544   9.131  0.1656  0.0187  0.0832
    6SAPS  H13R  728   1.564   3.442   9.091 -1.2245  0.3012 -1.1605
    6SAPS  H13S  729   1.648   3.590   9.156  0.0759 -0.8268  2.1623
    6SAPS  C214  730   1.471   3.634   9.030  0.1345  0.5874 -0.1201
    6SAPS  H14R  731   1.463   3.742   9.044  0.7817  0.3231  2.5432
    6SAPS  C215  732   1.410   3.598   8.918 -0.4096  0.2641 -0.5503
    6SAPS  H15R  733   1.373   3.682   8.857  1.4677  1.3001 -0.2738
    6SAPS  C216  734   1.400   3.450   8.867 -0.2436 -0.6256 -0.7690
    6SAPS  H16R  735   1.300   3.413   8.897  1.2637 -2.9232  1.6488
    6SAPS  H16S  736   1.475   3.386   8.918 -0.8265  0.0206  0.9235
    6SAPS  C217  737   1.429   3.455   8.715 -0.0698  0.3422  0.4854
    6SAPS  H17R  738   1.534   3.489   8.708  0.2469 -0.2967  1.8969
    6SAPS  H17S  739   1.360   3.529   8.668 -1.2659  1.0603  3.2610
    6SAPS  C218  740   1.409   3.323   8.642  0.1541 -1.0681 -0.6711
    6SAPS  H18R  741   1.469   3.241   8.689  2.6618  0.5436 -0.9506
    6SAPS  H18S  742   1.434   3.323   8.534  1.0821 -0.6128 -0.4594
    6SAPS  C219  743   1.263   3.274   8.642  0.2837 -0.2361 -0.2378
    6SAPS  H19R  744   1.192   3.350   8.601  0.4045 -0.7287 -1.3834
    6SAPS  H19S  745   1.233   3.256   8.747 -0.9926  0.0318 -0.5449
    6SAPS  C220  746   1.241   3.147   8.550 -0.3176  0.7269  0.0998
    6SAPS  H20R  747   1.287   3.165   8.451 -0.6494 -1.2327 -0.4289
    6SAPS  H20S  748   1.132   3.139   8.533 -0.3596  0.5277  0.4512
    6SAPS  H20T  749   1.297   3.059   8.590  1.3526  1.5126 -0.4386
    6SAPS   C33  750   1.270   3.353  10.242 -0.6528 -0.5396 -0.9730
    6SAPS   H3X  751   1.375   3.317  10.235 -0.2425  0.5878 -0.7096
    6SAPS   H3Y  752   1.278   3.462  10.219  1.3788 -0.9130 -2.1163
    6SAPS   C34  753   1.178   3.285  10.146 -0.0335 -0.5951 -0.7266
    6SAPS   H4X  754   1.079   3.334  10.153  0.2352 -0.0954 -0.3894
    6SAPS   H4Y  755   1.171   3.174  10.158  0.1822 -0.5682 -0.3192
    6SAPS   C35  756   1.217   3.303   9.995 -0.1131 -0.2095 -1.2753
    6SAPS   H5X  757   1.310   3.245   9.974  1.2327  0.7031  1.9390
    6SAPS   H5Y  758   1.246   3.409   9.977 -2.9662  1.4138  3.0767
    6SAPS   C36  759   1.109   3.256   9.890  0.1881  0.6478 -0.1423
    6SAPS   H6X  760   1.026   3.329   9.904  2.3753  3.0888  0.3378
    6SAPS   H6Y  761   1.078   3.152   9.915 -0.1533 -0.2532 -3.9558
    6SAPS   C37  762   1.166   3.250   9.751  0.0726 -0.5442  0.6693
    6SAPS   H7X  763   1.272   3.229   9.727  0.2538  0.8439  0.2150
    6SAPS   H7Y  764   1.154   3.358   9.732  0.4839 -0.8126 -1.2316
    6SAPS   C38  765   1.077   3.181   9.651  0.0819  0.1574 -0.2230
    6SAPS   H8X  766   0.975   3.226   9.663 -0.2158 -0.0587 -1.8650
    6SAPS   H8Y  767   1.066   3.072   9.669 -1.5181  0.3773  0.2831
    6SAPS   C39  768   1.139   3.189   9.510  0.2044 -0.8046 -0.7953
    6SAPS   H9X  769   1.220   3.115   9.490  0.0528 -0.8804 -1.1547
    6SAPS   H9Y  770   1.182   3.291   9.513  1.6620 -1.4337  0.1368
    6SAPS  C310  771   1.034   3.174   9.388  0.3787  0.2983 -0.0715
    6SAPS  H10X  772   0.961   3.258   9.388 -1.1064 -0.9666 -0.0314
    6SAPS  H10Y  773   0.979   3.083   9.420  1.1324 -0.2827 -0.4227
    6SAPS  C311  774   1.102   3.175   9.254 -0.5813 -0.5403  0.4682
    6SAPS  H11X  775   1.177   3.094   9.242 -0.2109 -0.2453  0.7749
    6SAPS  H11Y  776   1.153   3.271   9.231 -0.4832 -0.4118  1.2116
    6SAPS  C312  777   1.001   3.138   9.151  0.3179  0.6822  0.3113
    6SAPS  H12X  778   0.911   3.202   9.141 -0.8876 -0.9275  0.8173
    6SAPS  H12Y  779   0.967   3.034   9.168  1.7991 -0.0722 -1.2178
    6SAPS  C313  780   1.072   3.121   9.010  0.3854 -0.0753  0.4752
    6SAPS  H13X  781   1.150   3.043   9.006 -0.7590 -1.3087  1.6435
    6SAPS  H13Y  782   1.110   3.223   8.989 -0.6795  0.6382  1.8917
    6SAPS  C314  783   0.986   3.093   8.889 -0.2422  0.4276 -0.8072
    6SAPS  H14X  784   1.057   3.094   8.803  0.2741 -0.0657 -0.3929
    6SAPS  H14Y  785   0.912   3.176   8.887  0.5295  1.1527  0.3608
    6SAPS  C315  786   0.911   2.961   8.897  0.4218 -0.6591 -0.0462
    6SAPS  H15X  787   0.834   2.946   8.976  1.9772 -1.7543  1.2853
    6SAPS  H15Y  788   0.989   2.886   8.922 -0.6671 -1.8251 -0.0975
    6SAPS  C316  789   0.839   2.910   8.766 -0.1255  0.5674  0.0755
    6SAPS  H16X  790   0.764   2.987   8.736  0.9262  2.1752  1.4215
    6SAPS  H16Y  791   0.779   2.821   8.795 -1.7309  0.8172 -2.2916
    6SAPS  C317  792   0.942   2.873   8.656  0.0955 -0.5198  0.1947
    6SAPS  H17X  793   0.998   2.785   8.693 -0.3156 -0.3753  1.1947
    6SAPS  H17Y  794   1.016   2.954   8.638 -1.8473  1.5765  1.2852
    6SAPS  C318  795   0.889   2.847   8.513  0.1182  0.2100  1.0348
    6SAPS  H18X  796   0.906   2.937   8.450  0.4288 -1.6805 -1.6804
    6SAPS  H18Y  797   0.783   2.815   8.522  0.3270 -0.2083  2.1618
    6SAPS  H18Z  798   0.949   2.761   8.476 -0.9047 -0.8303  1.7556
    7SAPS     N  799   3.138   5.193  10.667  0.4402  0.1847  0.5888
    7SAPS   HN1  800   3.162   5.249  10.583  0.0776 -0.1741  0.2400
    7SAPS   HN2  801   3.186   5.236  10.749 -0.6408  3.6094 -0.4945
    7SAPS   HN3  802   3.173   5.098  10.642  1.3205  0.3350  1.2359
    7SAPS   C12  803   2.993   5.211  10.689  0.1998  0.9085  0.8624
    7SAPS  H12A  804   2.974   5.164  10.785  1.5458  3.2104  2.3100
    7SAPS   C13  805   2.946   5.356  10.696 -0.2905 -0.2458  0.3090
    7SAPS  O13A  806   3.022   5.452  10.663  0.7730 -0.0253  0.4017
    7SAPS  O13B  807   2.836   5.379  10.745 -0.1410  0.1008 -0.3938
    7SAPS   C11  808   2.917   5.143  10.569  0.3289  0.9558 -0.2924
    7SAPS  H11A  809   2.951   5.210  10.487  1.7821  0.5068 -0.0700
    7SAPS  H11B  810   2.808   5.145  10.588  0.4507 -0.0184  0.5545
    7SAPS     P  811   2.895   4.929  10.430  0.1658 -0.1238 -0.1671
    7SAPS   O13  812   2.951   4.791  10.422 -0.4624 -0.0619  0.1165
    7SAPS   O14  813   2.748   4.938  10.453 -0.2330 -0.2620  0.2260
    7SAPS   O12  814   2.967   5.010  10.543 -0.2488  0.4797 -0.0876
    7SAPS   O11  815   2.934   4.997  10.293  0.3031  0.4950  0.0948
    7SAPS    C1  816   3.071   4.985  10.256 -0.3756 -0.6033 -0.3942
    7SAPS    HA  817   3.106   5.091  10.248 -1.7633  0.0688  1.9092
    7SAPS    HB  818   3.127   4.931  10.335  1.0079 -0.5248 -1.2908
    7SAPS    C2  819   3.092   4.909  10.121 -0.1459 -0.3079  0.2008
    7SAPS    HS  820   3.202   4.907  10.108 -0.1435  0.0979  0.1457
    7SAPS   O21  821   3.027   4.985  10.017  0.5479 -0.1044  0.1333
    7SAPS   C21  822   3.077   5.102   9.981  0.2966  0.7439  0.0867
    7SAPS   O22  823   3.180   5.144  10.024  0.5125 -0.6375 -0.3251
    7SAPS   C22  824   2.998   5.151   9.852 -0.3999 -0.3459  0.2935
    7SAPS   H2R  825   3.080   5.168   9.778 -1.1593  0.1491 -0.4450
    7SAPS   H2S  826   2.929   5.071   9.821  0.6718 -1.3288  0.4214
    7SAPS    C3  827   3.037   4.767  10.119  0.2184  0.4982  0.0028
    7SAPS    HX  828   2.927   4.776  10.127  0.0031 -0.2941 -1.9463
    7SAPS    HY  829   3.067   4.726  10.218 -1.9029  0.2007  0.5349
    7SAPS   O31  830   3.070   4.684  10.007 -0.1493 -0.1915 -0.3279
    7SAPS   C31  831   3.205   4.655  10.014 -0.3008 -0.1709  0.9795
    7SAPS   O32  832   3.285   4.681  10.100  0.6594  0.5846  0.0847
    7SAPS   C32  833   3.240   4.573   9.886 -0.1825 -0.4992  0.2605
    7SAPS   H2X  834   3.239   4.635   9.794  0.3504  1.7497  1.7057
    7SAPS   H2Y  835   3.154   4.505   9.868  0.0880 -0.8473  0.2993
    7SAPS   C23  836   2.926   5.285   9.858  0.2795 -0.4817  0.2474
    7SAPS   H3R  837   2.992   5.357   9.911  0.6761  1.1675 -2.4288
    7SAPS   H3S  838   2.844   5.257   9.928  0.0315 -1.5428 -0.4514
    7SAPS   C24  839   2.863   5.343   9.730  0.2089  0.0339 -0.1887
    7SAPS   H4R  840   2.948   5.369   9.664 -1.7862  1.1706 -2.4165
    7SAPS   H4S  841   2.808   5.438   9.753 -0.6577 -0.3936 -0.4632
    7SAPS   C25  842   2.763   5.264   9.648  0.3361 -0.2928 -0.4921
    7SAPS   H5R  843   2.666   5.238   9.691 -0.2251 -0.1343 -1.6387
    7SAPS   C26  844   2.776   5.223   9.524  0.7361  0.0988 -0.6858
    7SAPS   H6R  845   2.695   5.161   9.485 -0.9274  2.1859 -0.6238
    7SAPS   C27  846   2.890   5.241   9.433  0.5417 -0.3447  0.3134
    7SAPS   H7R  847   2.986   5.242   9.489  0.2217 -3.6834  1.0210
    7SAPS   H7S  848   2.888   5.336   9.375  0.2533  1.4267  3.0959
    7SAPS   C28  849   2.898   5.128   9.333  0.1778 -0.2430  0.5072
    7SAPS   H8R  850   2.967   5.043   9.349  0.6145  0.3476  1.8072
    7SAPS   C29  851   2.841   5.119   9.211  0.1091 -0.3702  0.0750
    7SAPS   H9R  852   2.858   5.029   9.150  0.0114 -1.2308  1.3012
    7SAPS  C210  853   2.758   5.228   9.155  0.1059  0.3153  0.2735
    7SAPS  H10R  854   2.732   5.301   9.235 -1.9451 -1.3309  1.1539
    7SAPS  H10S  855   2.661   5.183   9.123  0.2396 -1.0161  1.7005
    7SAPS  C211  856   2.830   5.297   9.032  0.5266  0.1028 -0.1032
    7SAPS  H11R  857   2.926   5.345   9.058  1.7732 -2.5546  0.3021
    7SAPS  C212  858   2.783   5.297   8.905 -0.5516  0.5983 -0.0193
    7SAPS  H12R  859   2.827   5.370   8.836 -3.9613  0.9233 -1.9719
    7SAPS  C213  860   2.649   5.243   8.851  0.1684  0.0414 -0.2777
    7SAPS  H13R  861   2.601   5.335   8.810 -1.6262 -1.0989 -0.7994
    7SAPS  H13S  862   2.583   5.216   8.936 -1.0428  1.9787 -0.5820
    7SAPS  C214  863   2.641   5.126   8.753 -0.0389  0.1521 -0.1551
    7SAPS  H14R  864   2.682   5.147   8.653  0.6629 -1.5557 -0.2449
    7SAPS  C215  865   2.614   4.998   8.778  0.1279 -0.0724  0.2349
    7SAPS  H15R  866   2.599   4.928   8.694 -1.5095  1.7025 -1.0192
    7SAPS  C216  867   2.579   4.921   8.900 -0.3502  0.6033  0.4573
    7SAPS  H16R  868   2.537   4.986   8.980  3.1495 -1.1495  3.8814
    7SAPS  H16S  869   2.674   4.881   8.942 -1.4670 -2.1219  0.5087
    7SAPS  C217  870   2.486   4.800   8.877 -0.6966  0.2285  0.0983
    7SAPS  H17R  871   2.468   4.749   8.974  1.5198 -3.0399 -1.1196
    7SAPS  H17S  872   2.540   4.730   8.809 -1.2858  0.3310 -0.4768
    7SAPS  C218  873   2.358   4.828   8.800  0.0181  0.2354 -0.2766
    7SAPS  H18R  874   2.379   4.832   8.691 -0.1327  1.2131 -0.2786
    7SAPS  H18S  875   2.339   4.935   8.823  1.0762  0.3157  0.2438
    7SAPS  C219  876   2.233   4.738   8.846  0.0227 -0.4543  0.2770
    7SAPS  H19R  877   2.207   4.747   8.953 -1.6030  3.8721 -0.3554
    7SAPS  H19S  878   2.251   4.631   8.826 -1.6657 -1.0117  1.5953
    7SAPS  C220  879   2.102   4.776   8.777  0.8802 -0.5828  0.4804
    7SAPS  H20R  880   2.056   4.865   8.824 -0.4764  0.5629 -2.9187
    7SAPS  H20S  881   2.034   4.689   8.789 -1.0187  0.8552  0.2651
    7SAPS  H20T  882   2.124   4.796   8.670  1.6872 -0.7575  0.6094
    7SAPS   C33  883   3.365   4.485   9.908 -0.1978  0.3469 -0.3872
    7SAPS   H3X  884   3.341   4.413   9.989  2.1279 -0.0357  0.0206
    7SAPS   H3Y  885   3.449   4.554   9.932  1.6855 -1.8096 -0.5744
    7SAPS   C34  886   3.389   4.394   9.783 -0.0290  0.0711 -0.3733
    7SAPS   H4X  887   3.311   4.317   9.770 -0.2667  0.2838 -0.2018
    7SAPS   H4Y  888   3.481   4.337   9.809  1.6885  1.4267 -3.2478
    7SAPS   C35  889   3.431   4.474   9.659 -0.1879 -0.1307  0.1818
    7SAPS   H5X  890   3.513   4.533   9.704 -1.2397 -1.4143  4.0309
    7SAPS   H5Y  891   3.342   4.536   9.633  0.4831 -0.5431 -3.3585
    7SAPS   C36  892   3.467   4.392   9.534  0.6516 -0.7516 -1.2140
    7SAPS   H6X  893   3.554   4.332   9.569  1.5314  0.2497 -1.6770
    7SAPS   H6Y  894   3.521   4.461   9.466 -1.1011  0.8369 -1.0460
    7SAPS   C37  895   3.350   4.309   9.465  0.0103  0.5158  0.5621
    7SAPS   H7X  896   3.269   4.324   9.539 -0.5199 -0.4804  0.1924
    7SAPS   H7Y  897   3.390   4.206   9.455  3.9557  2.0396 -0.8255
    7SAPS   C38  898   3.313   4.364   9.322  0.4545  0.4974  0.1532
    7SAPS   H8X  899   3.303   4.473   9.339 -0.8935  0.7604 -2.1026
    7SAPS   H8Y  900   3.220   4.313   9.289  0.9727 -0.2668 -0.1432
    7SAPS   C39  901   3.420   4.354   9.221 -0.4531  0.2808  0.4715
    7SAPS   H9X  902   3.514   4.343   9.279  0.9507  2.8755 -1.2050
    7SAPS   H9Y  903   3.431   4.434   9.145 -0.4144 -0.6382 -0.5071
    7SAPS  C310  904   3.403   4.218   9.137 -0.3668 -0.1789 -0.9695
    7SAPS  H10X  905   3.403   4.132   9.208 -0.6078 -0.9620 -1.9086
    7SAPS  H10Y  906   3.503   4.204   9.091  1.6335  2.3793  2.3675
    7SAPS  C311  907   3.294   4.206   9.032 -0.4446 -0.0552  0.1068
    7SAPS  H11X  908   3.204   4.235   9.091  0.9072  0.6510  1.8868
    7SAPS  H11Y  909   3.285   4.102   8.996  0.6841  0.2564 -1.1128
    7SAPS  C312  910   3.303   4.313   8.920 -0.1949 -0.5128 -0.0845
    7SAPS  H12X  911   3.409   4.323   8.887 -0.7707  2.4395 -1.1891
    7SAPS  H12Y  912   3.278   4.411   8.966 -0.2856  0.1808 -1.5739
    7SAPS  C313  913   3.208   4.269   8.808  0.4422  0.2294  0.2913
    7SAPS  H13X  914   3.110   4.236   8.849  1.5209 -3.1847  0.2667
    7SAPS  H13Y  915   3.251   4.186   8.748 -0.9643 -1.6749  1.8393
    7SAPS  C314  916   3.164   4.384   8.714 -0.2305  0.1089  0.1012
    7SAPS  H14X  917   3.102   4.460   8.764  0.4681 -0.6707  2.1993
    7SAPS  H14Y  918   3.090   4.343   8.641 -1.1722  2.2318 -0.1647
    7SAPS  C315  919   3.272   4.452   8.630 -0.0969 -0.5580  0.3524
    7SAPS  H15X  920   3.357   4.487   8.693  1.1310 -2.8897  0.0516
    7SAPS  H15Y  921   3.226   4.539   8.578  0.5213 -0.2487  0.3146
    7SAPS  C316  922   3.319   4.362   8.519 -0.0670  0.1687  0.6210
    7SAPS  H16X  923   3.379   4.279   8.563 -1.4509 -1.0733  0.2027
    7SAPS  H16Y  924   3.372   4.438   8.458 -1.1552  0.8931  0.5727
    7SAPS  C317  925   3.205   4.303   8.425  0.2256 -0.8907  0.7212
    7SAPS  H17X  926   3.126   4.378   8.405  3.0950  2.1585  0.4943
    7SAPS  H17Y  927   3.164   4.212   8.476  2.6345 -1.3825  1.8511
    7SAPS  C318  928   3.266   4.269   8.295  0.1353  0.4863 -0.1962
    7SAPS  H18X  929   3.356   4.206   8.305 -1.1428 -1.2494  0.6028
    7SAPS  H18Y  930   3.296   4.360   8.238 -0.5714  0.6967 -0.2373
    7SAPS  H18Z  931   3.201   4.220   8.220 -0.7708 -0.0953  0.9573
    8SAPS     N  932   0.592   5.563  11.337  0.2129 -0.3254  0.3116
    8SAPS   HN1  933   0.526   5.588  11.414  2.3453  0.9550  1.7727
    8SAPS   HN2  934   0.531   5.525  11.261 -0.3971 -0.1430  0.7095
    8SAPS   HN3  935   0.651   5.484  11.371 -0.2986 -0.1899  1.5144
    8SAPS   C12  936   0.674   5.679  11.290  0.4860  0.4728  0.0599
    8SAPS  H12A  937   0.635   5.767  11.340 -2.5950 -1.3245  0.9488
    8SAPS   C13  938   0.827   5.666  11.305  0.0202  0.0774  0.0738
    8SAPS  O13A  939   0.871   5.568  11.366 -0.4755  0.3374 -0.1119
    8SAPS  O13B  940   0.895   5.763  11.262 -0.3093 -0.3295 -0.2095
    8SAPS   C11  941   0.649   5.685  11.134  0.4389  0.1442  0.1551
    8SAPS  H11A  942   0.697   5.591  11.098  0.4527 -0.0977  0.7966
    8SAPS  H11B  943   0.707   5.769  11.091  0.3716 -0.0134 -0.2416
    8SAPS     P  944   0.453   5.850  11.073  0.0647 -0.0174 -0.3854
    8SAPS   O13  945   0.304   5.840  11.074 -0.2014 -0.0919  0.7562
    8SAPS   O14  946   0.513   5.961  11.152 -0.0977  1.0996 -0.1735
    8SAPS   O12  947   0.506   5.704  11.115 -0.1546  0.0028 -0.2076
    8SAPS   O11  948   0.500   5.868  10.927 -0.2921 -0.2239  1.1244
    8SAPS    C1  949   0.416   5.865  10.808 -0.1710 -0.2425 -0.0818
    8SAPS    HA  950   0.390   5.757  10.800 -0.7301 -0.1882  0.9130
    8SAPS    HB  951   0.324   5.925  10.827  1.4344  2.3568 -0.2144
    8SAPS    C2  952   0.489   5.919  10.677 -0.1039 -0.1056 -0.0947
    8SAPS    HS  953   0.503   6.028  10.692 -0.4324  0.1444 -1.5939
    8SAPS   O21  954   0.419   5.873  10.559  0.2477 -0.2006 -0.2273
    8SAPS   C21  955   0.352   5.973  10.499 -0.0446  0.5624  0.8280
    8SAPS   O22  956   0.344   6.084  10.543  0.4544 -0.3280 -0.4418
    8SAPS   C22  957   0.284   5.922  10.372  0.3335  0.2487 -0.3417
    8SAPS   H2R  958   0.229   5.827  10.389 -0.4578  0.7752  0.0665
    8SAPS   H2S  959   0.207   5.999  10.350 -2.2213 -1.1925  3.0865
    8SAPS    C3  960   0.637   5.870  10.674 -0.4940 -0.1703  0.8837
    8SAPS    HX  961   0.645   5.759  10.683 -2.3438 -0.6118 -2.2188
    8SAPS    HY  962   0.690   5.918  10.759 -0.5239 -1.0926  1.4286
    8SAPS   O31  963   0.699   5.924  10.551 -0.1387 -0.4793 -0.1486
    8SAPS   C31  964   0.826   5.881  10.532  0.1309 -0.6023  0.5353
    8SAPS   O32  965   0.883   5.799  10.599  0.3112  1.0423  0.9594
    8SAPS   C32  966   0.882   5.941  10.404  0.4673 -0.2215 -0.2540
    8SAPS   H2X  967   0.992   5.949  10.419  0.4326  0.8158 -0.5057
    8SAPS   H2Y  968   0.848   6.046  10.398  0.2018 -0.2649  0.5276
    8SAPS   C23  969   0.380   5.898  10.251  0.0678  0.7379 -0.0150
    8SAPS   H3R  970   0.322   5.818  10.199  1.0719 -1.6142  2.4043
    8SAPS   H3S  971   0.471   5.851  10.293  1.1094  3.2701  0.6138
    8SAPS   C24  972   0.417   6.019  10.164 -0.6666  0.1613  0.2416
    8SAPS   H4R  973   0.318   6.061  10.134 -0.3454  0.3473 -0.5606
    8SAPS   H4S  974   0.468   5.985  10.071  0.2495  1.8103  0.1327
    8SAPS   C25  975   0.503   6.113  10.241  0.3280 -0.1472 -0.3244
    8SAPS   H5R  976   0.586   6.053  10.282  1.1176  0.1348 -1.4899
    8SAPS   C26  977   0.484   6.245  10.259  0.4969  0.6170 -0.1036
    8SAPS   H6R  978   0.543   6.301  10.333  0.3349  1.1694 -0.3855
    8SAPS   C27  979   0.359   6.316  10.201 -0.1374  0.1645  0.0541
    8SAPS   H7R  980   0.275   6.327  10.273 -1.8136 -4.8465 -0.9266
    8SAPS   H7S  981   0.301   6.255  10.129  2.3911 -1.7634 -0.4281
    8SAPS   C28  982   0.376   6.461  10.153 -0.6971  0.3642 -0.2128
    8SAPS   H8R  983   0.403   6.529  10.235 -2.0963 -0.2397  0.7756
    8SAPS   C29  984   0.377   6.499  10.020 -0.4470  0.2667  0.7283
    8SAPS   H9R  985   0.408   6.602   9.999  1.9473 -0.6554 -0.4852
    8SAPS  C210  986   0.369   6.400   9.904  0.1463  0.4153 -0.2846
    8SAPS  H10R  987   0.362   6.463   9.812  1.4992 -2.3237 -2.3211
    8SAPS  H10S  988   0.275   6.343   9.915 -0.1473  1.3289  2.3678
    8SAPS  C211  989   0.477   6.297   9.887  0.2650  0.1392 -0.3787
    8SAPS  H11R  990   0.558   6.315   9.959  0.8172  0.3264 -1.0498
    8SAPS  C212  991   0.473   6.186   9.807  0.1221  0.0137 -0.3941
    8SAPS  H12R  992   0.565   6.126   9.803 -0.3261 -0.6607 -0.5818
    8SAPS  C213  993   0.365   6.147   9.711  0.0088  0.2145  0.2913
    8SAPS  H13R  994   0.307   6.236   9.678  0.8211  0.3670 -0.7665
    8SAPS  H13S  995   0.295   6.097   9.781 -0.9254 -1.2044 -1.6286
    8SAPS  C214  996   0.410   6.061   9.595 -0.3145 -0.0546  0.0948
    8SAPS  H14R  997   0.424   5.956   9.621  1.2252  0.5974  2.0087
    8SAPS  C215  998   0.414   6.087   9.468  0.3152 -0.0375 -0.6236
    8SAPS  H15R  999   0.441   5.996   9.413  0.1665  0.5363 -1.6467
    8SAPS  C216 1000   0.398   6.222   9.391 -0.4154  0.3231  0.1768
    8SAPS  H16R 1001   0.344   6.294   9.456  0.3795 -1.7860  3.2948
    8SAPS  H16S 1002   0.332   6.205   9.303  0.1347 -0.9402 -0.0062
    8SAPS  C217 1003   0.522   6.273   9.338 -0.1863  0.4677  0.1658
    8SAPS  H17R 1004   0.603   6.269   9.414  1.3650 -1.3429 -1.5258
    8SAPS  H17S 1005   0.519   6.382   9.314 -0.1721 -0.0741 -2.4059
    8SAPS  C218 1006   0.583   6.191   9.228  0.2742  0.4555 -0.8527
    8SAPS  H18R 1007   0.504   6.173   9.152  0.4334  2.1215 -1.4254
    8SAPS  H18S 1008   0.605   6.084   9.251 -1.2685  0.8274  2.5710
    8SAPS  C219 1009   0.709   6.247   9.172 -0.0637  0.0362 -0.5930
    8SAPS  H19R 1010   0.784   6.245   9.255 -0.4967 -0.8026 -0.2137
    8SAPS  H19S 1011   0.691   6.354   9.148  0.8195  0.1240 -0.9096
    8SAPS  C220 1012   0.752   6.158   9.052  0.0238  0.5880  0.9307
    8SAPS  H20R 1013   0.676   6.179   8.974  0.2474  0.8847  0.7913
    8SAPS  H20S 1014   0.750   6.053   9.088 -0.4250  0.8722  1.7492
    8SAPS  H20T 1015   0.853   6.184   9.012 -0.6281  0.1658 -1.0743
    8SAPS   C33 1016   0.849   5.858  10.276  0.1024  0.1333 -0.4485
    8SAPS   H3X 1017   0.740   5.862  10.253 -0.6596  2.6302  3.1664
    8SAPS   H3Y 1018   0.888   5.756  10.292  1.4624  0.7315  0.1503
    8SAPS   C34 1019   0.913   5.910  10.145 -0.0211 -0.0213  0.0910
    8SAPS   H4X 1020   1.021   5.887  10.161 -0.6847 -1.4123  2.7974
    8SAPS   H4Y 1021   0.899   6.020  10.140  4.3218  0.5986 -0.3780
    8SAPS   C35 1022   0.871   5.845  10.016  0.1290  0.1387 -0.0959
    8SAPS   H5X 1023   0.878   5.734  10.022 -1.7459 -0.0025 -0.2054
    8SAPS   H5Y 1024   0.935   5.887   9.935  0.6923  1.2772  0.9173
    8SAPS   C36 1025   0.733   5.883   9.974 -0.0957  0.3209 -0.4999
    8SAPS   H6X 1026   0.719   5.990  10.001 -0.0964  0.7712 -2.1911
    8SAPS   H6Y 1027   0.661   5.835  10.043  1.7948 -0.0342  1.2686
    8SAPS   C37 1028   0.705   5.869   9.825 -0.4810  0.0575 -0.2180
    8SAPS   H7X 1029   0.767   5.945   9.774 -2.9980  1.3803 -1.4305
    8SAPS   H7Y 1030   0.598   5.896   9.810 -0.0082  3.4661  1.9341
    8SAPS   C38 1031   0.726   5.734   9.765  0.5541 -0.8636 -0.3617
    8SAPS   H8X 1032   0.668   5.656   9.818  1.7247 -1.2088  0.4507
    8SAPS   H8Y 1033   0.833   5.711   9.787  0.4780 -0.1331  0.8533
    8SAPS   C39 1034   0.694   5.724   9.617  0.6437 -0.3698  0.5787
    8SAPS   H9X 1035   0.589   5.746   9.586  1.0335 -0.1372 -0.6124
    8SAPS   H9Y 1036   0.703   5.616   9.593 -0.0047 -0.0515 -1.1803
    8SAPS  C310 1037   0.796   5.789   9.518 -0.0960  0.9896  0.2777
    8SAPS  H10X 1038   0.894   5.780   9.569 -1.3735 -0.8228  2.5438
    8SAPS  H10Y 1039   0.783   5.897   9.494  0.0608  0.7849 -0.7286
    8SAPS  C311 1040   0.799   5.719   9.381 -0.3601 -0.3796  0.4095
    8SAPS  H11X 1041   0.824   5.611   9.392  1.1799  0.0512  1.2172
    8SAPS  H11Y 1042   0.885   5.763   9.326 -0.8822  1.7396  1.2511
    8SAPS  C312 1043   0.669   5.740   9.301 -0.9264 -0.0469 -1.3865
    8SAPS  H12X 1044   0.637   5.847   9.298  1.6849  0.7736 -1.7030
    8SAPS  H12Y 1045   0.582   5.683   9.339 -0.1024  0.9330  2.2056
    8SAPS  C313 1046   0.692   5.726   9.150  0.1256 -0.4211 -0.5744
    8SAPS  H13X 1047   0.740   5.628   9.130 -2.9426 -2.0428 -0.2860
    8SAPS  H13Y 1048   0.753   5.812   9.115 -0.8175  1.7970  3.0108
    8SAPS  C314 1049   0.560   5.727   9.067 -0.2132 -0.5399 -0.1011
    8SAPS  H14X 1050   0.520   5.819   9.115  1.8195  0.6740 -0.6573
    8SAPS  H14Y 1051   0.501   5.636   9.089  1.1977 -1.3102  0.6083
    8SAPS  C315 1052   0.578   5.760   8.916  0.5787  0.2755 -0.4826
    8SAPS  H15X 1053   0.611   5.863   8.891  0.6477  0.7571  1.4976
    8SAPS  H15Y 1054   0.477   5.773   8.872  0.8778 -0.2303 -1.3345
    8SAPS  C316 1055   0.662   5.671   8.825 -0.1434 -0.4507 -0.4106
    8SAPS  H16X 1056   0.610   5.574   8.817 -0.3340 -0.2805 -1.3270
    8SAPS  H16Y 1057   0.765   5.670   8.869 -0.3080  0.2903  0.0016
    8SAPS  C317 1058   0.662   5.737   8.686 -0.4191  0.2521 -0.0273
    8SAPS  H17X 1059   0.554   5.760   8.671 -0.4630  1.9349  2.5745
    8SAPS  H17Y 1060   0.699   5.667   8.608 -0.6614  0.3868 -0.2661
    8SAPS  C318 1061   0.743   5.873   8.667 -0.3300  0.6280  0.6639
    8SAPS  H18X 1062   0.853   5.855   8.663 -0.4460  0.1253 -0.1723
    8SAPS  H18Y 1063   0.721   5.954   8.740 -1.7074  0.5627  0.3280
    8SAPS  H18Z 1064   0.730   5.923   8.569  0.4679  0.9974  0.7390
    9SAPS     N 1065   2.477   2.534   6.213  0.0238 -0.8710 -0.1636
    9SAPS   HN1 1066   2.456   2.613   6.277  0.0092 -1.3979  0.4886
    9SAPS   HN2 1067   2.409   2.530   6.134  0.4144  1.1182 -0.6228
    9SAPS   HN3 1068   2.468   2.445   6.267  2.2448 -0.9117  0.1862
    9SAPS   C12 1069   2.619   2.550   6.162 -0.0247  0.3501 -0.3810
    9SAPS  H12A 1070   2.653   2.450   6.140  2.0141  0.4997  1.9087
    9SAPS   C13 1071   2.641   2.644   6.047 -0.2217  0.0907 -0.1798
    9SAPS  O13A 1072   2.541   2.690   5.988  1.1064 -0.1611  0.3831
    9SAPS  O13B 1073   2.749   2.650   5.985 -0.2846 -0.0375  0.1172
    9SAPS   C11 1074   2.716   2.597   6.282 -0.2653  0.2817 -0.7008
    9SAPS  H11A 1075   2.700   2.706   6.296 -1.0454  0.0181  0.4606
    9SAPS  H11B 1076   2.819   2.584   6.242 -0.1996  1.2424 -0.8643
    9SAPS     P 1077   2.797   2.505   6.515  0.0230 -0.0838 -0.2253
    9SAPS   O13 1078   2.733   2.451   6.640  0.7119 -0.8831  0.2123
    9SAPS   O14 1079   2.923   2.435   6.467 -0.7136  0.3478  0.2231
    9SAPS   O12 1080   2.684   2.528   6.405  0.0322  0.2648  0.4879
    9SAPS   O11 1081   2.834   2.661   6.543 -0.0740 -0.2736  0.0637
    9SAPS    C1 1082   2.743   2.769   6.587  0.5406  0.3206 -0.8845
    9SAPS    HA 1083   2.733   2.861   6.526 -0.9029  0.5997 -0.2558
    9SAPS    HB 1084   2.642   2.728   6.611 -0.1975  1.7518 -1.4878
    9SAPS    C2 1085   2.785   2.822   6.731 -0.4473  0.6530  0.0685
    9SAPS    HS 1086   2.881   2.877   6.724  0.9591 -1.5351  1.6613
    9SAPS   O21 1087   2.788   2.707   6.825  0.0965  0.5740  0.2933
    9SAPS   C21 1088   2.895   2.636   6.827 -0.0955  0.1181  1.0170
    9SAPS   O22 1089   2.998   2.661   6.768 -0.3395 -0.3467 -0.0374
    9SAPS   C22 1090   2.879   2.530   6.938  0.2847 -0.4804 -0.4986
    9SAPS   H2R 1091   2.770   2.512   6.945  0.2652 -0.3282 -0.3766
    9SAPS   H2S 1092   2.938   2.442   6.905  2.2101  0.8755 -0.7737
    9SAPS    C3 1093   2.691   2.938   6.767 -0.3345 -0.4717 -1.0678
    9SAPS    HX 1094   2.587   2.919   6.733 -0.9292 -1.0880  0.9818
    9SAPS    HY 1095   2.709   3.025   6.700 -1.3546 -1.2335 -2.3508
    9SAPS   O31 1096   2.696   2.975   6.905  0.1668 -0.3736 -0.6790
    9SAPS   C31 1097   2.798   3.048   6.945 -1.2845 -0.6827  0.4557
    9SAPS   O32 1098   2.881   3.096   6.871 -0.4463 -0.5107 -0.2461
    9SAPS   C32 1099   2.785   3.074   7.096 -0.1388 -0.3643  0.5086
    9SAPS   H2X 1100   2.850   3.001   7.148 -0.8409 -1.7443 -0.5368
    9SAPS   H2Y 1101   2.677   3.059   7.119 -0.1282  0.2530  0.9870
    9SAPS   C23 1102   2.939   2.574   7.073 -0.3022 -0.3056  0.1551
    9SAPS   H3R 1103   3.045   2.592   7.047 -0.7605  1.5613 -0.4847
    9SAPS   H3S 1104   2.933   2.483   7.136 -2.2330 -1.2386 -1.2858
    9SAPS   C24 1105   2.871   2.691   7.139  0.6247 -0.0400  0.7575
    9SAPS   H4R 1106   2.879   2.790   7.089 -1.8689  1.1811  2.6466
    9SAPS   H4S 1107   2.918   2.726   7.234 -2.6697 -1.0379  2.8372
    9SAPS   C25 1108   2.729   2.666   7.173  0.1944 -0.4299  0.6962
    9SAPS   H5R 1109   2.655   2.702   7.100  1.1382 -0.3578 -0.2407
    9SAPS   C26 1110   2.687   2.618   7.293  0.0492 -0.2551  0.2954
    9SAPS   H6R 1111   2.578   2.604   7.305  0.3276 -2.8340  0.0472
    9SAPS   C27 1112   2.775   2.574   7.408  0.7482 -0.7257 -0.3559
    9SAPS   H7R 1113   2.870   2.630   7.420 -1.2558  2.2573  2.5210
    9SAPS   H7S 1114   2.810   2.468   7.401  0.8439 -0.6523 -0.9676
    9SAPS   C28 1115   2.710   2.589   7.545  0.0253  0.6388  0.8824
    9SAPS   H8R 1116   2.684   2.692   7.575 -3.5534 -0.2489  0.9721
    9SAPS   C29 1117   2.675   2.491   7.626  0.2935  0.1843 -0.5525
    9SAPS   H9R 1118   2.647   2.520   7.728  3.9807 -0.5065  0.6908
    9SAPS  C210 1119   2.702   2.342   7.603 -0.0625  0.1571 -0.9580
    9SAPS  H10R 1120   2.812   2.339   7.595 -0.1302 -1.7794 -1.4452
    9SAPS  H10S 1121   2.650   2.305   7.512 -2.3664 -0.8533  0.7163
    9SAPS  C211 1122   2.657   2.263   7.728 -0.4469 -0.1795 -0.2612
    9SAPS  H11R 1123   2.563   2.207   7.722 -2.7564  3.4035  1.1339
    9SAPS  C212 1124   2.716   2.261   7.844 -0.0811 -0.3782 -0.1792
    9SAPS  H12R 1125   2.668   2.206   7.927 -0.5248 -0.6282 -0.6020
    9SAPS  C213 1126   2.832   2.334   7.900 -0.2054 -0.2032 -0.1553
    9SAPS  H13R 1127   2.799   2.439   7.917 -5.4286 -1.2557 -2.7362
    9SAPS  H13S 1128   2.908   2.337   7.820  1.1530  1.2165  1.1602
    9SAPS  C214 1129   2.889   2.280   8.031 -0.8442  0.0769  0.0316
    9SAPS  H14R 1130   2.987   2.232   8.022  0.5080  2.3849  1.7580
    9SAPS  C215 1131   2.836   2.302   8.154  0.1337  0.3951  0.3280
    9SAPS  H15R 1132   2.879   2.259   8.246 -2.0929 -0.2819  1.0813
    9SAPS  C216 1133   2.701   2.367   8.176  0.6931  0.9548  0.2664
    9SAPS  H16R 1134   2.678   2.439   8.095 -1.4009  0.4275  0.3552
    9SAPS  H16S 1135   2.716   2.413   8.276  0.7165 -2.4449  1.9045
    9SAPS  C217 1136   2.572   2.273   8.196 -1.2255  0.0700  0.5891
    9SAPS  H17R 1137   2.589   2.185   8.261  0.7699  1.5260  2.1269
    9SAPS  H17S 1138   2.544   2.217   8.104 -3.3610 -0.1994  1.3851
    9SAPS  C218 1139   2.450   2.352   8.247 -0.4165  0.3675  0.2715
    9SAPS  H18R 1140   2.361   2.286   8.248  2.8871 -4.3467 -2.2902
    9SAPS  H18S 1141   2.418   2.434   8.179  0.1091 -0.7239 -1.3132
    9SAPS  C219 1142   2.457   2.387   8.404  0.6922  0.9913  0.3975
    9SAPS  H19R 1143   2.551   2.440   8.430  0.7825  0.0291  2.0857
    9SAPS  H19S 1144   2.466   2.293   8.462 -0.0381  0.7406  0.1119
    9SAPS  C220 1145   2.334   2.457   8.454  0.2963  0.6616 -0.1944
    9SAPS  H20R 1146   2.323   2.556   8.405 -0.2244  1.0728  0.7264
    9SAPS  H20S 1147   2.346   2.488   8.560  2.2230  1.2729 -0.5773
    9SAPS  H20T 1148   2.238   2.400   8.446  0.4839  0.3965 -0.5597
    9SAPS   C33 1149   2.829   3.211   7.132  0.4168 -0.2374  0.0834
    9SAPS   H3X 1150   2.773   3.278   7.062  0.5314 -0.1521  0.0734
    9SAPS   H3Y 1151   2.938   3.231   7.134  0.6913 -1.5990 -1.0156
    9SAPS   C34 1152   2.781   3.243   7.279 -0.5839  0.0461  0.8951
    9SAPS   H4X 1153   2.670   3.238   7.283 -0.6076 -0.5629 -0.4219
    9SAPS   H4Y 1154   2.815   3.346   7.304 -0.2616  0.1189  0.1659
    9SAPS   C35 1155   2.850   3.145   7.381 -0.4638 -0.0365  0.5654
    9SAPS   H5X 1156   2.953   3.110   7.359 -0.5069  1.8650 -3.0545
    9SAPS   H5Y 1157   2.799   3.046   7.388  1.9006 -1.1974  2.0609
    9SAPS   C36 1158   2.859   3.221   7.515  0.1433 -0.9342  0.1126
    9SAPS   H6X 1159   2.758   3.258   7.543  0.9751  0.5635  1.2092
    9SAPS   H6Y 1160   2.912   3.318   7.502 -3.7867  1.4473  1.2481
    9SAPS   C37 1161   2.916   3.131   7.631 -0.1758  0.0110  0.2168
    9SAPS   H7X 1162   3.025   3.113   7.614 -0.4548  0.0937 -1.8066
    9SAPS   H7Y 1163   2.870   3.030   7.627  0.9467 -0.4801 -0.7880
    9SAPS   C38 1164   2.905   3.197   7.766  0.2969  0.1006  0.3396
    9SAPS   H8X 1165   2.795   3.199   7.785  0.5561  0.2809  1.9062
    9SAPS   H8Y 1166   2.943   3.302   7.761 -0.8190  0.7113  3.5397
    9SAPS   C39 1167   2.975   3.119   7.878  0.1966  0.3661  0.4693
    9SAPS   H9X 1168   3.085   3.117   7.862  0.1144  1.9524 -0.5014
    9SAPS   H9Y 1169   2.948   3.012   7.877 -0.8247  0.5949 -1.6461
    9SAPS  C310 1170   2.943   3.180   8.020  0.5876  0.1431 -0.0813
    9SAPS  H10X 1171   2.952   3.290   8.015  2.2084 -0.0361 -2.1734
    9SAPS  H10Y 1172   3.023   3.144   8.088  0.3452  0.5344  0.4146
    9SAPS  C311 1173   2.811   3.136   8.089 -0.0061 -0.4993 -0.3739
    9SAPS  H11X 1174   2.816   3.026   8.107  3.2397 -0.3483  0.1000
    9SAPS  H11Y 1175   2.724   3.158   8.024  0.9688  0.9599 -1.2334
    9SAPS  C312 1176   2.778   3.208   8.223  0.8835  0.0620 -1.1036
    9SAPS  H12X 1177   2.758   3.313   8.195 -1.1639 -0.8364 -3.1617
    9SAPS  H12Y 1178   2.860   3.211   8.298 -0.4795  1.2054  0.3670
    9SAPS  C313 1179   2.652   3.145   8.290 -0.0648 -0.1015  0.1439
    9SAPS  H13X 1180   2.671   3.039   8.319  2.9466 -0.4427 -2.8516
    9SAPS  H13Y 1181   2.570   3.134   8.215  0.1353  1.3175 -0.2846
    9SAPS  C314 1182   2.590   3.222   8.411  0.0263 -0.5001 -0.4283
    9SAPS  H14X 1183   2.481   3.201   8.420 -0.1584  0.4062 -0.5208
    9SAPS  H14Y 1184   2.588   3.330   8.387 -0.4573 -0.8939 -2.2471
    9SAPS  C315 1185   2.664   3.201   8.548  0.0357 -0.1686  0.5027
    9SAPS  H15X 1186   2.615   3.261   8.628 -1.8623 -1.0282  0.0138
    9SAPS  H15Y 1187   2.762   3.252   8.539 -0.3437  0.4564 -0.1617
    9SAPS  C316 1188   2.668   3.051   8.584 -0.0461 -1.2211  0.3996
    9SAPS  H16X 1189   2.729   2.995   8.510  0.8790 -0.0671  0.2649
    9SAPS  H16Y 1190   2.570   3.002   8.571 -0.5380 -0.2051  0.1943
    9SAPS  C317 1191   2.742   3.022   8.719  0.2591  0.0100  0.3986
    9SAPS  H17X 1192   2.666   3.024   8.800  0.6809 -0.2080  0.8000
    9SAPS  H17Y 1193   2.813   3.105   8.741 -3.3282  2.8088  1.8555
    9SAPS  C318 1194   2.814   2.884   8.728 -0.2315  0.2248 -0.3718
    9SAPS  H18X 1195   2.733   2.809   8.736 -0.6282  0.7231  0.3100
    9SAPS  H18Y 1196   2.873   2.879   8.822  0.0876  1.8439 -0.4691
    9SAPS  H18Z 1197   2.873   2.878   8.634 -2.0630  1.1521 -1.6141
   10SAPS     N 1198   3.024   2.245   6.303  0.4258  0.9918 -0.5396
   10SAPS   HN1 1199   3.070   2.315   6.240 -1.0430  1.1018 -1.5122
   10SAPS   HN2 1200   2.975   2.304   6.373  1.8964 -0.7786  2.0665
   10SAPS   HN3 1201   3.087   2.187   6.362 -0.0108  0.0210 -1.0196
   10SAPS   C12 1202   2.925   2.171   6.215  0.3066 -0.2477 -0.3298
   10SAPS  H12A 1203   2.857   2.242   6.172  0.4863  0.5487  0.6880
   10SAPS   C13 1204   2.989   2.105   6.094 -0.3257  0.3399  1.2524
   10SAPS  O13A 1205   3.110   2.131   6.068  0.0234 -0.0971 -0.2228
   10SAPS  O13B 1206   2.909   2.047   6.010 -0.3037  0.0515 -0.0044
   10SAPS   C11 1207   2.845   2.068   6.304 -0.1892  0.2642  0.7823
   10SAPS  H11A 1208   2.908   2.001   6.366 -0.4239  0.5657  1.3518
   10SAPS  H11B 1209   2.806   1.992   6.234  0.0937  1.7809 -1.0533
   10SAPS     P 1210   2.650   2.035   6.476  0.3279  0.0636 -0.1886
   10SAPS   O13 1211   2.517   2.104   6.483 -0.1545 -0.1454 -0.3008
   10SAPS   O14 1212   2.645   1.899   6.420  0.4707 -0.2377  0.1868
   10SAPS   O12 1213   2.750   2.125   6.389  0.5151  0.2286  0.1322
   10SAPS   O11 1214   2.700   2.035   6.624  0.0507  0.7186 -0.4221
   10SAPS    C1 1215   2.842   2.003   6.650 -0.2374 -0.2293 -0.6868
   10SAPS    HA 1216   2.867   1.898   6.622 -2.2062 -1.0315  0.4064
   10SAPS    HB 1217   2.903   2.064   6.581 -1.2458  1.2285 -0.3170
   10SAPS    C2 1218   2.884   2.027   6.798  0.2771 -0.2681 -0.1036
   10SAPS    HS 1219   2.993   2.010   6.813  0.8016  4.3072  2.3107
   10SAPS   O21 1220   2.801   1.945   6.884  0.3798 -0.0523  0.2502
   10SAPS   C21 1221   2.816   1.815   6.888  0.2103 -0.4261 -0.0456
   10SAPS   O22 1222   2.897   1.752   6.823  0.6261 -0.2490 -0.2076
   10SAPS   C22 1223   2.719   1.749   6.995 -0.7978 -0.3578 -0.3247
   10SAPS   H2R 1224   2.618   1.792   6.978 -0.0714  2.1043  1.2997
   10SAPS   H2S 1225   2.714   1.642   6.966  1.7072 -1.2927  2.4397
   10SAPS    C3 1226   2.872   2.175   6.842  0.3643 -0.2920 -0.7492
   10SAPS    HX 1227   2.766   2.207   6.845  0.4334  0.1788 -2.8372
   10SAPS    HY 1228   2.926   2.233   6.764  1.2467 -0.9182 -0.6061
   10SAPS   O31 1229   2.942   2.203   6.968 -0.1915  0.1410 -0.3180
   10SAPS   C31 1230   2.867   2.185   7.079 -0.4525  0.1893  0.0386
   10SAPS   O32 1231   2.746   2.169   7.075 -0.4027 -0.2796 -0.0849
   10SAPS   C32 1232   2.958   2.199   7.198  0.6996 -0.9655  0.5451
   10SAPS   H2X 1233   2.965   2.304   7.233  1.0981 -0.3229 -1.4033
   10SAPS   H2Y 1234   3.061   2.166   7.172  0.9598 -0.2590  0.6636
   10SAPS   C23 1235   2.752   1.776   7.141 -0.3669  0.0273  1.0499
   10SAPS   H3R 1236   2.732   1.881   7.171  2.3235  0.8723  0.0021
   10SAPS   H3S 1237   2.860   1.751   7.149  0.2937  2.5949  0.5970
   10SAPS   C24 1238   2.681   1.690   7.243  0.1363 -0.0330  0.0098
   10SAPS   H4R 1239   2.728   1.705   7.342  1.2763  0.5268 -0.6046
   10SAPS   H4S 1240   2.700   1.583   7.217  0.5220  0.2548 -0.9164
   10SAPS   C25 1241   2.528   1.702   7.233 -0.8424 -0.2592 -0.2934
   10SAPS   H5R 1242   2.474   1.659   7.147  0.8224 -3.2759  0.0659
   10SAPS   C26 1243   2.447   1.764   7.322  0.4174  0.0917  0.1862
   10SAPS   H6R 1244   2.340   1.786   7.312  0.0521 -2.1417 -1.1776
   10SAPS   C27 1245   2.499   1.812   7.450 -0.3202  0.1141 -0.1748
   10SAPS   H7R 1246   2.429   1.885   7.496 -1.5135 -0.4495 -1.0452
   10SAPS   H7S 1247   2.593   1.869   7.440 -0.9294  0.7904 -2.4191
   10SAPS   C28 1248   2.520   1.699   7.548  0.4256 -0.6517 -0.4737
   10SAPS   H8R 1249   2.538   1.595   7.515 -0.1834 -0.9890  0.2057
   10SAPS   C29 1250   2.562   1.727   7.670  0.0714  0.2601 -0.0567
   10SAPS   H9R 1251   2.569   1.650   7.748 -0.1484  0.6500  0.3514
   10SAPS  C210 1252   2.604   1.866   7.724  0.5454 -0.3200 -0.3798
   10SAPS  H10R 1253   2.631   1.943   7.649  1.7723 -1.6514 -1.3076
   10SAPS  H10S 1254   2.702   1.851   7.775  0.0859 -1.7841  0.0932
   10SAPS  C211 1255   2.499   1.918   7.815 -0.2040 -0.0248 -0.0215
   10SAPS  H11R 1256   2.429   1.982   7.760  0.7851  1.9351  0.9059
   10SAPS  C212 1257   2.493   1.930   7.952 -0.6024 -0.3135  0.5985
   10SAPS  H12R 1258   2.408   1.975   8.005  0.7025  1.2705  1.3675
   10SAPS  C213 1259   2.595   1.866   8.046  0.0876 -0.4122  0.5023
   10SAPS  H13R 1260   2.638   1.949   8.107 -1.9477  0.4509  0.8064
   10SAPS  H13S 1261   2.671   1.812   7.987  0.5310 -1.3169  1.8743
   10SAPS  C214 1262   2.508   1.784   8.136  0.0567 -0.4688  0.0181
   10SAPS  H14R 1263   2.424   1.733   8.086  0.2056  0.2985 -1.0192
   10SAPS  C215 1264   2.518   1.766   8.264  0.1047  1.1657 -0.3960
   10SAPS  H15R 1265   2.446   1.708   8.324  0.1968 -0.7654 -2.1061
   10SAPS  C216 1266   2.633   1.819   8.341 -0.1864  0.6745 -0.3463
   10SAPS  H16R 1267   2.598   1.917   8.381  0.1451 -0.7883  3.7082
   10SAPS  H16S 1268   2.727   1.836   8.285 -1.0384 -2.6253 -2.9397
   10SAPS  C217 1269   2.666   1.725   8.459 -0.3558 -0.0618  0.0945
   10SAPS  H17R 1270   2.711   1.629   8.425  0.8027 -0.0511  1.5465
   10SAPS  H17S 1271   2.580   1.685   8.516 -0.2330 -0.7267 -0.1807
   10SAPS  C218 1272   2.769   1.797   8.541 -0.0203 -0.3226  0.1830
   10SAPS  H18R 1273   2.714   1.883   8.587 -1.7974 -0.9989 -0.6172
   10SAPS  H18S 1274   2.858   1.833   8.485  1.9563  0.1588  3.4600
   10SAPS  C219 1275   2.830   1.713   8.651  0.6762  0.5843  0.1286
   10SAPS  H19R 1276   2.883   1.631   8.599  1.0986  0.0300  1.4296
   10SAPS  H19S 1277   2.759   1.675   8.726  0.0873  0.9523 -0.2354
   10SAPS  C220 1278   2.949   1.778   8.734 -0.1961  0.2327  0.5923
   10SAPS  H20R 1279   3.044   1.798   8.679 -0.5993  0.6912  0.0534
   10SAPS  H20S 1280   2.985   1.710   8.814 -0.9645 -1.2577 -0.3153
   10SAPS  H20T 1281   2.905   1.869   8.780  0.8154  1.2386 -0.3891
   10SAPS   C33 1282   2.894   2.121   7.317  0.3479  0.1202  0.8783
   10SAPS   H3X 1283   2.894   2.016   7.283 -0.7235  0.1990  0.6169
   10SAPS   H3Y 1284   2.789   2.154   7.335 -0.1375 -2.1263  2.3160
   10SAPS   C34 1285   2.976   2.134   7.445 -0.0457 -0.8957  0.0746
   10SAPS   H4X 1286   2.965   2.238   7.483 -0.6073 -2.5688  4.7428
   10SAPS   H4Y 1287   3.080   2.106   7.419  0.3299  1.6041 -1.3162
   10SAPS   C35 1288   2.928   2.047   7.561  0.0925 -0.0683 -1.6548
   10SAPS   H5X 1289   2.931   1.937   7.546  1.1158 -0.1314 -1.0134
   10SAPS   H5Y 1290   2.822   2.071   7.587  0.2043 -1.3910  0.1039
   10SAPS   C36 1291   3.021   2.061   7.683  0.6766  0.2199  0.4468
   10SAPS   H6X 1292   3.018   2.171   7.703  0.0787  0.3199 -0.1643
   10SAPS   H6Y 1293   3.118   2.013   7.659 -0.9269 -2.9092  0.0116
   10SAPS   C37 1294   2.976   1.992   7.808  0.7508  0.5486  0.0360
   10SAPS   H7X 1295   2.933   1.895   7.775 -0.1851  0.9749 -0.0144
   10SAPS   H7Y 1296   2.899   2.047   7.866 -2.6617 -2.3992 -1.4838
   10SAPS   C38 1297   3.087   1.953   7.903 -0.1466  0.5726  0.0555
   10SAPS   H8X 1298   3.135   2.048   7.936  0.9510  0.1586 -0.3333
   10SAPS   H8Y 1299   3.156   1.879   7.857 -0.5224 -1.3176  2.4673
   10SAPS   C39 1300   3.033   1.887   8.034 -0.2448 -0.2507 -0.2051
   10SAPS   H9X 1301   2.963   1.805   8.008 -0.8085 -0.2170  1.1808
   10SAPS   H9Y 1302   2.976   1.963   8.092 -1.5767 -1.9377  0.7276
   10SAPS  C310 1303   3.146   1.826   8.124 -0.4844 -0.4211  0.1851
   10SAPS  H10X 1304   3.220   1.908   8.115  0.9310 -1.6777  0.2005
   10SAPS  H10Y 1305   3.190   1.734   8.082 -0.4392  0.4294 -1.6947
   10SAPS  C311 1306   3.090   1.807   8.264  0.8152  0.6698  0.8324
   10SAPS  H11X 1307   3.011   1.730   8.255 -0.1731  1.6820  0.7240
   10SAPS  H11Y 1308   3.031   1.894   8.300 -0.4602  0.9942 -1.9159
   10SAPS  C312 1309   3.193   1.777   8.372 -0.4479  0.1135 -0.2757
   10SAPS  H12X 1310   3.232   1.675   8.354 -2.4098 -0.8798  0.9561
   10SAPS  H12Y 1311   3.162   1.760   8.478 -0.3609  0.1869 -0.2385
   10SAPS  C313 1312   3.317   1.873   8.375  0.2146  0.3799  0.6052
   10SAPS  H13X 1313   3.290   1.981   8.375 -0.7867  0.1427  1.4559
   10SAPS  H13Y 1314   3.373   1.851   8.282 -1.6875 -0.3809 -0.3770
   10SAPS  C314 1315   3.411   1.850   8.496 -0.0271 -0.2434  0.8978
   10SAPS  H14X 1316   3.465   1.755   8.479 -2.7632 -1.7118  0.1759
   10SAPS  H14Y 1317   3.354   1.847   8.591 -0.5595 -0.6738  0.5620
   10SAPS  C315 1318   3.509   1.970   8.490  0.6048 -0.0908 -0.2894
   10SAPS  H15X 1319   3.453   2.059   8.528 -1.2102 -0.8118 -1.2407
   10SAPS  H15Y 1320   3.546   1.982   8.386  1.6866  4.0370  0.4669
   10SAPS  C316 1321   3.633   1.940   8.569  0.2661  0.3137  0.0903
   10SAPS  H16X 1322   3.671   1.839   8.544 -0.0991 -0.0601  1.0211
   10SAPS  H16Y 1323   3.607   1.939   8.677 -0.1034  1.1554  0.0157
   10SAPS  C317 1324   3.728   2.048   8.543  0.3494 -0.9179 -0.4537
   10SAPS  H17X 1325   3.686   2.135   8.597 -1.6885 -1.3864 -1.2326
   10SAPS  H17Y 1326   3.754   2.074   8.438 -0.5817 -0.2675 -0.5244
   10SAPS  C318 1327   3.853   2.009   8.625 -0.0078  0.1437 -0.1731
   10SAPS  H18X 1328   3.833   2.010   8.735  1.6631  0.2287  0.1396
   10SAPS  H18Y 1329   3.935   2.080   8.604 -0.7384  0.8534 -0.6550
   10SAPS  H18Z 1330   3.879   1.905   8.596  5.0391  1.0365  0.7698
   11SAPS     N 1331   4.145   5.071   5.279  0.0398 -1.1708 -0.2555
   11SAPS   HN1 1332   4.064   5.134   5.294 -3.7474 -5.4854 -1.6761
   11SAPS   HN2 1333   4.130   5.020   5.189  0.1080 -1.7043  0.0306
   11SAPS   HN3 1334   4.140   5.001   5.356  3.6274  0.0491  1.2119
   11SAPS   C12 1335   4.277   5.136   5.253 -0.2485 -0.2587  0.0257
   11SAPS  H12A 1336   4.359   5.068   5.233  1.1563  1.3167  0.2683
   11SAPS   C13 1337   4.276   5.230   5.127  0.0001  0.4337 -0.8559
   11SAPS  O13A 1338   4.173   5.227   5.052 -0.1406 -0.6469 -0.5973
   11SAPS  O13B 1339   4.360   5.321   5.118 -0.4799  0.1621 -0.5862
   11SAPS   C11 1340   4.327   5.222   5.376  0.0998 -0.3790  0.1101
   11SAPS  H11A 1341   4.265   5.314   5.379  1.3015  0.6003 -2.9277
   11SAPS  H11B 1342   4.430   5.260   5.363  0.3673 -1.2723 -0.4359
   11SAPS     P 1343   4.462   5.085   5.558 -0.1694  0.0300  0.0727
   11SAPS   O13 1344   4.537   5.017   5.446  0.1509 -0.0949 -0.1576
   11SAPS   O14 1345   4.532   5.192   5.634 -0.3017  0.5415 -0.3692
   11SAPS   O12 1346   4.333   5.153   5.498 -0.4946  0.3614 -0.1131
   11SAPS   O11 1347   4.390   4.985   5.654 -1.0564  0.5597  0.0255
   11SAPS    C1 1348   4.357   5.018   5.792 -0.6971 -0.3103  0.3219
   11SAPS    HA 1349   4.393   4.932   5.852  1.5342 -0.2610 -0.8774
   11SAPS    HB 1350   4.405   5.111   5.829 -1.1907  0.0167  0.1437
   11SAPS    C2 1351   4.199   5.050   5.808 -0.2087  0.4710 -0.3788
   11SAPS    HS 1352   4.143   4.969   5.757  0.0333 -0.6415  1.1226
   11SAPS   O21 1353   4.180   5.167   5.730 -0.3777 -0.4343  0.2656
   11SAPS   C21 1354   4.057   5.211   5.724 -0.1226 -0.7064  0.1504
   11SAPS   O22 1355   3.958   5.143   5.742  0.1453  0.4391  0.1159
   11SAPS   C22 1356   4.058   5.353   5.667 -0.3145  0.2406  0.1836
   11SAPS   H2R 1357   4.160   5.395   5.678 -0.3466 -0.0814  1.9988
   11SAPS   H2S 1358   4.029   5.345   5.560 -2.3971 -2.4479  0.8812
   11SAPS    C3 1359   4.140   5.042   5.959 -0.4775  0.0601  0.5438
   11SAPS    HX 1360   4.170   4.947   6.010  0.7120  0.0685 -0.1176
   11SAPS    HY 1361   4.030   5.045   5.947 -0.2524 -0.3282 -1.7179
   11SAPS   O31 1362   4.172   5.162   6.036  0.4332  0.2504 -0.3813
   11SAPS   C31 1363   4.261   5.154   6.131 -0.2796  0.4516  0.2425
   11SAPS   O32 1364   4.350   5.072   6.127 -0.3884 -1.0174  0.1304
   11SAPS   C32 1365   4.229   5.233   6.256  0.7452 -0.8798  0.4328
   11SAPS   H2X 1366   4.138   5.185   6.298  0.6090 -0.4355  0.6542
   11SAPS   H2Y 1367   4.193   5.333   6.224 -0.7295 -1.6055 -0.1791
   11SAPS   C23 1368   3.950   5.437   5.746 -0.7045  0.6095 -0.6277
   11SAPS   H3R 1369   3.853   5.382   5.748 -0.0390 -0.6147 -1.5994
   11SAPS   H3S 1370   3.939   5.531   5.688  1.0948  2.1518  1.4632
   11SAPS   C24 1371   4.003   5.465   5.889 -0.4967 -0.1267  0.2343
   11SAPS   H4R 1372   4.099   5.523   5.886  0.3027 -1.4295  0.2675
   11SAPS   H4S 1373   4.026   5.363   5.927  2.0040 -0.1086 -1.0650
   11SAPS   C25 1374   3.894   5.534   5.965  0.5026 -0.0014 -0.3389
   11SAPS   H5R 1375   3.869   5.638   5.939 -1.5484 -0.6935 -1.1743
   11SAPS   C26 1376   3.825   5.469   6.059 -0.0216 -0.1352  0.8274
   11SAPS   H6R 1377   3.755   5.523   6.124  0.5706  2.1899 -0.4302
   11SAPS   C27 1378   3.839   5.325   6.093 -0.3156 -0.6751  0.5175
   11SAPS   H7R 1379   3.945   5.296   6.083  0.5023  2.6629 -1.2651
   11SAPS   H7S 1380   3.774   5.270   6.022 -1.5495 -0.2730  1.3118
   11SAPS   C28 1381   3.799   5.274   6.234 -0.3851 -0.5131 -0.1779
   11SAPS   H8R 1382   3.723   5.194   6.226  0.3497 -1.2285 -0.1405
   11SAPS   C29 1383   3.853   5.309   6.356  0.0599  0.7935 -0.0617
   11SAPS   H9R 1384   3.819   5.254   6.445 -1.1822  1.7405  0.0590
   11SAPS  C210 1385   3.951   5.423   6.382 -0.8573 -1.0273 -1.1350
   11SAPS  H10R 1386   4.024   5.433   6.298 -1.2010  2.0284 -1.0941
   11SAPS  H10S 1387   4.003   5.406   6.478 -1.9278  0.2055 -0.3318
   11SAPS  C211 1388   3.861   5.543   6.415 -0.7315  0.3933  0.7719
   11SAPS  H11R 1389   3.790   5.565   6.334  2.2307 -0.1162 -2.0631
   11SAPS  C212 1390   3.867   5.626   6.519  0.2043 -0.7050  0.1415
   11SAPS  H12R 1391   3.783   5.697   6.528 -0.8200 -1.7014 -1.3076
   11SAPS  C213 1392   3.961   5.620   6.637  0.8119 -0.0197  0.2000
   11SAPS  H13R 1393   3.997   5.516   6.653 -0.3342 -0.3060  0.9301
   11SAPS  H13S 1394   3.903   5.626   6.732  1.4608  2.0099  0.4960
   11SAPS  C214 1395   4.082   5.722   6.646  0.5763  0.1216  0.1326
   11SAPS  H14R 1396   4.106   5.787   6.561  1.3342 -0.1882  0.1114
   11SAPS  C215 1397   4.162   5.734   6.755  0.6245 -0.3826  0.0603
   11SAPS  H15R 1398   4.246   5.805   6.760  0.0226  0.2129  3.2715
   11SAPS  C216 1399   4.153   5.648   6.880 -0.1974 -0.4927 -0.3803
   11SAPS  H16R 1400   4.218   5.561   6.856  0.0919 -0.1093 -1.0151
   11SAPS  H16S 1401   4.055   5.599   6.895 -1.2546  2.5360  2.9922
   11SAPS  C217 1402   4.179   5.715   7.011  0.1685  0.0814 -0.2967
   11SAPS  H17R 1403   4.095   5.787   7.019  0.2470  0.1586 -0.1585
   11SAPS  H17S 1404   4.274   5.772   7.015  0.0369  0.3090 -0.4147
   11SAPS  C218 1405   4.164   5.615   7.129  0.2494 -0.6019  1.0225
   11SAPS  H18R 1406   4.230   5.526   7.124 -1.9896 -2.2275 -0.3497
   11SAPS  H18S 1407   4.060   5.578   7.135 -1.0383  2.6218 -0.1332
   11SAPS  C219 1408   4.206   5.690   7.256 -0.0948 -0.5587  0.0744
   11SAPS  H19R 1409   4.132   5.771   7.267  0.4244 -0.1229  0.4012
   11SAPS  H19S 1410   4.301   5.744   7.235 -1.7004  1.8579 -1.1736
   11SAPS  C220 1411   4.206   5.603   7.384 -1.0337  0.2644 -0.5351
   11SAPS  H20R 1412   4.227   5.678   7.463  0.7286  0.1708 -0.8891
   11SAPS  H20S 1413   4.280   5.520   7.380 -1.3430  0.0839 -3.6434
   11SAPS  H20T 1414   4.112   5.554   7.416  1.0334 -2.9972  0.7964
   11SAPS   C33 1415   4.353   5.240   6.351 -0.5490 -0.2122 -0.3492
   11SAPS   H3X 1416   4.444   5.275   6.299  0.4665  1.1707  2.2689
   11SAPS   H3Y 1417   4.380   5.136   6.379 -0.7360 -0.3600 -0.7045
   11SAPS   C34 1418   4.339   5.339   6.470 -0.2015 -0.8633 -0.6686
   11SAPS   H4X 1419   4.237   5.316   6.509  0.4924  0.1198  1.8068
   11SAPS   H4Y 1420   4.332   5.443   6.433 -0.7404 -0.9454 -0.8024
   11SAPS   C35 1421   4.449   5.326   6.569 -0.9954 -0.0443 -0.1556
   11SAPS   H5X 1422   4.552   5.344   6.529  0.5583 -4.3372  1.5887
   11SAPS   H5Y 1423   4.456   5.226   6.616 -2.7179 -1.7100 -3.2956
   11SAPS   C36 1424   4.433   5.432   6.682 -0.0759  0.8855  0.2539
   11SAPS   H6X 1425   4.340   5.401   6.735 -1.0272  1.7605 -0.8922
   11SAPS   H6Y 1426   4.427   5.533   6.635 -0.1584  0.3050 -1.0000
   11SAPS   C37 1427   4.553   5.428   6.781 -0.4420  0.2587  0.0553
   11SAPS   H7X 1428   4.631   5.491   6.734 -0.1074  1.3631  2.0212
   11SAPS   H7Y 1429   4.599   5.330   6.805  1.2227  1.2387  0.9474
   11SAPS   C38 1430   4.524   5.503   6.914  0.1986  0.2676  0.4180
   11SAPS   H8X 1431   4.442   5.445   6.961 -0.6924 -0.5674 -2.0894
   11SAPS   H8Y 1432   4.491   5.604   6.880 -0.2295 -0.5013 -1.5055
   11SAPS   C39 1433   4.652   5.499   7.001  0.5007 -0.4630  0.3366
   11SAPS   H9X 1434   4.733   5.560   6.955 -0.3987 -0.6645 -1.5521
   11SAPS   H9Y 1435   4.693   5.396   6.993 -0.3500 -0.7630 -0.1646
   11SAPS  C310 1436   4.642   5.531   7.147 -0.6843 -0.5894  0.1256
   11SAPS  H10X 1437   4.735   5.510   7.205 -0.9103  1.3275  1.2155
   11SAPS  H10Y 1438   4.561   5.470   7.191 -1.4194 -0.2910 -0.8057
   11SAPS  C311 1439   4.606   5.678   7.177 -0.1401 -0.0340 -0.1062
   11SAPS  H11X 1440   4.496   5.681   7.164  0.1484  1.4393 -2.5125
   11SAPS  H11Y 1441   4.651   5.752   7.108  0.2363 -0.5312 -0.3967
   11SAPS  C312 1442   4.641   5.728   7.318 -0.3266 -0.5649  0.2711
   11SAPS  H12X 1443   4.648   5.839   7.329  2.0694 -0.7229  0.7638
   11SAPS  H12Y 1444   4.748   5.707   7.340 -0.3914  0.5590  1.7476
   11SAPS  C313 1445   4.547   5.673   7.426  0.6081  0.2211  0.1838
   11SAPS  H13X 1446   4.536   5.563   7.409  0.9328  0.4591 -1.6685
   11SAPS  H13Y 1447   4.444   5.712   7.412  0.3596 -0.9007 -1.1915
   11SAPS  C314 1448   4.593   5.709   7.567  0.4687  0.2432 -0.6586
   11SAPS  H14X 1449   4.616   5.815   7.589 -0.7224  0.1093  1.3977
   11SAPS  H14Y 1450   4.675   5.640   7.595 -0.3324 -1.2793 -2.0044
   11SAPS  C315 1451   4.489   5.669   7.675  0.1390  0.6174 -0.8934
   11SAPS  H15X 1452   4.432   5.586   7.629 -1.3634  1.9262 -1.4294
   11SAPS  H15Y 1453   4.417   5.748   7.703 -1.9870 -1.5206 -0.1334
   11SAPS  C316 1454   4.557   5.608   7.801  0.3870  0.2282  0.6566
   11SAPS  H16X 1455   4.629   5.526   7.779  1.1053  0.7566  0.9804
   11SAPS  H16Y 1456   4.484   5.560   7.870 -1.2833 -0.4823 -1.5557
   11SAPS  C317 1457   4.622   5.717   7.880 -0.0405 -0.3170  0.3144
   11SAPS  H17X 1458   4.545   5.796   7.896  0.0754 -0.2704  0.6352
   11SAPS  H17Y 1459   4.715   5.760   7.837 -0.7614  0.2746 -0.6709
   11SAPS  C318 1460   4.667   5.681   8.023  0.8582  0.0366  0.1958
   11SAPS  H18X 1461   4.702   5.774   8.073 -1.5034  2.0148 -1.7070
   11SAPS  H18Y 1462   4.752   5.610   8.015  2.4977  1.8486  0.9897
   11SAPS  H18Z 1463   4.585   5.638   8.083 -1.1240  1.3939 -1.4846
   12SAPS     N 1464   3.882   0.824   5.982 -1.0771 -0.1780 -0.3893
   12SAPS   HN1 1465   3.867   0.861   6.078  0.7383 -0.3718  0.0018
   12SAPS   HN2 1466   3.978   0.856   5.958 -0.0222 -2.5799  0.4527
   12SAPS   HN3 1467   3.813   0.880   5.929 -0.4586  1.2659  0.3150
   12SAPS   C12 1468   3.874   0.678   5.979 -0.6403  0.4472 -0.4019
   12SAPS  H12A 1469   3.779   0.646   6.017  0.1411 -1.7783 -0.2455
   12SAPS   C13 1470   3.910   0.610   5.847  0.0259  0.8015 -0.1768
   12SAPS  O13A 1471   3.971   0.673   5.755 -0.1493  0.2719  0.8008
   12SAPS  O13B 1472   3.879   0.487   5.826  0.5071 -0.1929  0.4963
   12SAPS   C11 1473   3.969   0.623   6.088  0.4049  0.1597 -0.1303
   12SAPS  H11A 1474   4.072   0.659   6.066  0.8139 -1.9490 -1.9078
   12SAPS  H11B 1475   3.980   0.512   6.082 -2.4818 -0.1584 -0.2122
   12SAPS     P 1476   3.840   0.547   6.302  0.3270 -0.4786  0.1485
   12SAPS   O13 1477   3.727   0.611   6.375 -0.4664  0.7327 -0.3204
   12SAPS   O14 1478   3.794   0.440   6.208  0.5360  0.0492 -0.3519
   12SAPS   O12 1479   3.926   0.660   6.225 -0.0473  0.3035 -0.1766
   12SAPS   O11 1480   3.946   0.482   6.399  0.6316  0.2675  0.6726
   12SAPS    C1 1481   4.069   0.431   6.349 -0.4493  0.6062 -1.0290
   12SAPS    HA 1482   4.046   0.356   6.270 -0.4427 -0.7628  0.2443
   12SAPS    HB 1483   4.129   0.513   6.304  0.7647 -0.0034 -0.5539
   12SAPS    C2 1484   4.154   0.364   6.465 -0.6384 -0.7055  0.1835
   12SAPS    HS 1485   4.258   0.352   6.429 -1.4001 -1.2434 -1.9237
   12SAPS   O21 1486   4.101   0.232   6.485 -0.5869  0.4483  0.1884
   12SAPS   C21 1487   4.183   0.133   6.537  1.4482 -0.2966 -0.1332
   12SAPS   O22 1488   4.299   0.149   6.557 -0.2273 -0.6620  0.0147
   12SAPS   C22 1489   4.097   0.006   6.570 -0.3870 -0.5472  0.1598
   12SAPS   H2R 1490   4.046   0.030   6.665 -0.5676 -3.1855  0.7524
   12SAPS   H2S 1491   4.018  -0.007   6.492  0.7867 -0.4499 -1.0564
   12SAPS    C3 1492   4.145   0.452   6.599 -0.4422  0.1472 -0.0486
   12SAPS    HX 1493   4.040   0.464   6.631 -0.3612 -2.3771  1.3113
   12SAPS    HY 1494   4.166   0.557   6.571 -1.2727 -0.2926 -2.4499
   12SAPS   O31 1495   4.232   0.406   6.707 -0.4806 -0.3750  0.0275
   12SAPS   C31 1496   4.172   0.327   6.795  0.5445 -0.4860 -0.0854
   12SAPS   O32 1497   4.058   0.274   6.779  0.2948 -0.0909  0.0869
   12SAPS   C32 1498   4.266   0.296   6.912 -0.4442  0.8702 -0.1164
   12SAPS   H2X 1499   4.355   0.361   6.900  0.8795 -0.5342  1.9448
   12SAPS   H2Y 1500   4.292   0.188   6.910  2.3637  1.5006 -0.1109
   12SAPS   C23 1501   4.172  -0.128   6.580 -0.5366 -0.0749 -0.2401
   12SAPS   H3R 1502   4.256  -0.133   6.507 -2.7089  0.4332 -2.8296
   12SAPS   H3S 1503   4.100  -0.209   6.556  0.6460 -0.9414 -0.8958
   12SAPS   C24 1504   4.236  -0.155   6.720 -0.1061  0.7851  0.5050
   12SAPS   H4R 1505   4.157  -0.135   6.795  1.7644  0.4571  2.6238
   12SAPS   H4S 1506   4.316  -0.080   6.741  2.4396 -0.7508 -3.0554
   12SAPS   C25 1507   4.294  -0.288   6.716  0.4851  0.6516  0.5598
   12SAPS   H5R 1508   4.273  -0.349   6.627  2.9692 -0.4822  0.6945
   12SAPS   C26 1509   4.366  -0.344   6.811  0.0914  0.7910 -0.2428
   12SAPS   H6R 1510   4.395  -0.449   6.807  0.9437  1.0272 -0.2522
   12SAPS   C27 1511   4.407  -0.282   6.945 -1.0831 -0.4186 -0.3214
   12SAPS   H7R 1512   4.395  -0.355   7.029 -0.5180 -1.1100 -0.8391
   12SAPS   H7S 1513   4.329  -0.210   6.980  0.8269  2.4985 -1.8742
   12SAPS   C28 1514   4.540  -0.219   6.942  0.0320 -0.2403 -0.2026
   12SAPS   H8R 1515   4.580  -0.195   6.843  0.6934  3.5554  0.8891
   12SAPS   C29 1516   4.626  -0.203   7.045  0.4872 -0.4801  0.0990
   12SAPS   H9R 1517   4.724  -0.163   7.014  0.5942 -0.5421  0.3605
   12SAPS  C210 1518   4.593  -0.240   7.186  0.2432  0.0903  0.1597
   12SAPS  H10R 1519   4.485  -0.247   7.209 -0.7712 -0.9278 -4.4688
   12SAPS  H10S 1520   4.634  -0.161   7.253  2.1253 -1.5532  0.9895
   12SAPS  C211 1521   4.647  -0.378   7.227 -0.1631 -0.2743  0.0415
   12SAPS  H11R 1522   4.676  -0.450   7.149  0.7524 -0.5427  0.6226
   12SAPS  C212 1523   4.666  -0.409   7.359  0.1358  0.1972 -0.1032
   12SAPS  H12R 1524   4.725  -0.501   7.370 -0.0229 -0.1128 -1.6607
   12SAPS  C213 1525   4.631  -0.310   7.473 -0.1212 -0.0843 -1.2787
   12SAPS  H13R 1526   4.554  -0.355   7.539 -0.9679 -0.5987 -2.5787
   12SAPS  H13S 1527   4.593  -0.210   7.443  2.3834  1.4940  0.6373
   12SAPS  C214 1528   4.751  -0.285   7.561  0.1419 -0.1104 -0.2260
   12SAPS  H14R 1529   4.831  -0.233   7.506  0.6209  0.0016  0.5782
   12SAPS  C215 1530   4.770  -0.316   7.689 -0.1576  0.2377  0.1604
   12SAPS  H15R 1531   4.868  -0.291   7.733  0.6000  0.1759 -1.4554
   12SAPS  C216 1532   4.674  -0.392   7.770  0.1951 -0.5220  0.4064
   12SAPS  H16R 1533   4.678  -0.502   7.761  1.2221 -0.3274 -1.8697
   12SAPS  H16S 1534   4.569  -0.363   7.751 -0.0133 -1.7319 -0.3207
   12SAPS  C217 1535   4.703  -0.373   7.923  0.7821 -0.2709  0.5056
   12SAPS  H17R 1536   4.615  -0.414   7.977  0.9648  1.6345  2.3598
   12SAPS  H17S 1537   4.695  -0.264   7.945  0.2365 -0.0984 -0.5260
   12SAPS  C218 1538   4.837  -0.429   7.971 -0.1711 -0.1084  0.4557
   12SAPS  H18R 1539   4.922  -0.386   7.914 -0.5952  1.3551  0.9089
   12SAPS  H18S 1540   4.836  -0.539   7.954  1.5169  0.1378 -1.5631
   12SAPS  C219 1541   4.867  -0.388   8.121  0.0928  0.6017 -0.6250
   12SAPS  H19R 1542   4.770  -0.415   8.169 -0.0380 -1.1056 -1.8245
   12SAPS  H19S 1543   4.879  -0.278   8.134 -2.0626  0.9512 -1.3806
   12SAPS  C220 1544   4.968  -0.476   8.193 -0.7165 -1.0611 -0.1413
   12SAPS  H20R 1545   5.071  -0.480   8.152 -1.0806  0.5555 -1.2899
   12SAPS  H20S 1546   4.947  -0.584   8.178  1.3826 -1.5420  0.3380
   12SAPS  H20T 1547   4.973  -0.445   8.300  3.4815  1.3457 -0.9364
   12SAPS   C33 1548   4.196   0.307   7.058 -0.3613  0.2382 -0.1649
   12SAPS   H3X 1549   4.107   0.241   7.054  0.0983 -0.3787 -0.3381
   12SAPS   H3Y 1550   4.168   0.415   7.060  0.3556  0.4268 -0.1786
   12SAPS   C34 1551   4.275   0.255   7.178  0.3640 -0.4015  1.0104
   12SAPS   H4X 1552   4.204   0.281   7.260  1.5098 -0.8511  2.1643
   12SAPS   H4Y 1553   4.375   0.301   7.193 -0.0773  0.6033  0.9188
   12SAPS   C35 1554   4.278   0.104   7.194  0.1729  1.0746  0.0814
   12SAPS   H5X 1555   4.309   0.061   7.096 -3.1585  1.5030 -1.2217
   12SAPS   H5Y 1556   4.173   0.067   7.193  0.9489 -1.3772  2.8892
   12SAPS   C36 1557   4.363   0.050   7.301  0.1990  0.1237 -0.7760
   12SAPS   H6X 1558   4.472   0.068   7.283  0.9583 -0.8995  2.5055
   12SAPS   H6Y 1559   4.345  -0.059   7.309  2.3925 -0.3750 -2.1584
   12SAPS   C37 1560   4.323   0.109   7.437 -0.3760  0.3911  0.0730
   12SAPS   H7X 1561   4.214   0.111   7.459 -0.3432  3.3894  0.2694
   12SAPS   H7Y 1562   4.347   0.218   7.443  1.4948  0.0484 -0.6342
   12SAPS   C38 1563   4.398   0.033   7.549 -0.0486 -0.4026 -1.0110
   12SAPS   H8X 1564   4.504   0.064   7.535  0.4152  1.1373  4.5098
   12SAPS   H8Y 1565   4.381  -0.073   7.519  0.6441 -0.9115  0.3064
   12SAPS   C39 1566   4.359   0.064   7.692 -0.1042 -0.5158 -0.1537
   12SAPS   H9X 1567   4.248   0.062   7.698 -0.3634  4.7210 -0.9794
   12SAPS   H9Y 1568   4.400   0.165   7.711 -2.0153  0.0373  1.1567
   12SAPS  C310 1569   4.436  -0.032   7.787 -0.3492  0.0936  0.4126
   12SAPS  H10X 1570   4.545  -0.039   7.769  0.1262 -0.1287  3.1643
   12SAPS  H10Y 1571   4.399  -0.133   7.758  3.4476 -1.5879  1.0617
   12SAPS  C311 1572   4.393  -0.013   7.937 -0.0485  0.0967  0.2973
   12SAPS  H11X 1573   4.282  -0.017   7.943  0.0399 -0.5400  1.9417
   12SAPS  H11Y 1574   4.420   0.089   7.971 -2.3811  0.5512  0.8941
   12SAPS  C312 1575   4.458  -0.109   8.038  0.2013  0.4732  0.0833
   12SAPS  H12X 1576   4.567  -0.111   8.020  0.3044 -0.0398  0.7373
   12SAPS  H12Y 1577   4.436  -0.212   8.004 -0.6280  0.7411 -0.2181
   12SAPS  C313 1578   4.423  -0.073   8.180  0.5874  0.0515 -0.3967
   12SAPS  H13X 1579   4.326  -0.117   8.210  0.3021  0.6699 -0.4025
   12SAPS  H13Y 1580   4.435   0.036   8.201  0.1370 -0.1780  1.1093
   12SAPS  C314 1581   4.530  -0.145   8.267  0.7923  0.3200 -0.2313
   12SAPS  H14X 1582   4.525  -0.254   8.246 -2.5819 -0.4061  3.7689
   12SAPS  H14Y 1583   4.500  -0.138   8.374 -0.8610  0.4610 -0.7013
   12SAPS  C315 1584   4.665  -0.086   8.265 -0.0822  0.1326 -0.3303
   12SAPS  H15X 1585   4.662   0.025   8.274 -0.2649 -0.0059  1.4406
   12SAPS  H15Y 1586   4.712  -0.114   8.168  0.3078 -4.6944  1.1645
   12SAPS  C316 1587   4.754  -0.152   8.373 -0.6291 -0.4413 -0.7017
   12SAPS  H16X 1588   4.757  -0.261   8.350  2.8257 -0.7570  0.9186
   12SAPS  H16Y 1589   4.720  -0.125   8.475  1.3273 -0.4220 -0.0368
   12SAPS  C317 1590   4.908  -0.112   8.358  0.4217 -0.5464  0.4741
   12SAPS  H17X 1591   4.915  -0.002   8.370  1.6779 -0.6363  0.5582
   12SAPS  H17Y 1592   4.939  -0.141   8.255 -0.8340  0.1070 -0.1028
   12SAPS  C318 1593   4.988  -0.179   8.466  0.7255 -0.5518  0.3890
   12SAPS  H18X 1594   5.038  -0.268   8.424  1.2882  0.3511 -0.8739
   12SAPS  H18Y 1595   4.932  -0.206   8.558  0.5426 -1.8226 -0.0950
   12SAPS  H18Z 1596   5.074  -0.117   8.501  0.0715 -0.9582  2.8063
   13SAPS     N 1597   4.901   3.072   5.938 -0.1142  0.1930 -0.4869
   13SAPS   HN1 1598   4.833   3.023   5.999  1.3760 -0.7699  0.4262
   13SAPS   HN2 1599   4.946   3.008   5.870  0.7799 -1.4707  1.6142
   13SAPS   HN3 1600   4.980   3.112   5.993 -0.0989 -2.4524  1.4754
   13SAPS   C12 1601   4.822   3.182   5.864  0.1856 -0.5788 -0.4861
   13SAPS  H12A 1602   4.893   3.226   5.796  1.1838  1.0129  1.5428
   13SAPS   C13 1603   4.687   3.143   5.794 -0.2307 -0.2402 -0.1841
   13SAPS  O13A 1604   4.659   3.020   5.794  0.5629 -0.4688 -0.2363
   13SAPS  O13B 1605   4.613   3.234   5.739 -0.4677 -0.4132 -0.6945
   13SAPS   C11 1606   4.802   3.286   5.977  0.2206  0.1195  0.5764
   13SAPS  H11A 1607   4.721   3.260   6.047 -0.9371 -2.0123 -1.4827
   13SAPS  H11B 1608   4.780   3.382   5.925  1.2482 -0.9180 -1.8737
   13SAPS     P 1609   4.921   3.416   6.157 -0.2464 -0.0607  0.0685
   13SAPS   O13 1610   5.048   3.413   6.227  0.6747  0.3573 -0.0591
   13SAPS   O14 1611   4.877   3.537   6.090  0.7260 -0.0320  0.3438
   13SAPS   O12 1612   4.921   3.296   6.054  0.2235 -0.0648  0.5268
   13SAPS   O11 1613   4.804   3.372   6.253  0.0068 -0.2395  0.1538
   13SAPS    C1 1614   4.813   3.253   6.326 -0.0891 -0.9027  0.3791
   13SAPS    HA 1615   4.707   3.224   6.342 -0.3446 -1.2671 -1.8746
   13SAPS    HB 1616   4.855   3.181   6.252 -0.5378  0.3066 -1.0544
   13SAPS    C2 1617   4.874   3.250   6.466 -0.7158  0.0366 -0.0778
   13SAPS    HS 1618   4.798   3.206   6.534 -3.6485 -0.5608 -3.5239
   13SAPS   O21 1619   4.917   3.382   6.513 -0.6945 -0.2193  0.1093
   13SAPS   C21 1620   4.819   3.458   6.557 -0.1449  0.5262 -0.6065
   13SAPS   O22 1621   4.702   3.430   6.567  0.0524 -0.1107  0.3087
   13SAPS   C22 1622   4.875   3.586   6.620  0.6099  0.3861 -0.2941
   13SAPS   H2R 1623   4.982   3.601   6.595  0.9447  1.9194  1.9493
   13SAPS   H2S 1624   4.811   3.670   6.587  0.6874  0.1364 -1.0918
   13SAPS    C3 1625   4.991   3.149   6.468  0.5360  0.3327 -1.4514
   13SAPS    HX 1626   5.072   3.182   6.400 -0.0342  4.6790 -0.1589
   13SAPS    HY 1627   4.948   3.055   6.428  1.0057 -0.0243 -1.1232
   13SAPS   O31 1628   5.029   3.130   6.610  0.1043  0.1290 -0.3982
   13SAPS   C31 1629   5.154   3.104   6.642 -0.2380  0.1863 -0.3425
   13SAPS   O32 1630   5.249   3.121   6.567  0.6828  0.2946 -0.5135
   13SAPS   C32 1631   5.155   3.061   6.791 -0.1291 -0.8595  0.7350
   13SAPS   H2X 1632   5.147   2.950   6.787 -1.7830 -0.6832 -1.7334
   13SAPS   H2Y 1633   5.091   3.124   6.857 -1.6069  1.3501 -2.6788
   13SAPS   C23 1634   4.857   3.579   6.781 -0.8362  0.1384  0.1976
   13SAPS   H3R 1635   4.749   3.580   6.806 -0.9716 -0.0457 -0.3734
   13SAPS   H3S 1636   4.900   3.675   6.818  3.1320 -1.1836 -0.7619
   13SAPS   C24 1637   4.923   3.457   6.851 -0.0143 -0.2119  0.4910
   13SAPS   H4R 1638   4.886   3.359   6.815  0.4469 -1.5161  3.3850
   13SAPS   H4S 1639   4.882   3.462   6.954 -1.2815 -0.7201  0.0196
   13SAPS   C25 1640   5.069   3.464   6.865 -0.6786 -0.3016 -0.4331
   13SAPS   H5R 1641   5.118   3.504   6.775 -0.6037 -2.5123 -1.4071
   13SAPS   C26 1642   5.146   3.418   6.958  0.0830 -0.5852 -0.0878
   13SAPS   H6R 1643   5.255   3.425   6.947 -0.1445  2.2050 -0.8093
   13SAPS   C27 1644   5.095   3.350   7.081  0.5079 -0.0803 -0.6839
   13SAPS   H7R 1645   5.124   3.242   7.077  2.1916  0.3029  0.6688
   13SAPS   H7S 1646   4.985   3.358   7.082  0.5502  0.3710  0.4037
   13SAPS   C28 1647   5.134   3.407   7.217  0.7886  0.6477  0.5318
   13SAPS   H8R 1648   5.208   3.489   7.222 -0.5276  1.8821  0.0664
   13SAPS   C29 1649   5.078   3.350   7.330  0.4826  0.2803 -0.6740
   13SAPS   H9R 1650   5.094   3.394   7.429 -0.1791  2.8840 -1.6730
   13SAPS  C210 1651   4.985   3.236   7.337 -0.5973  0.1351  0.2692
   13SAPS  H10R 1652   4.954   3.200   7.237  0.8742 -1.6208  0.4367
   13SAPS  H10S 1653   4.896   3.263   7.398  0.9602  3.4534  1.1900
   13SAPS  C211 1654   5.055   3.121   7.408  0.7468 -0.8691 -0.9043
   13SAPS  H11R 1655   5.124   3.071   7.339  0.8875 -0.0034 -1.3978
   13SAPS  C212 1656   5.042   3.081   7.539 -0.1830  0.3502 -0.2305
   13SAPS  H12R 1657   5.097   2.991   7.569 -0.5498  0.2265  0.0875
   13SAPS  C213 1658   4.963   3.125   7.660  0.2758 -0.2762  0.1399
   13SAPS  H13R 1659   5.014   3.096   7.754 -1.5062 -0.5065  1.0548
   13SAPS  H13S 1660   4.872   3.062   7.657 -1.0070  1.4725  1.2947
   13SAPS  C214 1661   4.930   3.272   7.664  0.5189  0.3870 -0.2586
   13SAPS  H14R 1662   4.938   3.329   7.570 -0.1817  1.1441  0.1324
   13SAPS  C215 1663   4.874   3.342   7.766  0.4601  0.1872  0.3460
   13SAPS  H15R 1664   4.857   3.450   7.750 -0.0865 -0.0929 -1.0463
   13SAPS  C216 1665   4.836   3.291   7.902  1.0292  0.4045  0.3689
   13SAPS  H16R 1666   4.916   3.231   7.950 -0.6870 -1.7676  0.6430
   13SAPS  H16S 1667   4.743   3.231   7.886  0.5557  0.7214  1.8009
   13SAPS  C217 1668   4.783   3.392   8.007  0.1268 -0.7440  0.2234
   13SAPS  H17R 1669   4.707   3.457   7.958 -1.2496 -1.3151  1.5454
   13SAPS  H17S 1670   4.855   3.470   8.038 -1.9801  1.2260  0.2550
   13SAPS  C218 1671   4.722   3.322   8.128 -0.5877 -0.2016  0.6382
   13SAPS  H18R 1672   4.795   3.250   8.169 -1.1271 -1.1613 -0.0689
   13SAPS  H18S 1673   4.636   3.262   8.089 -1.1170  0.9230  0.0291
   13SAPS  C219 1674   4.676   3.415   8.240 -0.4887  0.1483 -0.1623
   13SAPS  H19R 1675   4.596   3.474   8.191  3.0430  3.8512 -1.7098
   13SAPS  H19S 1676   4.758   3.485   8.265  0.4792 -0.8473 -0.5469
   13SAPS  C220 1677   4.629   3.343   8.362 -0.2146 -0.6904  0.3110
   13SAPS  H20R 1678   4.598   3.418   8.438  0.5979 -1.4018  1.3652
   13SAPS  H20S 1679   4.701   3.271   8.408  0.7001  0.3070  0.4636
   13SAPS  H20T 1680   4.538   3.284   8.340 -0.6932 -0.1584  0.8485
   13SAPS   C33 1681   5.308   3.085   6.844 -0.7474 -0.6676 -0.0425
   13SAPS   H3X 1682   5.315   3.194   6.867  2.4868 -0.7780 -0.1913
   13SAPS   H3Y 1683   5.385   3.074   6.765  1.5223 -2.3018  2.2876
   13SAPS   C34 1684   5.343   3.012   6.976 -0.0044 -0.2363  0.7005
   13SAPS   H4X 1685   5.351   2.903   6.957  0.4512 -0.1324  0.3054
   13SAPS   H4Y 1686   5.277   3.022   7.065  0.7247  1.5026  1.0586
   13SAPS   C35 1687   5.483   3.066   7.020  0.7360  0.9373 -0.0684
   13SAPS   H5X 1688   5.475   3.174   6.998 -1.2771  0.3158 -2.5913
   13SAPS   H5Y 1689   5.553   3.018   6.948  3.9299  3.5212  1.1531
   13SAPS   C36 1690   5.515   3.031   7.170  0.1042  0.5306 -0.4565
   13SAPS   H6X 1691   5.621   3.058   7.191  0.6822  0.8719 -3.5993
   13SAPS   H6Y 1692   5.529   2.923   7.191  1.0551  1.0380  1.6398
   13SAPS   C37 1693   5.421   3.097   7.267 -0.2921  0.2075  0.3177
   13SAPS   H7X 1694   5.311   3.085   7.255  0.0473 -2.7415 -0.3203
   13SAPS   H7Y 1695   5.443   3.206   7.257 -3.3859  0.5997 -3.0524
   13SAPS   C38 1696   5.459   3.064   7.412  0.2433  0.2847  0.6815
   13SAPS   H8X 1697   5.567   3.038   7.412  0.2530  0.2763 -0.4961
   13SAPS   H8Y 1698   5.391   2.981   7.439  0.8554 -0.4717 -0.0928
   13SAPS   C39 1699   5.434   3.180   7.504  0.3174  0.1896  0.3057
   13SAPS   H9X 1700   5.327   3.207   7.493  0.0508 -0.5312  1.0535
   13SAPS   H9Y 1701   5.503   3.263   7.479 -0.5846  0.8489 -0.0094
   13SAPS  C310 1702   5.481   3.152   7.652  0.8898  0.2698 -0.3383
   13SAPS  H10X 1703   5.456   3.239   7.717 -0.3541 -1.5363  1.6861
   13SAPS  H10Y 1704   5.590   3.131   7.658  0.5382 -0.9750  2.7199
   13SAPS  C311 1705   5.401   3.031   7.704 -0.0697 -0.1158  0.5950
   13SAPS  H11X 1706   5.419   2.944   7.637 -0.5306 -1.0797  1.6933
   13SAPS  H11Y 1707   5.293   3.052   7.689  0.2619  0.4193 -1.1268
   13SAPS  C312 1708   5.440   2.996   7.849  0.7745  0.1295 -0.0161
   13SAPS  H12X 1709   5.377   2.914   7.890  0.7356  0.1266 -0.0809
   13SAPS  H12Y 1710   5.419   3.082   7.916 -1.3695 -0.3053 -0.0975
   13SAPS  C313 1711   5.584   2.954   7.863  0.3508 -0.6255  0.3305
   13SAPS  H13X 1712   5.644   3.046   7.846  0.6130 -0.6851  0.9185
   13SAPS  H13Y 1713   5.606   2.885   7.779 -1.6629  0.7183 -1.3626
   13SAPS  C314 1714   5.611   2.894   8.003 -0.2150  0.9183  0.0919
   13SAPS  H14X 1715   5.543   2.807   8.012  1.8126 -0.6368  0.8173
   13SAPS  H14Y 1716   5.591   2.965   8.086 -2.0236  0.7370 -0.1695
   13SAPS  C315 1717   5.761   2.861   8.015 -0.0958 -0.0591  0.6256
   13SAPS  H15X 1718   5.807   2.962   8.014 -1.4200  0.5361 -1.4834
   13SAPS  H15Y 1719   5.806   2.799   7.935  0.8044  2.6003 -0.9898
   13SAPS  C316 1720   5.801   2.798   8.147  0.2242 -0.7240  0.6057
   13SAPS  H16X 1721   5.734   2.711   8.162  1.9388 -2.3520 -0.8398
   13SAPS  H16Y 1722   5.788   2.867   8.232 -0.7109  0.8481 -0.7987
   13SAPS  C317 1723   5.955   2.757   8.147 -0.1120  0.1397 -0.6333
   13SAPS  H17X 1724   6.007   2.845   8.102  0.0375  0.0572 -0.6195
   13SAPS  H17Y 1725   5.977   2.679   8.072  3.3547 -1.2613  1.7038
   13SAPS  C318 1726   6.003   2.714   8.284 -0.1265 -0.5165 -0.1102
   13SAPS  H18X 1727   5.919   2.706   8.356 -0.7204 -1.1419 -0.8655
   13SAPS  H18Y 1728   6.082   2.780   8.325 -1.1687  2.3680 -2.5627
   13SAPS  H18Z 1729   6.054   2.617   8.266  3.2042  1.2540 -0.6482
   14SAPS     N 1730   4.346   5.911   5.567  0.3259 -0.2801  0.0545
   14SAPS   HN1 1731   4.323   5.887   5.468  0.9234 -2.8765  0.5239
   14SAPS   HN2 1732   4.444   5.892   5.598  0.5570 -1.3947 -1.3101
   14SAPS   HN3 1733   4.287   5.847   5.623 -0.5312 -0.6893 -1.3002
   14SAPS   C12 1734   4.307   6.048   5.595 -0.7699 -0.0044 -0.1739
   14SAPS  H12A 1735   4.321   6.103   5.504  1.4029  0.1747  0.2311
   14SAPS   C13 1736   4.155   6.060   5.625 -0.3702 -0.0805  0.0078
   14SAPS  O13A 1737   4.082   5.961   5.636 -0.1176  0.2727  0.0618
   14SAPS  O13B 1738   4.105   6.176   5.620 -0.2645  0.0772  0.1500
   14SAPS   C11 1739   4.381   6.106   5.718 -0.3516  0.3111  0.3629
   14SAPS  H11A 1740   4.338   6.065   5.811 -2.5780 -1.3021 -1.3251
   14SAPS  H11B 1741   4.354   6.214   5.715 -1.3000  0.1152  1.6379
   14SAPS     P 1742   4.632   6.164   5.803 -0.1016 -0.4883  0.1595
   14SAPS   O13 1743   4.756   6.077   5.786 -0.2288 -0.3219 -0.2459
   14SAPS   O14 1744   4.627   6.304   5.748 -0.5095 -0.4522  0.4651
   14SAPS   O12 1745   4.526   6.091   5.718  0.3509 -0.3013  0.1819
   14SAPS   O11 1746   4.579   6.156   5.950  0.0124 -0.1554  0.2194
   14SAPS    C1 1747   4.552   6.026   6.004  0.6835  0.7007 -0.7136
   14SAPS    HA 1748   4.452   5.990   5.972  0.7517 -0.5873  0.4667
   14SAPS    HB 1749   4.625   5.948   5.974  2.4980  1.1756  2.2640
   14SAPS    C2 1750   4.545   6.030   6.163 -0.4445 -0.3890 -0.8306
   14SAPS    HS 1751   4.477   6.116   6.180 -0.6921 -0.5750 -0.8726
   14SAPS   O21 1752   4.672   6.035   6.229  0.5866 -0.5209 -0.0084
   14SAPS   C21 1753   4.705   6.156   6.265 -0.1521 -0.7112 -0.2581
   14SAPS   O22 1754   4.647   6.261   6.242 -0.1550  0.3877 -0.9548
   14SAPS   C22 1755   4.843   6.140   6.330  0.3030  0.6343  0.0355
   14SAPS   H2R 1756   4.890   6.054   6.279 -1.0290 -1.0259  1.5232
   14SAPS   H2S 1757   4.899   6.231   6.299  0.2500  0.4826 -0.5091
   14SAPS    C3 1758   4.469   5.915   6.233 -0.0241  0.1117  0.1047
   14SAPS    HX 1759   4.511   5.814   6.211 -2.0071 -0.8235  0.4872
   14SAPS    HY 1760   4.373   5.904   6.178  0.0302  1.4661 -0.2809
   14SAPS   O31 1761   4.442   5.940   6.379 -0.5958  0.3104  0.4090
   14SAPS   C31 1762   4.511   5.869   6.461 -0.1315  0.7290 -0.0845
   14SAPS   O32 1763   4.580   5.775   6.430 -0.2586  0.2638 -0.6314
   14SAPS   C32 1764   4.482   5.917   6.607 -0.2159 -0.1143 -0.1162
   14SAPS   H2X 1765   4.373   5.921   6.628 -0.0734  2.5795  0.2756
   14SAPS   H2Y 1766   4.526   6.017   6.626 -2.6206  0.6611  1.6092
   14SAPS   C23 1767   4.844   6.129   6.485  0.7651  1.1637  1.1987
   14SAPS   H3R 1768   4.777   6.046   6.517  1.8303 -0.3688 -0.4143
   14SAPS   H3S 1769   4.797   6.219   6.530 -1.6442 -0.0072  1.0961
   14SAPS   C24 1770   4.988   6.116   6.549  0.3761 -0.4406  0.1264
   14SAPS   H4R 1771   4.971   6.096   6.657  0.1015 -1.0615 -0.0238
   14SAPS   H4S 1772   5.054   6.204   6.538 -0.5574  0.2725  0.1032
   14SAPS   C25 1773   5.061   6.000   6.483 -0.3028  0.3312  0.1964
   14SAPS   H5R 1774   5.060   6.000   6.373  1.9150 -1.0274  0.1398
   14SAPS   C26 1775   5.122   5.891   6.543  0.0314 -1.0604  0.3144
   14SAPS   H6R 1776   5.185   5.832   6.476 -0.3781 -1.9230  0.6742
   14SAPS   C27 1777   5.142   5.856   6.686 -0.6298  0.1636  0.7518
   14SAPS   H7R 1778   5.126   5.943   6.754  0.3215 -0.1989  1.4400
   14SAPS   H7S 1779   5.252   5.844   6.697 -0.4788  1.8887  1.3194
   14SAPS   C28 1780   5.063   5.732   6.716 -0.1076  0.5752  0.0908
   14SAPS   H8R 1781   5.033   5.676   6.626  1.3001 -1.4379  0.8385
   14SAPS   C29 1782   5.055   5.676   6.839 -0.1028 -1.0265 -0.6776
   14SAPS   H9R 1783   4.992   5.587   6.855 -2.1410  0.1549 -1.9079
   14SAPS  C210 1784   5.128   5.732   6.962 -0.0631 -0.4878 -0.3037
   14SAPS  H10R 1785   5.048   5.767   7.030  0.4181  0.3605 -0.1704
   14SAPS  H10S 1786   5.195   5.817   6.939  2.4554 -2.0080  1.1124
   14SAPS  C211 1787   5.218   5.627   7.025  0.1059 -0.1191 -0.0500
   14SAPS  H11R 1788   5.315   5.600   6.982 -1.3500 -0.8529 -2.9787
   14SAPS  C212 1789   5.190   5.557   7.134  0.0571 -0.1416  0.1591
   14SAPS  H12R 1790   5.260   5.475   7.157  1.2758  1.5274  2.6366
   14SAPS  C213 1791   5.070   5.558   7.226  0.8628  0.0659 -0.1620
   14SAPS  H13R 1792   4.982   5.603   7.175  0.8741  1.9229  1.4010
   14SAPS  H13S 1793   5.078   5.629   7.312  3.1334 -1.6051  1.0792
   14SAPS  C214 1794   5.014   5.430   7.276  0.1660  0.0979  0.1506
   14SAPS  H14R 1795   4.998   5.348   7.204 -0.7332  1.7084 -1.5264
   14SAPS  C215 1796   4.977   5.403   7.406  0.1995  0.3694  0.2814
   14SAPS  H15R 1797   4.930   5.306   7.429 -3.2381  1.9286  0.0116
   14SAPS  C216 1798   4.995   5.501   7.518  0.9323  0.1465 -1.4811
   14SAPS  H16R 1799   4.925   5.583   7.494  1.4013  1.3482  1.1020
   14SAPS  H16S 1800   5.101   5.533   7.529  0.4209  1.8683 -1.5351
   14SAPS  C217 1801   4.971   5.448   7.663  0.6761  0.1794  0.6041
   14SAPS  H17R 1802   5.038   5.362   7.685 -0.6929 -0.7193  1.2679
   14SAPS  H17S 1803   4.869   5.406   7.663  1.7195 -2.4436 -0.2683
   14SAPS  C218 1804   4.968   5.560   7.770  0.2779 -0.3230 -0.3051
   14SAPS  H18R 1805   4.922   5.519   7.862 -1.3106 -0.5877 -1.2065
   14SAPS  H18S 1806   4.892   5.633   7.734  2.2737  1.9904 -0.0250
   14SAPS  C219 1807   5.107   5.618   7.794  0.5184 -0.2514 -0.3985
   14SAPS  H19R 1808   5.086   5.686   7.879  0.8830  0.5611 -0.9529
   14SAPS  H19S 1809   5.138   5.666   7.699 -1.1743  2.0751  0.1873
   14SAPS  C220 1810   5.202   5.509   7.836 -0.6646 -0.3156  0.5183
   14SAPS  H20R 1811   5.180   5.459   7.933 -2.7382  1.5681  1.0426
   14SAPS  H20S 1812   5.306   5.548   7.842 -1.4490  2.0933 -0.8356
   14SAPS  H20T 1813   5.211   5.424   7.765  1.2998 -1.1991  1.7786
   14SAPS   C33 1814   4.551   5.822   6.711 -0.2441 -0.7475  0.6048
   14SAPS   H3X 1815   4.539   5.719   6.670 -0.2173 -1.4799  2.4205
   14SAPS   H3Y 1816   4.494   5.816   6.806  0.4519  1.0492  1.1411
   14SAPS   C34 1817   4.699   5.847   6.735 -0.1378  0.1216  0.2954
   14SAPS   H4X 1818   4.756   5.835   6.641 -0.6218 -1.1109  0.1580
   14SAPS   H4Y 1819   4.740   5.771   6.805  0.3290  0.4559  0.3878
   14SAPS   C35 1820   4.726   5.978   6.795  0.2956 -0.0371 -0.7709
   14SAPS   H5X 1821   4.661   6.058   6.754  1.1152  0.9223 -0.2417
   14SAPS   H5Y 1822   4.831   6.012   6.781  0.3836 -0.9366 -2.4023
   14SAPS   C36 1823   4.703   5.990   6.951 -0.9628 -0.0884  0.5914
   14SAPS   H6X 1824   4.765   6.076   6.982 -1.0160 -0.6456  2.3061
   14SAPS   H6Y 1825   4.735   5.893   6.995 -0.4413 -0.4935 -0.6767
   14SAPS   C37 1826   4.565   6.021   6.997  0.3660 -0.2777  0.6743
   14SAPS   H7X 1827   4.508   5.933   7.033 -0.5875  0.0974  0.0926
   14SAPS   H7Y 1828   4.505   6.055   6.910  0.4314 -0.3794  0.5901
   14SAPS   C38 1829   4.549   6.144   7.095  0.5318  0.8782  0.4638
   14SAPS   H8X 1830   4.586   6.235   7.044 -3.2104  0.9248 -2.3885
   14SAPS   H8Y 1831   4.624   6.117   7.173 -0.3054 -0.1176  0.9426
   14SAPS   C39 1832   4.413   6.177   7.160 -0.7377 -0.4391  0.1691
   14SAPS   H9X 1833   4.341   6.206   7.080 -1.2293 -1.4320  0.2527
   14SAPS   H9Y 1834   4.433   6.270   7.217  1.7095 -0.1453 -1.0865
   14SAPS  C310 1835   4.346   6.078   7.263 -0.7112 -0.4367  0.6234
   14SAPS  H10X 1836   4.319   5.986   7.206  1.4501  0.5201 -2.0237
   14SAPS  H10Y 1837   4.256   6.133   7.297  0.4333  2.4884 -0.9492
   14SAPS  C311 1838   4.422   6.039   7.388  0.0317  0.2588 -0.1398
   14SAPS  H11X 1839   4.520   5.999   7.356 -0.0523 -0.5067  0.5520
   14SAPS  H11Y 1840   4.380   5.952   7.443 -3.9101  1.4964 -1.0082
   14SAPS  C312 1841   4.415   6.148   7.492 -0.4167  0.2995  0.1702
   14SAPS  H12X 1842   4.310   6.170   7.520 -1.0782 -1.1832 -1.0695
   14SAPS  H12Y 1843   4.465   6.238   7.450  1.4606 -0.6566  0.3040
   14SAPS  C313 1844   4.491   6.119   7.620  0.0396  0.1519 -0.2307
   14SAPS  H13X 1845   4.587   6.173   7.622 -0.1603  0.4842  0.4152
   14SAPS  H13Y 1846   4.514   6.011   7.634 -1.7899 -0.4443 -1.5202
   14SAPS  C314 1847   4.413   6.172   7.745  0.0037 -0.3862  0.5698
   14SAPS  H14X 1848   4.303   6.165   7.733  0.2235 -0.1533 -1.6877
   14SAPS  H14Y 1849   4.434   6.281   7.743  1.2608 -0.6329 -1.6763
   14SAPS  C315 1850   4.463   6.116   7.877 -0.1008 -0.3601  0.5855
   14SAPS  H15X 1851   4.574   6.114   7.880 -0.0925 -3.0111  0.1700
   14SAPS  H15Y 1852   4.423   6.012   7.878 -0.5378 -0.1983  0.3879
   14SAPS  C316 1853   4.413   6.183   7.999  0.6385  0.5443  0.3107
   14SAPS  H16X 1854   4.310   6.146   8.022  0.2599  1.0286 -0.5913
   14SAPS  H16Y 1855   4.404   6.293   7.983  0.0715  0.0115 -3.4025
   14SAPS  C317 1856   4.503   6.168   8.120  0.9284 -0.1853  0.5221
   14SAPS  H17X 1857   4.440   6.199   8.206  0.1859 -0.3485  0.0390
   14SAPS  H17Y 1858   4.593   6.231   8.103  0.4378  0.4503  0.2455
   14SAPS  C318 1859   4.561   6.028   8.127 -0.3163  0.7798 -0.0559
   14SAPS  H18X 1860   4.626   6.011   8.038 -2.0163  0.4317 -1.2630
   14SAPS  H18Y 1861   4.477   5.956   8.113  1.6289 -1.2246 -1.7421
   14SAPS  H18Z 1862   4.620   6.019   8.220  0.8414 -2.4995 -1.0246
   15SAPS     N 1863   4.899   4.268   5.861 -0.0479 -0.0282 -0.2547
   15SAPS   HN1 1864   4.905   4.188   5.795  1.9457  0.2484 -0.4604
   15SAPS   HN2 1865   4.883   4.219   5.951 -0.9588  2.9047  1.2201
   15SAPS   HN3 1866   4.817   4.328   5.838  0.7878  1.0202 -0.5449
   15SAPS   C12 1867   5.029   4.340   5.846 -0.1201  0.1280 -0.6865
   15SAPS  H12A 1868   5.113   4.275   5.867 -0.8451 -0.4725  0.3667
   15SAPS   C13 1869   5.055   4.372   5.695  0.0905  0.4328  0.2804
   15SAPS  O13A 1870   4.965   4.351   5.607 -1.0987  0.3197  0.0876
   15SAPS  O13B 1871   5.164   4.423   5.666  0.4082 -0.4346 -0.1091
   15SAPS   C11 1872   5.040   4.471   5.926  0.2295 -0.2288  0.0967
   15SAPS  H11A 1873   5.139   4.516   5.907 -0.2968  0.3575 -1.3193
   15SAPS  H11B 1874   5.037   4.434   6.031 -0.2006 -2.3778 -0.6303
   15SAPS     P 1875   4.845   4.621   6.002  0.1690  0.1847  0.1118
   15SAPS   O13 1876   4.814   4.760   5.966 -0.3431 -0.0148 -0.2534
   15SAPS   O14 1877   4.729   4.524   6.013  0.2997 -0.6444  0.2969
   15SAPS   O12 1878   4.940   4.560   5.886  0.1905 -0.6385 -0.0821
   15SAPS   O11 1879   4.919   4.612   6.141  0.1113 -0.0994 -0.6539
   15SAPS    C1 1880   4.843   4.569   6.259  0.2294 -0.0097  0.8398
   15SAPS    HA 1881   4.775   4.485   6.239  0.9834 -1.0347  2.4626
   15SAPS    HB 1882   4.914   4.510   6.321  0.2282 -2.8510 -1.7412
   15SAPS    C2 1883   4.765   4.689   6.320  0.3091 -0.5023  0.0637
   15SAPS    HS 1884   4.674   4.695   6.256  1.8000 -2.4021 -2.2892
   15SAPS   O21 1885   4.839   4.809   6.329 -0.2840  0.2018  0.2256
   15SAPS   C21 1886   4.758   4.910   6.329  0.2000  0.7802  0.3794
   15SAPS   O22 1887   4.636   4.910   6.300 -0.3969  0.5425  0.2107
   15SAPS   C22 1888   4.839   5.035   6.395 -0.0818  0.0785  0.5674
   15SAPS   H2R 1889   4.848   5.017   6.504  2.0242  2.2326  0.7898
   15SAPS   H2S 1890   4.941   5.038   6.351  0.0470  0.8309  0.9144
   15SAPS    C3 1891   4.732   4.656   6.467  0.5244  0.6131  0.1195
   15SAPS    HX 1892   4.826   4.637   6.525 -1.3396  1.4879  3.5838
   15SAPS    HY 1893   4.675   4.561   6.472 -1.4464  1.4745 -4.2050
   15SAPS   O31 1894   4.663   4.757   6.540  0.7087 -0.0069 -0.4190
   15SAPS   C31 1895   4.529   4.750   6.534  1.2692 -0.1175  0.0764
   15SAPS   O32 1896   4.465   4.679   6.455  0.0278 -0.5353  0.5190
   15SAPS   C32 1897   4.459   4.860   6.625 -0.6278  0.4055 -0.6277
   15SAPS   H2X 1898   4.367   4.806   6.654  0.2128  0.8434  3.1704
   15SAPS   H2Y 1899   4.436   4.951   6.565 -0.6393  0.0132 -1.2153
   15SAPS   C23 1900   4.782   5.175   6.357  0.2447  0.4380  0.2076
   15SAPS   H3R 1901   4.671   5.170   6.350  0.3172 -0.2105 -0.5477
   15SAPS   H3S 1902   4.828   5.196   6.258  0.5361 -1.9028 -0.1787
   15SAPS   C24 1903   4.808   5.296   6.457 -0.6354  0.6137 -0.0622
   15SAPS   H4R 1904   4.791   5.259   6.560  0.4430  1.7249  0.5375
   15SAPS   H4S 1905   4.741   5.383   6.438 -1.4494  0.2345  1.0717
   15SAPS   C25 1906   4.959   5.335   6.454 -0.6569  0.2687  0.1821
   15SAPS   H5R 1907   5.001   5.368   6.358  0.7073  1.1495  1.0624
   15SAPS   C26 1908   5.035   5.333   6.570  0.4662 -0.6243  0.2726
   15SAPS   H6R 1909   5.142   5.354   6.554  0.9244 -1.7670  1.7740
   15SAPS   C27 1910   5.001   5.311   6.711  0.0045 -0.7162  0.5790
   15SAPS   H7R 1911   4.901   5.359   6.724  0.7611  0.3675  2.6645
   15SAPS   H7S 1912   5.080   5.368   6.765  0.2516  0.5467 -1.0673
   15SAPS   C28 1913   4.990   5.169   6.760  0.1645 -0.1708  0.1874
   15SAPS   H8R 1914   4.956   5.098   6.683  0.2891 -0.1303  0.0932
   15SAPS   C29 1915   5.012   5.126   6.881 -0.5701  0.8494 -0.5884
   15SAPS   H9R 1916   4.997   5.018   6.897  2.1462  0.5313  0.0901
   15SAPS  C210 1917   5.060   5.208   6.997  0.0530  0.2482  0.2687
   15SAPS  H10R 1918   5.012   5.164   7.088  0.3042  3.6501  2.1169
   15SAPS  H10S 1919   5.034   5.315   6.986 -1.2353  0.0524  1.2285
   15SAPS  C211 1920   5.211   5.218   7.010 -0.4632 -0.6466 -0.4369
   15SAPS  H11R 1921   5.267   5.282   6.940  0.3578 -1.0487 -0.1612
   15SAPS  C212 1922   5.290   5.164   7.110  0.0729 -0.1461  0.0267
   15SAPS  H12R 1923   5.396   5.192   7.113 -0.4011  1.6899  0.7005
   15SAPS  C213 1924   5.238   5.064   7.207  0.8141 -0.4202  0.0896
   15SAPS  H13R 1925   5.320   4.989   7.216 -0.6099 -2.0697 -0.5072
   15SAPS  H13S 1926   5.156   5.005   7.161 -0.8055 -1.9609  4.7055
   15SAPS  C214 1927   5.204   5.126   7.336 -0.1131 -0.9787 -0.1938
   15SAPS  H14R 1928   5.148   5.219   7.318 -0.1420 -0.3955  2.6131
   15SAPS  C215 1929   5.225   5.077   7.456 -0.2537 -0.8813 -0.2884
   15SAPS  H15R 1930   5.183   5.132   7.542  1.4003 -1.5499  0.9574
   15SAPS  C216 1931   5.292   4.949   7.490  0.2014  0.1927 -0.9695
   15SAPS  H16R 1932   5.394   4.971   7.527 -0.9092  2.1010  1.0735
   15SAPS  H16S 1933   5.299   4.881   7.403 -2.6359  1.4983 -2.2824
   15SAPS  C217 1934   5.233   4.880   7.623  0.0263 -0.2100 -0.6216
   15SAPS  H17R 1935   5.294   4.788   7.633 -1.2580 -0.9141  0.9277
   15SAPS  H17S 1936   5.134   4.831   7.610  0.8115 -1.7503 -0.8758
   15SAPS  C218 1937   5.230   4.969   7.754  0.1580  0.2593 -0.1958
   15SAPS  H18R 1938   5.140   5.033   7.766 -0.4718 -0.8121  0.9337
   15SAPS  H18S 1939   5.329   5.018   7.753  0.4543 -0.3419 -0.7787
   15SAPS  C219 1940   5.220   4.877   7.878  0.2640 -0.0275  0.4639
   15SAPS  H19R 1941   5.262   4.934   7.964  2.1835  0.5932 -0.8700
   15SAPS  H19S 1942   5.284   4.788   7.863 -0.1477 -0.0199 -1.4411
   15SAPS  C220 1943   5.082   4.821   7.912  0.3819  0.7346  0.3547
   15SAPS  H20R 1944   5.086   4.775   8.013 -0.6398  1.6101  0.8026
   15SAPS  H20S 1945   5.041   4.751   7.836  1.7315  1.9250 -1.5268
   15SAPS  H20T 1946   5.009   4.904   7.923  1.1899  1.3345  1.2892
   15SAPS   C33 1947   4.539   4.909   6.754 -0.2882 -0.4428 -0.6602
   15SAPS   H3X 1948   4.629   4.965   6.719 -1.8008  2.8154  0.3917
   15SAPS   H3Y 1949   4.571   4.821   6.813 -1.1278  0.4537  1.1825
   15SAPS   C34 1950   4.459   5.008   6.842  0.4072  0.4988 -0.2224
   15SAPS   H4X 1951   4.364   4.959   6.872  0.1095  1.1115 -0.1706
   15SAPS   H4Y 1952   4.437   5.104   6.791 -0.2554  0.2852 -0.3399
   15SAPS   C35 1953   4.511   5.040   6.992 -0.7217  0.0040  0.2880
   15SAPS   H5X 1954   4.589   5.119   6.988 -0.7740  0.0145 -0.8058
   15SAPS   H5Y 1955   4.561   4.950   7.033  1.3233 -0.0015 -2.0560
   15SAPS   C36 1956   4.397   5.083   7.095 -0.4945 -0.2400  0.5110
   15SAPS   H6X 1957   4.335   4.999   7.132 -0.8009  0.4661  1.6039
   15SAPS   H6Y 1958   4.337   5.156   7.037  1.6935  0.7609 -0.5562
   15SAPS   C37 1959   4.461   5.150   7.222 -0.5117  0.2280  0.1081
   15SAPS   H7X 1960   4.526   5.232   7.186  0.4876 -2.0134 -3.5481
   15SAPS   H7Y 1961   4.539   5.078   7.254 -2.0008 -1.6510 -0.3327
   15SAPS   C38 1962   4.358   5.178   7.330  0.7721  0.6518 -0.1637
   15SAPS   H8X 1963   4.308   5.084   7.363 -0.3335  2.2644  2.9833
   15SAPS   H8Y 1964   4.278   5.245   7.293  1.4489  0.1894 -2.5450
   15SAPS   C39 1965   4.432   5.253   7.446 -0.0191  0.1168  0.3332
   15SAPS   H9X 1966   4.455   5.355   7.409 -0.4163 -0.1609 -0.7302
   15SAPS   H9Y 1967   4.529   5.199   7.454  1.5410  2.9430  1.1042
   15SAPS  C310 1968   4.350   5.253   7.570  0.5300  0.3881  0.4832
   15SAPS  H10X 1969   4.394   5.337   7.628 -0.2969  0.8748  0.4084
   15SAPS  H10Y 1970   4.383   5.160   7.622 -1.1444 -0.2928  0.3771
   15SAPS  C311 1971   4.202   5.279   7.564 -0.1816  0.3844  0.6568
   15SAPS  H11X 1972   4.141   5.213   7.499  0.8747 -0.1346  0.1707
   15SAPS  H11Y 1973   4.187   5.380   7.521  0.4100  0.6159  0.9845
   15SAPS  C312 1974   4.131   5.255   7.701  0.8273  0.0293 -1.0162
   15SAPS  H12X 1975   4.156   5.150   7.731  2.4818  0.5653 -0.4664
   15SAPS  H12Y 1976   4.023   5.253   7.677  0.6433 -1.9849 -0.1767
   15SAPS  C313 1977   4.156   5.360   7.804 -0.7843  0.9046 -0.4965
   15SAPS  H13X 1978   4.105   5.455   7.776  2.0292  2.3045 -1.0028
   15SAPS  H13Y 1979   4.265   5.375   7.815 -0.5888 -0.7217 -0.1094
   15SAPS  C314 1980   4.087   5.334   7.946 -0.2493  0.5605  1.0800
   15SAPS  H14X 1981   4.035   5.238   7.926  0.7305  0.5365 -1.6350
   15SAPS  H14Y 1982   4.015   5.417   7.958  1.7496  2.3270  1.1647
   15SAPS  C315 1983   4.192   5.339   8.051 -0.2229  0.0094 -0.3310
   15SAPS  H15X 1984   4.225   5.444   8.063 -1.2796  0.3476 -0.3660
   15SAPS  H15Y 1985   4.285   5.280   8.033  0.1115  0.4582 -0.1161
   15SAPS  C316 1986   4.128   5.293   8.183 -0.0197  0.3943  0.2573
   15SAPS  H16X 1987   4.110   5.183   8.181  1.6848  0.1230 -1.8049
   15SAPS  H16Y 1988   4.033   5.349   8.195 -1.2528 -1.5668 -0.0637
   15SAPS  C317 1989   4.221   5.317   8.306 -0.2450 -0.2587  0.1881
   15SAPS  H17X 1990   4.264   5.420   8.310 -1.4857  0.2083  2.1983
   15SAPS  H17Y 1991   4.304   5.243   8.297  1.1449  1.2916  0.0242
   15SAPS  C318 1992   4.153   5.301   8.442 -0.3228 -0.8609 -0.9432
   15SAPS  H18X 1993   4.225   5.342   8.517 -0.3951 -2.4234 -0.0039
   15SAPS  H18Y 1994   4.118   5.197   8.460 -0.0376 -0.4995  2.0789
   15SAPS  H18Z 1995   4.058   5.357   8.449  1.0972  1.3772  1.5503
   16SAPS     N 1996   0.258   6.605   6.389  0.3149  0.5589 -0.4458
   16SAPS   HN1 1997   0.182   6.565   6.448  0.7048  0.5372  0.0495
   16SAPS   HN2 1998   0.240   6.568   6.294  0.5132 -1.1267  0.1457
   16SAPS   HN3 1999   0.351   6.582   6.430  0.0271  2.3887  1.3240
   16SAPS   C12 2000   0.229   6.750   6.381 -0.4433  0.3167 -0.1753
   16SAPS  H12A 2001   0.314   6.789   6.326 -1.0740 -0.0126 -1.3822
   16SAPS   C13 2002   0.102   6.790   6.307 -0.9149  1.1349  0.2716
   16SAPS  O13A 2003   0.027   6.696   6.257  0.4357 -0.1461 -0.0799
   16SAPS  O13B 2004   0.090   6.912   6.272 -0.2286 -0.1432  0.6530
   16SAPS   C11 2005   0.226   6.811   6.528  0.2881  0.2798 -0.2304
   16SAPS  H11A 2006   0.129   6.787   6.575 -0.3070  2.7496 -0.1275
   16SAPS  H11B 2007   0.233   6.920   6.511  1.5714  0.3776  0.8673
   16SAPS     P 2008   0.467   6.826   6.621  0.4332  0.1107  0.3639
   16SAPS   O13 2009   0.571   6.728   6.645  0.1920  0.9380  0.1294
   16SAPS   O14 2010   0.476   6.917   6.504 -0.4884  0.1221  0.1357
   16SAPS   O12 2011   0.326   6.753   6.615 -0.1869 -0.2909  0.4706
   16SAPS   O11 2012   0.451   6.909   6.756  0.1900 -0.8202 -0.1966
   16SAPS    C1 2013   0.392   6.842   6.868 -0.7263 -0.3816  0.3606
   16SAPS    HA 2014   0.413   6.733   6.872 -0.7255 -0.4496 -1.4327
   16SAPS    HB 2015   0.449   6.882   6.955  0.3266 -3.7341  1.2938
   16SAPS    C2 2016   0.235   6.876   6.878 -0.4223  0.6220  0.0511
   16SAPS    HS 2017   0.193   6.908   6.780 -0.0645  0.4972 -0.1436
   16SAPS   O21 2018   0.215   6.976   6.973 -0.1659 -0.4378  0.0332
   16SAPS   C21 2019   0.266   7.101   6.954  0.0572  0.3832  0.0167
   16SAPS   O22 2020   0.323   7.139   6.858  0.6412  0.0531 -0.0101
   16SAPS   C22 2021   0.240   7.180   7.085 -0.3392 -0.2192  0.3102
   16SAPS   H2R 2022   0.326   7.251   7.096 -1.2110  0.7824  0.7580
   16SAPS   H2S 2023   0.145   7.238   7.080  0.8919  1.7874 -0.7603
   16SAPS    C3 2024   0.148   6.746   6.908 -0.1140  0.1301 -0.4035
   16SAPS    HX 2025   0.179   6.670   6.832  1.6206  1.0026 -0.6037
   16SAPS    HY 2026   0.040   6.766   6.894 -0.5718 -2.5773 -1.0732
   16SAPS   O31 2027   0.174   6.676   7.036 -0.5069 -0.5973  0.2517
   16SAPS   C31 2028   0.115   6.723   7.143  0.7012  0.5953  0.0410
   16SAPS   O32 2029   0.024   6.805   7.145  0.3011  0.2962  0.1261
   16SAPS   C32 2030   0.180   6.669   7.275  0.7475  0.4789 -0.0901
   16SAPS   H2X 2031   0.290   6.662   7.268  0.7975  1.6936 -0.6376
   16SAPS   H2Y 2032   0.154   6.561   7.282 -1.6339  0.9536 -0.8552
   16SAPS   C23 2033   0.238   7.096   7.223 -0.8116 -0.4747  0.0489
   16SAPS   H3R 2034   0.336   7.043   7.221 -1.1174 -1.0575  0.4097
   16SAPS   H3S 2035   0.151   7.027   7.224 -1.6251  0.5317 -1.0194
   16SAPS   C24 2036   0.231   7.203   7.332 -0.7021 -0.1145  0.0396
   16SAPS   H4R 2037   0.147   7.272   7.311 -1.3159 -1.2498 -1.3239
   16SAPS   H4S 2038   0.327   7.258   7.318 -0.1828 -1.2200 -0.7476
   16SAPS   C25 2039   0.228   7.142   7.470 -0.4755  0.2084  0.0820
   16SAPS   H5R 2040   0.181   7.043   7.477 -0.3073  0.1817  0.8458
   16SAPS   C26 2041   0.284   7.186   7.586  0.5135 -0.0641 -0.0628
   16SAPS   H6R 2042   0.264   7.121   7.673 -0.8882  0.1215 -0.2317
   16SAPS   C27 2043   0.374   7.306   7.616 -0.8105 -0.0696  0.1981
   16SAPS   H7R 2044   0.358   7.384   7.538  1.5065 -0.9099 -1.1668
   16SAPS   H7S 2045   0.480   7.281   7.593 -0.8804  2.8371 -3.9370
   16SAPS   C28 2046   0.374   7.354   7.764 -0.0023 -0.2040  0.5542
   16SAPS   H8R 2047   0.364   7.278   7.843 -0.0748  1.0973  1.8187
   16SAPS   C29 2048   0.393   7.482   7.797 -0.0993 -0.6591  0.2630
   16SAPS   H9R 2049   0.376   7.496   7.904  0.7157 -1.4734  0.5035
   16SAPS  C210 2050   0.428   7.597   7.697 -0.5454  0.4144  0.0602
   16SAPS  H10R 2051   0.334   7.625   7.644  0.8338 -0.9145 -3.2199
   16SAPS  H10S 2052   0.495   7.558   7.617 -0.6719 -0.9528  0.6160
   16SAPS  C211 2053   0.487   7.710   7.783  0.2094  1.0812 -0.3363
   16SAPS  H11R 2054   0.437   7.731   7.879 -0.1152  1.7818 -0.6519
   16SAPS  C212 2055   0.597   7.775   7.750  0.4935  0.0231  0.5175
   16SAPS  H12R 2056   0.635   7.853   7.818 -0.5186  1.0348 -0.0569
   16SAPS  C213 2057   0.695   7.765   7.636 -0.1826 -0.5302  1.0276
   16SAPS  H13R 2058   0.765   7.850   7.652 -1.6641  0.7012  1.1308
   16SAPS  H13S 2059   0.641   7.804   7.547 -0.7258 -0.6676  1.2951
   16SAPS  C214 2060   0.765   7.628   7.626 -0.6133 -0.5417  0.3934
   16SAPS  H14R 2061   0.781   7.576   7.721  1.0003 -1.7075 -0.4836
   16SAPS  C215 2062   0.811   7.573   7.507 -0.7239 -0.3118 -0.3501
   16SAPS  H15R 2063   0.853   7.473   7.524  2.9249  1.0030 -1.0452
   16SAPS  C216 2064   0.806   7.607   7.356  0.5213  0.1793  0.0451
   16SAPS  H16R 2065   0.908   7.588   7.315 -0.3555 -1.7906 -1.2904
   16SAPS  H16S 2066   0.779   7.714   7.345 -1.3619 -0.2309  0.6015
   16SAPS  C217 2067   0.703   7.519   7.279 -0.0944 -0.0896 -0.0881
   16SAPS  H17R 2068   0.713   7.550   7.173  2.5001 -0.8538 -0.1089
   16SAPS  H17S 2069   0.599   7.536   7.314 -0.0460 -1.2691  0.6735
   16SAPS  C218 2070   0.719   7.363   7.277 -0.7080  0.7946  0.4751
   16SAPS  H18R 2071   0.676   7.331   7.374  0.3766 -0.4217  0.5735
   16SAPS  H18S 2072   0.827   7.336   7.275 -1.1503 -0.9689 -0.3786
   16SAPS  C219 2073   0.658   7.299   7.155  0.0770 -0.7184 -0.1980
   16SAPS  H19R 2074   0.674   7.352   7.059 -0.1374  0.5396  0.4600
   16SAPS  H19S 2075   0.548   7.303   7.173 -0.1921  2.0811 -2.2883
   16SAPS  C220 2076   0.685   7.151   7.143 -0.8085 -0.7266 -0.1691
   16SAPS  H20R 2077   0.670   7.107   7.243  1.0920  0.3719  0.6274
   16SAPS  H20S 2078   0.793   7.145   7.115 -0.5471 -1.7337  1.0114
   16SAPS  H20T 2079   0.626   7.099   7.064  0.5783 -1.0591 -1.0261
   16SAPS   C33 2080   0.146   6.745   7.405  0.1386  0.3826 -0.2530
   16SAPS   H3X 2081   0.036   6.763   7.414 -0.2207 -1.7603 -0.0761
   16SAPS   H3Y 2082   0.198   6.842   7.392  0.8797 -0.3178 -2.9367
   16SAPS   C34 2083   0.202   6.680   7.525  0.7326 -0.0251  0.2033
   16SAPS   H4X 2084   0.311   6.659   7.518  0.8352  0.6362 -0.1954
   16SAPS   H4Y 2085   0.164   6.576   7.533 -0.9143  0.5601  0.0089
   16SAPS   C35 2086   0.157   6.753   7.658 -0.1395  0.2305  1.0176
   16SAPS   H5X 2087   0.047   6.756   7.669 -0.2730 -1.3669  0.2558
   16SAPS   H5Y 2088   0.191   6.857   7.636 -1.4722  0.0541 -2.2472
   16SAPS   C36 2089   0.228   6.701   7.789 -0.6351  0.1282 -0.4142
   16SAPS   H6X 2090   0.338   6.687   7.789 -0.7303 -0.6349  0.1313
   16SAPS   H6Y 2091   0.190   6.600   7.813  0.5680 -1.0380 -3.2042
   16SAPS   C37 2092   0.199   6.785   7.908  0.5119  0.3018 -0.1122
   16SAPS   H7X 2093   0.093   6.810   7.928  0.5081 -0.5225  0.9711
   16SAPS   H7Y 2094   0.241   6.883   7.876  0.9992 -0.1234 -0.7822
   16SAPS   C38 2095   0.258   6.726   8.039  0.1406 -0.2242  0.0295
   16SAPS   H8X 2096   0.349   6.668   8.011  0.9546  0.5646  1.0010
   16SAPS   H8Y 2097   0.187   6.647   8.071 -0.2047  0.6103  1.3546
   16SAPS   C39 2098   0.289   6.836   8.134  0.5525 -0.0391 -0.6815
   16SAPS   H9X 2099   0.201   6.901   8.150  0.9958 -0.2367  3.0848
   16SAPS   H9Y 2100   0.361   6.894   8.073  1.8547 -1.9066 -0.9923
   16SAPS  C310 2101   0.353   6.790   8.260 -0.3631 -0.3049 -0.5178
   16SAPS  H10X 2102   0.397   6.873   8.320 -1.4907 -1.0275  1.3657
   16SAPS  H10Y 2103   0.441   6.729   8.232 -0.5552 -1.3215  1.0119
   16SAPS  C311 2104   0.259   6.713   8.364 -1.0027 -0.6657  0.4097
   16SAPS  H11X 2105   0.203   6.625   8.326 -1.2591 -0.1788 -0.3424
   16SAPS  H11Y 2106   0.186   6.787   8.405  0.0000 -0.6066  2.1600
   16SAPS  C312 2107   0.358   6.662   8.473  0.3504  0.1342  0.2591
   16SAPS  H12X 2108   0.417   6.739   8.527  0.3488 -0.0763  0.5660
   16SAPS  H12Y 2109   0.432   6.593   8.429  1.7946  2.4189 -0.9797
   16SAPS  C313 2110   0.281   6.573   8.579  0.4116 -0.0647 -0.6765
   16SAPS  H13X 2111   0.214   6.500   8.527  0.5041  0.5597 -1.6920
   16SAPS  H13Y 2112   0.214   6.637   8.641 -0.2954 -1.8333  0.4198
   16SAPS  C314 2113   0.373   6.490   8.671  0.3178  0.3995  0.1763
   16SAPS  H14X 2114   0.458   6.550   8.709  0.3323 -0.1632  1.0446
   16SAPS  H14Y 2115   0.411   6.412   8.602  1.0876 -0.2616  1.3409
   16SAPS  C315 2116   0.309   6.413   8.791  0.1106  0.3589  0.1558
   16SAPS  H15X 2117   0.382   6.336   8.826  0.9167  0.6020 -0.9477
   16SAPS  H15Y 2118   0.223   6.354   8.752 -0.8423 -0.3650  3.2094
   16SAPS  C316 2119   0.273   6.507   8.906  0.8243  0.5635  0.3145
   16SAPS  H16X 2120   0.181   6.567   8.887  0.3575 -0.2545 -0.0484
   16SAPS  H16Y 2121   0.357   6.578   8.918  2.4817 -0.6891 -3.0366
   16SAPS  C317 2122   0.247   6.418   9.027 -0.7671  0.0408  0.8549
   16SAPS  H17X 2123   0.312   6.330   9.044  0.7590  0.6595 -1.6502
   16SAPS  H17Y 2124   0.141   6.385   9.017 -0.3751 -1.5199  1.7713
   16SAPS  C318 2125   0.244   6.509   9.153 -0.3489  0.3052  0.2638
   16SAPS  H18X 2126   0.141   6.551   9.154 -1.3825 -2.1048  0.8513
   16SAPS  H18Y 2127   0.321   6.587   9.138  0.0698 -0.5885 -2.6680
   16SAPS  H18Z 2128   0.253   6.440   9.239  0.6610 -0.8113 -0.7195
   17SAPC     N 2129   5.723   3.774  10.539  0.3790  0.4344 -0.3058
   17SAPC   C12 2130   5.671   3.677  10.434 -0.0692  0.1784  0.0865
   17SAPC  H12A 2131   5.733   3.691  10.347  0.1103 -1.1528 -0.0108
   17SAPC  H12B 2132   5.576   3.719  10.404  0.8875  0.1631 -3.1500
   17SAPC   C13 2133   5.864   3.723  10.563 -0.4053 -0.3983  0.0094
   17SAPC  H13A 2134   5.864   3.625  10.609 -1.0189  0.0096  0.8841
   17SAPC  H13B 2135   5.911   3.722  10.465  1.8956  0.5133  1.0601
   17SAPC  H13C 2136   5.914   3.799  10.622 -2.3354 -0.0490  1.2153
   17SAPC   C14 2137   5.737   3.911  10.477  1.0363  0.8961 -0.9062
   17SAPC  H14A 2138   5.794   3.912  10.386  0.4767  1.9184 -1.2559
   17SAPC  H14B 2139   5.637   3.948  10.454  1.4266  1.6835 -1.3689
   17SAPC  H14C 2140   5.785   3.980  10.546  1.8271  1.1080 -1.6673
   17SAPC   C15 2141   5.648   3.781  10.660  0.3623  0.1182 -0.7195
   17SAPC  H15A 2142   5.541   3.788  10.642  0.2018  1.3230  0.5933
   17SAPC  H15B 2143   5.667   3.694  10.720 -0.3499  0.4932  0.0695
   17SAPC  H15C 2144   5.667   3.871  10.716  0.7776  0.8381 -1.9796
   17SAPC   C11 2145   5.667   3.519  10.465  0.2038 -0.8450 -0.4585
   17SAPC  H11A 2146   5.604   3.464  10.392  0.2125 -0.9715 -0.3707
   17SAPC  H11B 2147   5.626   3.503  10.567  1.8317 -0.6446  0.2497
   17SAPC     P 2148   5.889   3.467  10.335  0.0426  0.1997  0.2941
   17SAPC   O13 2149   5.907   3.595  10.266 -0.6017  0.3722  0.3538
   17SAPC   O14 2150   6.019   3.401  10.367  0.4057  0.0877 -0.0949
   17SAPC   O12 2151   5.802   3.474  10.465  0.4430 -0.2820  0.0211
   17SAPC   O11 2152   5.810   3.372  10.238  0.3429  0.1388 -0.0967
   17SAPC    C1 2153   5.754   3.244  10.276  0.0064 -0.0073 -0.0233
   17SAPC    HA 2154   5.830   3.175  10.318 -0.6803 -1.3586 -0.9552
   17SAPC    HB 2155   5.686   3.247  10.365  0.0524 -0.1117  0.0168
   17SAPC    C2 2156   5.698   3.168  10.153 -0.1172 -0.1176 -0.5177
   17SAPC    HS 2157   5.667   3.064  10.179  1.9198 -0.8275 -0.8346
   17SAPC   O21 2158   5.805   3.161  10.054 -0.4902  0.2194 -0.2302
   17SAPC   C21 2159   5.896   3.072  10.079 -0.1732 -0.0984 -0.2855
   17SAPC   O22 2160   5.902   3.000  10.179  0.5853  0.0215  0.0325
   17SAPC   C22 2161   5.996   3.067   9.969 -0.2598 -0.3815  0.1183
   17SAPC   H2R 2162   5.932   3.064   9.878  1.0194 -1.3852 -0.7474
   17SAPC   H2S 2163   6.048   3.165   9.963 -2.1604  0.5416 -2.5989
   17SAPC    C3 2164   5.572   3.233  10.104  0.4823  0.0253  0.0408
   17SAPC    HX 2165   5.580   3.342  10.087  2.5543 -0.3954 -1.8167
   17SAPC    HY 2166   5.498   3.230  10.188  1.0320  4.6335  0.8184
   17SAPC   O31 2167   5.530   3.156   9.994  0.3432  0.2881 -0.2113
   17SAPC   C31 2168   5.423   3.191   9.934  0.1640  0.0857 -0.2196
   17SAPC   O32 2169   5.339   3.269   9.975 -0.2671  0.2367  0.3002
   17SAPC   C32 2170   5.406   3.131   9.794 -0.0216  0.8064 -0.5932
   17SAPC   H2X 2171   5.362   3.029   9.807  0.4971  0.9201  2.4874
   17SAPC   H2Y 2172   5.503   3.120   9.742 -0.8308  0.7170 -2.1193
   17SAPC   C23 2173   6.099   2.959   9.965  0.1240 -0.1247 -0.4390
   17SAPC   H3R 2174   6.048   2.861   9.951  0.1400 -0.9322  4.2863
   17SAPC   H3S 2175   6.143   2.952  10.067  1.9114  1.3016 -1.0830
   17SAPC   C24 2176   6.220   2.986   9.872 -0.7943  0.7247  0.4073
   17SAPC   H4R 2177   6.306   2.926   9.907 -1.1639 -0.2369 -0.3180
   17SAPC   H4S 2178   6.238   3.093   9.896 -1.3409 -0.0156  4.4997
   17SAPC   C25 2179   6.191   2.974   9.728 -0.1075  0.7255  0.2229
   17SAPC   H5R 2180   6.108   3.039   9.696  0.7148  2.0692  0.7841
   17SAPC   C26 2181   6.241   2.893   9.637 -1.3153  0.0100  0.1351
   17SAPC   H6R 2182   6.207   2.894   9.533 -1.4942 -2.9843  0.1101
   17SAPC   C27 2183   6.352   2.797   9.667 -0.2100  0.2042 -0.1097
   17SAPC   H7R 2184   6.316   2.715   9.732 -2.1605  0.3306 -1.0053
   17SAPC   H7S 2185   6.432   2.835   9.734  0.0860 -0.8510  0.1395
   17SAPC   C28 2186   6.416   2.734   9.540  0.6203 -0.3182  0.2850
   17SAPC   H8R 2187   6.497   2.791   9.492 -0.1394 -0.2821 -0.9827
   17SAPC   C29 2188   6.375   2.614   9.487 -0.6568 -0.7463 -0.6911
   17SAPC   H9R 2189   6.414   2.559   9.399 -0.7929 -1.8362 -0.0745
   17SAPC  C210 2190   6.257   2.533   9.533  0.3163  0.1848 -0.9374
   17SAPC  H10R 2191   6.172   2.560   9.467 -0.1722  0.5334 -0.1716
   17SAPC  H10S 2192   6.227   2.564   9.635 -0.2808 -1.4240 -0.6209
   17SAPC  C211 2193   6.284   2.384   9.538 -0.0428 -0.8681 -0.0035
   17SAPC  H11R 2194   6.292   2.350   9.643 -1.7875  1.7188  1.0126
   17SAPC  C212 2195   6.296   2.306   9.433  0.3617 -0.0967  0.1761
   17SAPC  H12R 2196   6.309   2.198   9.453 -0.8366 -0.1447  0.7195
   17SAPC  C213 2197   6.284   2.336   9.285 -0.2711 -0.5301 -0.3478
   17SAPC  H13R 2198   6.297   2.443   9.258  0.4555 -0.5392 -0.0494
   17SAPC  H13S 2199   6.177   2.337   9.258  0.3898 -0.9961 -3.2279
   17SAPC  C214 2200   6.363   2.249   9.189 -0.0072 -0.7205 -0.2407
   17SAPC  H14R 2201   6.449   2.198   9.235 -1.2406 -2.2324  0.4287
   17SAPC  C215 2202   6.321   2.221   9.061  0.0563  0.5470  0.2059
   17SAPC  H15R 2203   6.388   2.169   8.990 -0.0845 -2.1421  1.9504
   17SAPC  C216 2204   6.195   2.275   8.995  0.6875 -0.6305 -0.1567
   17SAPC  H16R 2205   6.175   2.382   9.019 -0.0688 -0.5535 -1.0781
   17SAPC  H16S 2206   6.102   2.230   9.036 -0.7598  1.4762 -1.0239
   17SAPC  C217 2207   6.193   2.283   8.847  1.4241  0.2809 -1.1252
   17SAPC  H17R 2208   6.215   2.179   8.814 -1.1494 -0.4536 -0.6648
   17SAPC  H17S 2209   6.273   2.350   8.809 -0.3496  1.9982 -1.8569
   17SAPC  C218 2210   6.066   2.340   8.785 -0.1997  0.0583  0.3570
   17SAPC  H18R 2211   6.089   2.371   8.680  1.0262 -0.2704  0.5205
   17SAPC  H18S 2212   6.043   2.429   8.847  1.1326  1.7557 -1.5039
   17SAPC  C219 2213   5.951   2.244   8.781 -0.5011 -0.0412 -0.9153
   17SAPC  H19R 2214   5.933   2.208   8.885 -0.0494  0.1113 -0.7815
   17SAPC  H19S 2215   5.993   2.157   8.726 -0.1136 -0.1046 -0.5261
   17SAPC  C220 2216   5.827   2.309   8.717 -0.0392 -0.3459  0.2200
   17SAPC  H20R 2217   5.859   2.374   8.633 -3.1089  1.0632  0.0776
   17SAPC  H20S 2218   5.788   2.383   8.790 -0.3919 -0.1827 -0.1268
   17SAPC  H20T 2219   5.741   2.244   8.689  0.7878 -1.5341  0.4098
   17SAPC   C33 2220   5.326   3.219   9.695 -0.0724 -0.9514 -0.0598
   17SAPC   H3X 2221   5.364   3.322   9.714  1.4058 -1.5098  0.1052
   17SAPC   H3Y 2222   5.217   3.230   9.712 -0.1669  0.6068 -1.5159
   17SAPC   C34 2223   5.348   3.166   9.550 -0.2248  0.2220  0.2843
   17SAPC   H4X 2224   5.278   3.081   9.535  1.8127 -1.0953 -2.0742
   17SAPC   H4Y 2225   5.454   3.140   9.529 -0.3513  1.7436 -2.5052
   17SAPC   C35 2226   5.308   3.257   9.432  0.2748 -0.0071 -0.0016
   17SAPC   H5X 2227   5.373   3.347   9.435  0.0731  0.2008 -1.6893
   17SAPC   H5Y 2228   5.203   3.291   9.448 -0.0363 -1.0493  0.1732
   17SAPC   C36 2229   5.313   3.201   9.292 -0.2526 -0.3761  0.3780
   17SAPC   H6X 2230   5.269   3.099   9.293 -2.1860  0.4233 -0.6388
   17SAPC   H6Y 2231   5.409   3.208   9.237 -1.3644  0.7861 -1.4627
   17SAPC   C37 2232   5.199   3.263   9.201 -0.1194  0.1648  0.5029
   17SAPC   H7X 2233   5.199   3.372   9.181  2.0119 -0.0738 -0.9263
   17SAPC   H7Y 2234   5.097   3.245   9.242 -0.6189 -0.2012 -0.8724
   17SAPC   C38 2235   5.201   3.190   9.059 -0.6495 -0.0517  0.1595
   17SAPC   H8X 2236   5.111   3.218   9.001 -0.2016  0.5236 -0.2646
   17SAPC   H8Y 2237   5.207   3.080   9.066  1.0261 -0.0409 -0.8419
   17SAPC   C39 2238   5.317   3.246   8.976 -0.5208  0.1020  0.3146
   17SAPC   H9X 2239   5.416   3.222   9.020  0.0413 -1.1896 -1.6288
   17SAPC   H9Y 2240   5.314   3.357   8.967 -1.0234  0.0552 -0.1114
   17SAPC  C310 2241   5.325   3.198   8.833  0.0093 -0.0907  0.0929
   17SAPC  H10X 2242   5.241   3.236   8.772 -0.1161 -0.9748 -0.2865
   17SAPC  H10Y 2243   5.320   3.087   8.843  0.1910  0.0334  1.9030
   17SAPC  C311 2244   5.448   3.246   8.761 -0.4918 -0.3714 -0.4585
   17SAPC  H11X 2245   5.541   3.206   8.807 -0.8706 -3.2130 -2.0483
   17SAPC  H11Y 2246   5.455   3.357   8.759 -1.0125 -0.3474 -1.6652
   17SAPC  C312 2247   5.468   3.221   8.605 -0.6556  0.1967 -0.5415
   17SAPC  H12X 2248   5.543   3.294   8.568  0.5692  0.0202  1.5032
   17SAPC  H12Y 2249   5.367   3.231   8.559 -1.0773 -2.1080 -0.2096
   17SAPC  C313 2250   5.518   3.078   8.571  0.2987  0.0614  0.2785
   17SAPC  H13X 2251   5.463   3.012   8.642 -1.1263  1.5662  0.5911
   17SAPC  H13Y 2252   5.624   3.077   8.605 -0.0330 -1.1208  1.3210
   17SAPC  C314 2253   5.502   3.049   8.424 -0.9192  0.2091 -0.7056
   17SAPC  H14X 2254   5.566   2.965   8.391  0.9285  0.9136  0.9828
   17SAPC  H14Y 2255   5.534   3.144   8.376  0.1699  0.7467  1.0254
   17SAPC  C315 2256   5.362   3.015   8.379 -0.8665  0.5830 -0.8408
   17SAPC  H15X 2257   5.297   3.098   8.413 -0.5779  0.3658  0.2705
   17SAPC  H15Y 2258   5.328   2.923   8.431  2.0436  0.3085  0.7253
   17SAPC  C316 2259   5.340   3.008   8.226  0.4838  0.2144 -0.0685
   17SAPC  H16X 2260   5.394   2.914   8.202 -0.7016 -0.2064 -1.1780
   17SAPC  H16Y 2261   5.390   3.091   8.172  1.1683 -1.8275 -2.6734
   17SAPC  C317 2262   5.193   3.010   8.188  0.4030  0.5905 -0.0071
   17SAPC  H17X 2263   5.125   3.090   8.225  1.7278  0.5596  2.5551
   17SAPC  H17Y 2264   5.149   2.916   8.226 -0.6541  1.2896  0.5324
   17SAPC  C318 2265   5.175   3.004   8.036 -0.7117  0.3924 -0.3795
   17SAPC  H18X 2266   5.219   2.909   8.000 -1.8449 -0.0631 -0.5761
   17SAPC  H18Y 2267   5.069   3.002   8.002 -0.5137 -3.2769 -0.9438
   17SAPC  H18Z 2268   5.218   3.093   7.986 -0.7141 -0.8246 -2.6030
   18SAPC     N 2269   6.631   2.624  10.969 -0.4395  0.1233  0.1512
   18SAPC   C12 2270   6.755   2.586  10.895 -0.0870 -0.9962  0.4978
   18SAPC  H12A 2271   6.817   2.537  10.969 -2.6081 -3.2452  1.1829
   18SAPC  H12B 2272   6.803   2.678  10.865 -1.5592 -0.6202 -0.7469
   18SAPC   C13 2273   6.664   2.700  11.091  0.1583  0.0899 -0.3491
   18SAPC  H13A 2274   6.699   2.633  11.169 -1.5695 -1.0176 -0.5110
   18SAPC  H13B 2275   6.741   2.771  11.065  1.0334 -0.8128 -0.2613
   18SAPC  H13C 2276   6.580   2.753  11.133  1.2272  1.3921  0.1969
   18SAPC   C14 2277   6.555   2.718  10.884  0.6624 -0.2320 -0.2093
   18SAPC  H14A 2278   6.472   2.760  10.939  1.9713  2.6732 -0.3444
   18SAPC  H14B 2279   6.609   2.806  10.852  1.0771 -0.0286  1.0461
   18SAPC  H14C 2280   6.530   2.658  10.798 -0.5637 -0.1527  0.0792
   18SAPC   C15 2281   6.547   2.507  11.009  0.9778 -0.4519 -0.0421
   18SAPC  H15A 2282   6.599   2.446  11.081 -1.0958  0.5349  2.3973
   18SAPC  H15B 2283   6.450   2.541  11.042  1.1721  0.8415 -0.7773
   18SAPC  H15C 2284   6.525   2.436  10.932 -0.9485  0.7981 -0.7057
   18SAPC   C11 2285   6.747   2.505  10.766  0.1955 -0.7800  0.1669
   18SAPC  H11A 2286   6.685   2.416  10.788 -0.3959 -0.2807  0.5363
   18SAPC  H11B 2287   6.849   2.472  10.736  0.6873  0.9916 -0.1443
   18SAPC     P 2288   6.581   2.535  10.564  0.4416  0.2033 -0.3835
   18SAPC   O13 2289   6.478   2.464  10.636  0.2919 -0.0305 -1.0278
   18SAPC   O14 2290   6.556   2.650  10.473 -0.1610  0.9504  0.2426
   18SAPC   O12 2291   6.694   2.587  10.661 -0.0031 -0.0300  0.2740
   18SAPC   O11 2292   6.668   2.422  10.486  0.6130 -0.1831 -0.1447
   18SAPC    C1 2293   6.789   2.433  10.407 -0.3587  0.4403  0.1663
   18SAPC    HA 2294   6.823   2.538  10.412  0.5936  0.0030  3.8927
   18SAPC    HB 2295   6.869   2.367  10.446 -1.3423  1.0974  3.3876
   18SAPC    C2 2296   6.772   2.383  10.259  0.3753 -0.0900  0.2663
   18SAPC    HS 2297   6.871   2.391  10.210  2.1782 -2.4251  3.3065
   18SAPC   O21 2298   6.679   2.458  10.184  0.3999 -0.2564  0.2121
   18SAPC   C21 2299   6.693   2.591  10.167  0.8037  0.6889 -0.9056
   18SAPC   O22 2300   6.796   2.649  10.204 -0.0409  0.1803  0.2372
   18SAPC   C22 2301   6.581   2.656  10.089 -0.0618 -0.6861  0.1269
   18SAPC   H2R 2302   6.550   2.744  10.150 -0.1290 -0.8264  0.2918
   18SAPC   H2S 2303   6.624   2.692   9.993  0.4287  2.1965  1.3440
   18SAPC    C3 2304   6.730   2.233  10.260  0.4859  0.5006 -0.6482
   18SAPC    HX 2305   6.631   2.222  10.310 -0.0154 -0.5430 -1.8130
   18SAPC    HY 2306   6.799   2.172  10.321 -2.8371 -0.6430  2.1500
   18SAPC   O31 2307   6.724   2.184  10.118  0.6308  0.0099  0.2792
   18SAPC   C31 2308   6.646   2.072  10.112  0.4349 -0.5433  0.7011
   18SAPC   O32 2309   6.602   2.009  10.209 -0.3649  0.1830 -0.3581
   18SAPC   C32 2310   6.630   2.017   9.972  0.4612 -0.0837 -0.2433
   18SAPC   H2X 2311   6.735   2.003   9.939 -0.0969 -0.2565 -1.9940
   18SAPC   H2Y 2312   6.573   2.080   9.900 -0.2240 -1.0616 -0.5602
   18SAPC   C23 2313   6.458   2.573  10.052  0.7163 -0.2071  0.5084
   18SAPC   H3R 2314   6.499   2.480  10.006 -0.3508 -1.3874  1.8970
   18SAPC   H3S 2315   6.399   2.632   9.979 -1.2662 -2.3836  0.3066
   18SAPC   C24 2316   6.364   2.532  10.171 -0.5227  0.1195  1.2147
   18SAPC   H4R 2317   6.301   2.618  10.202 -0.7495  0.2368  0.4347
   18SAPC   H4S 2318   6.432   2.519  10.257  0.6205  0.6878  0.4052
   18SAPC   C25 2319   6.279   2.414  10.156  0.0857  0.3017  0.3239
   18SAPC   H5R 2320   6.284   2.337  10.234 -0.5390 -0.0933 -0.0206
   18SAPC   C26 2321   6.176   2.393  10.064 -0.2708 -0.0725 -0.1214
   18SAPC   H6R 2322   6.114   2.303  10.069 -1.4853  0.7925  0.5779
   18SAPC   C27 2323   6.142   2.479   9.945 -0.0586 -0.1870 -0.2877
   18SAPC   H7R 2324   6.158   2.431   9.846  0.4347  0.0097 -0.3056
   18SAPC   H7S 2325   6.187   2.581   9.941 -1.1255  0.2432 -2.6797
   18SAPC   C28 2326   5.993   2.502   9.948 -1.1036 -0.3296  0.3409
   18SAPC   H8R 2327   5.952   2.529  10.047  1.5103 -2.9638  2.2466
   18SAPC   C29 2328   5.902   2.505   9.850 -0.9880 -0.8532  0.3464
   18SAPC   H9R 2329   5.797   2.529   9.875 -1.4097 -2.0119 -0.2953
   18SAPC  C210 2330   5.930   2.476   9.705  0.1871 -0.1216  0.4622
   18SAPC  H10R 2331   6.013   2.402   9.705 -0.3522 -0.7375  0.6307
   18SAPC  H10S 2332   5.964   2.568   9.653  0.3622 -0.4561 -0.0158
   18SAPC  C211 2333   5.811   2.413   9.633 -0.2728  0.2327  0.0228
   18SAPC  H11R 2334   5.756   2.327   9.674  1.2120 -1.6395 -1.7689
   18SAPC  C212 2335   5.791   2.436   9.501 -0.8941 -0.6537 -0.3066
   18SAPC  H12R 2336   5.713   2.372   9.457 -2.1148  0.5916  0.0198
   18SAPC  C213 2337   5.864   2.524   9.397 -0.7914 -0.3143 -0.3542
   18SAPC  H13R 2338   5.951   2.575   9.443  1.2015 -2.5014 -1.5820
   18SAPC  H13S 2339   5.796   2.602   9.359  1.1722  1.7828  0.3516
   18SAPC  C214 2340   5.907   2.442   9.284  0.1519 -0.1167 -0.5879
   18SAPC  H14R 2341   5.991   2.371   9.291  0.3394 -0.1645 -2.9440
   18SAPC  C215 2342   5.858   2.436   9.157 -0.1841 -0.2099 -0.1260
   18SAPC  H15R 2343   5.896   2.352   9.098  2.8054 -0.3624  1.9099
   18SAPC  C216 2344   5.740   2.511   9.104 -0.3563  0.0916  0.2873
   18SAPC  H16R 2345   5.761   2.564   9.009 -0.6776 -1.1634 -0.4922
   18SAPC  H16S 2346   5.689   2.578   9.177 -1.6230 -0.1645 -0.3633
   18SAPC  C217 2347   5.631   2.411   9.084  0.8387  0.5683  0.5197
   18SAPC  H17R 2348   5.593   2.372   9.181 -0.2564  1.2452  0.3758
   18SAPC  H17S 2349   5.669   2.325   9.025 -0.8278 -0.7111  1.2343
   18SAPC  C218 2350   5.505   2.475   9.017  0.0219  0.7003  0.2289
   18SAPC  H18R 2351   5.534   2.503   8.914  0.7575 -0.8062  0.0175
   18SAPC  H18S 2352   5.475   2.569   9.070 -1.6919 -0.5631  1.5544
   18SAPC  C219 2353   5.393   2.367   9.013 -0.5214 -0.4349 -0.5048
   18SAPC  H19R 2354   5.375   2.302   9.101 -2.2421 -1.0068 -1.2697
   18SAPC  H19S 2355   5.417   2.290   8.937  0.7154 -0.7102  0.1562
   18SAPC  C220 2356   5.256   2.424   8.983  0.3280  0.7537 -0.4430
   18SAPC  H20R 2357   5.221   2.476   9.075 -2.2981  1.1477 -1.6264
   18SAPC  H20S 2358   5.194   2.333   8.966 -1.7184  1.8645  0.8977
   18SAPC  H20T 2359   5.262   2.483   8.889  1.3930 -1.4810 -1.8148
   18SAPC   C33 2360   6.552   1.883   9.974 -0.7536 -0.2536  0.2407
   18SAPC   H3X 2361   6.452   1.904  10.018 -0.2580  2.1491  0.2888
   18SAPC   H3Y 2362   6.613   1.817  10.038 -0.9153  0.0857  0.7495
   18SAPC   C34 2363   6.523   1.815   9.836 -0.0171 -0.2824  0.3006
   18SAPC   H4X 2364   6.608   1.748   9.812 -0.5064 -0.5810 -0.6385
   18SAPC   H4Y 2365   6.527   1.889   9.754 -3.5477 -1.6655 -1.2023
   18SAPC   C35 2366   6.394   1.732   9.837  0.3198 -0.1295 -0.3832
   18SAPC   H5X 2367   6.308   1.796   9.868  1.5853  1.6705 -0.4717
   18SAPC   H5Y 2368   6.399   1.649   9.911 -1.7349 -2.3793 -2.6792
   18SAPC   C36 2369   6.351   1.677   9.700 -0.3095 -0.7319  0.2161
   18SAPC   H6X 2370   6.420   1.604   9.651 -0.3858  0.2642 -1.3894
   18SAPC   H6Y 2371   6.357   1.762   9.629  1.6996 -0.4309  0.7077
   18SAPC   C37 2372   6.213   1.619   9.701 -0.2680  0.7482  0.2096
   18SAPC   H7X 2373   6.145   1.706   9.688 -0.0199  1.2551  2.1039
   18SAPC   H7Y 2374   6.205   1.562   9.796  3.0658  0.5990  0.4509
   18SAPC   C38 2375   6.196   1.514   9.585 -0.7406  0.4638 -0.0330
   18SAPC   H8X 2376   6.120   1.442   9.620  1.4795 -1.0996  1.7207
   18SAPC   H8Y 2377   6.293   1.461   9.573  0.4018  2.8493 -1.7912
   18SAPC   C39 2378   6.154   1.575   9.445 -0.1957 -0.5908  0.3733
   18SAPC   H9X 2379   6.219   1.665   9.434 -0.8549  0.1155  2.0727
   18SAPC   H9Y 2380   6.050   1.611   9.459  0.7539  3.2534 -1.7533
   18SAPC  C310 2381   6.164   1.477   9.335  0.2353 -0.5165  0.0995
   18SAPC  H10X 2382   6.110   1.382   9.351 -0.1704 -0.0100  1.8906
   18SAPC  H10Y 2383   6.272   1.449   9.333 -0.0714 -1.6264 -2.3900
   18SAPC  C311 2384   6.122   1.537   9.203  0.3868  0.2518  0.0842
   18SAPC  H11X 2385   6.182   1.624   9.168 -0.2164  0.2771 -0.8953
   18SAPC  H11Y 2386   6.017   1.573   9.207  0.7671  1.6452 -1.6755
   18SAPC  C312 2387   6.132   1.432   9.081 -0.3496 -0.2868 -0.3571
   18SAPC  H12X 2388   6.083   1.473   8.991  0.2808 -1.8156 -1.4346
   18SAPC  H12Y 2389   6.086   1.335   9.110 -2.4352  0.4578 -1.1200
   18SAPC  C313 2390   6.282   1.402   9.044  0.8142 -0.5535 -0.5017
   18SAPC  H13X 2391   6.331   1.338   9.121 -0.7645 -0.4587  0.6076
   18SAPC  H13Y 2392   6.343   1.494   9.033  0.1266 -0.0470 -0.1794
   18SAPC  C314 2393   6.303   1.318   8.910  0.3330  0.0922 -1.0056
   18SAPC  H14X 2394   6.242   1.356   8.825 -0.4831  0.4220 -0.2840
   18SAPC  H14Y 2395   6.270   1.213   8.928 -2.6708  1.2712  0.8904
   18SAPC  C315 2396   6.454   1.315   8.879  0.1807 -0.4502  0.8459
   18SAPC  H15X 2397   6.493   1.277   8.976 -0.3174  1.2360  1.7370
   18SAPC  H15Y 2398   6.499   1.415   8.863  1.4970 -0.8321  2.0755
   18SAPC  C316 2399   6.484   1.216   8.769  0.0025  0.5634  0.0268
   18SAPC  H16X 2400   6.449   1.249   8.669 -0.5620  3.2232  1.0324
   18SAPC  H16Y 2401   6.428   1.124   8.794 -1.7210  1.7162  0.4954
   18SAPC  C317 2402   6.637   1.182   8.751  0.0561 -0.7887  0.5233
   18SAPC  H17X 2403   6.667   1.140   8.849 -1.2811 -1.0854  0.8137
   18SAPC  H17Y 2404   6.713   1.261   8.737  2.4045 -3.2415 -1.0689
   18SAPC  C318 2405   6.674   1.087   8.640  0.1124 -0.9954  0.1312
   18SAPC  H18X 2406   6.628   1.115   8.543  0.2282  3.2375  1.2223
   18SAPC  H18Y 2407   6.653   0.984   8.676 -0.3639 -0.6489  0.8598
   18SAPC  H18Z 2408   6.784   1.094   8.630  0.1267  0.3015  1.1390
   19SAPC     N 2409   4.829   3.765  10.710 -0.2467 -0.3029  0.1446
   19SAPC   C12 2410   4.732   3.829  10.617 -0.3943 -0.2550 -0.7666
   19SAPC  H12A 2411   4.629   3.823  10.648 -0.2545 -0.5177 -0.3403
   19SAPC  H12B 2412   4.724   3.768  10.529  1.4228  0.5718 -1.5309
   19SAPC   C13 2413   4.951   3.711  10.631 -0.1862 -0.2785 -0.4550
   19SAPC  H13A 2414   5.023   3.791  10.621 -1.7506  1.5685  2.3758
   19SAPC  H13B 2415   4.994   3.628  10.685  0.1339 -0.4887 -1.0364
   19SAPC  H13C 2416   4.927   3.683  10.529  0.0344  0.3203 -0.6764
   19SAPC   C14 2417   4.871   3.851  10.818  0.7059  0.2186  0.6477
   19SAPC  H14A 2418   4.941   3.801  10.883  0.3239 -1.8964 -0.5341
   19SAPC  H14B 2419   4.916   3.942  10.781  1.6170 -0.7311 -0.6166
   19SAPC  H14C 2420   4.789   3.896  10.873 -1.0423  0.9005 -2.3996
   19SAPC   C15 2421   4.769   3.648  10.774  0.5249  0.4159  0.3798
   19SAPC  H15A 2422   4.676   3.662  10.826  0.2473 -0.3727  0.1015
   19SAPC  H15B 2423   4.751   3.567  10.705  2.6421  0.6884 -0.5615
   19SAPC  H15C 2424   4.834   3.614  10.853 -0.3892 -3.1440 -0.3459
   19SAPC   C11 2425   4.760   3.979  10.571  0.3059 -0.1626  0.1707
   19SAPC  H11A 2426   4.731   4.056  10.646 -0.8836  0.3282 -0.7902
   19SAPC  H11B 2427   4.687   4.005  10.492  0.0170  0.0327  0.4991
   19SAPC     P 2428   4.909   3.976  10.351 -0.3220 -0.0345 -0.0818
   19SAPC   O13 2429   5.056   3.964  10.330  0.1215 -0.3497 -0.4194
   19SAPC   O14 2430   4.829   3.859  10.302  0.3739  0.4947 -0.5322
   19SAPC   O12 2431   4.889   3.999  10.508  0.0024  0.2375 -0.1693
   19SAPC   O11 2432   4.867   4.115  10.295 -0.5282 -0.1038  0.4881
   19SAPC    C1 2433   4.903   4.243  10.351 -0.3388  0.5854  0.3170
   19SAPC    HA 2434   4.895   4.243  10.462 -1.4932  3.2503  0.2750
   19SAPC    HB 2435   5.004   4.273  10.318 -0.7610  1.5250 -0.1591
   19SAPC    C2 2436   4.817   4.367  10.300 -0.3693  0.1571  0.0373
   19SAPC    HS 2437   4.711   4.349  10.328 -0.2449  0.6581  0.8414
   19SAPC   O21 2438   4.822   4.393  10.159  0.5003 -0.6571  0.1102
   19SAPC   C21 2439   4.754   4.313  10.084 -0.2219 -0.4270 -0.7178
   19SAPC   O22 2440   4.662   4.240  10.121  0.5114  0.7060 -0.2607
   19SAPC   C22 2441   4.810   4.334   9.949 -0.8559  0.4610 -0.1524
   19SAPC   H2R 2442   4.759   4.426   9.914  1.2908  1.4501 -0.7207
   19SAPC   H2S 2443   4.920   4.346   9.944 -0.9414  0.4592 -2.5012
   19SAPC    C3 2444   4.873   4.495  10.370 -0.5441 -0.1059  0.5157
   19SAPC    HX 2445   4.852   4.492  10.479  0.0475 -1.1970  0.6084
   19SAPC    HY 2446   4.803   4.573  10.335 -2.0151 -1.3255  0.7189
   19SAPC   O31 2447   5.012   4.516  10.334 -1.1958  0.0604 -0.5032
   19SAPC   C31 2448   5.034   4.609  10.244  0.4008  0.6109 -0.6394
   19SAPC   O32 2449   4.951   4.700  10.220  0.3239 -0.0844  0.1656
   19SAPC   C32 2450   5.175   4.597  10.182 -0.0435 -0.7975  0.3257
   19SAPC   H2X 2451   5.221   4.503  10.218 -0.9368 -1.3723 -0.0029
   19SAPC   H2Y 2452   5.220   4.685  10.233 -2.3415  0.8876 -0.4676
   19SAPC   C23 2453   4.787   4.220   9.848  0.0239  0.6378  0.4703
   19SAPC   H3R 2454   4.684   4.179   9.858  0.8398 -1.9874 -1.5889
   19SAPC   H3S 2455   4.850   4.137   9.887 -1.5284 -1.1757 -0.8013
   19SAPC   C24 2456   4.831   4.252   9.701 -0.3866 -0.3099 -0.1386
   19SAPC   H4R 2457   4.805   4.165   9.638  0.5802  0.6039 -1.8397
   19SAPC   H4S 2458   4.941   4.268   9.701 -0.7660  2.6674 -0.4882
   19SAPC   C25 2459   4.754   4.364   9.640 -0.3825 -0.6667  0.0044
   19SAPC   H5R 2460   4.697   4.432   9.704 -1.9576 -0.8670 -1.1417
   19SAPC   C26 2461   4.752   4.399   9.507  1.1675 -0.1716  0.4142
   19SAPC   H6R 2462   4.690   4.485   9.477 -0.8562 -1.6990  0.1003
   19SAPC   C27 2463   4.825   4.322   9.392 -0.3441  0.0374 -0.0194
   19SAPC   H7R 2464   4.744   4.281   9.328 -0.4065 -0.6349  0.4907
   19SAPC   H7S 2465   4.890   4.245   9.439 -0.0653 -0.7341 -1.6689
   19SAPC   C28 2466   4.916   4.412   9.303 -0.0932 -0.0617  0.3076
   19SAPC   H8R 2467   4.981   4.480   9.359 -2.5354  0.1214  3.0660
   19SAPC   C29 2468   4.917   4.425   9.167  0.4727 -0.1742 -0.2852
   19SAPC   H9R 2469   4.973   4.509   9.123  1.4488 -0.8972 -0.4451
   19SAPC  C210 2470   4.833   4.348   9.071 -0.4480  0.3788  0.3232
   19SAPC  H10R 2471   4.735   4.400   9.071  0.0859  1.4011  0.7071
   19SAPC  H10S 2472   4.808   4.248   9.112  1.0087 -0.0678  0.1277
   19SAPC  C211 2473   4.887   4.339   8.928 -0.7615 -0.1703  0.0964
   19SAPC  H11R 2474   4.991   4.303   8.925 -0.4454  0.6874  0.4828
   19SAPC  C212 2475   4.816   4.369   8.816  0.3554 -0.2087  0.2100
   19SAPC  H12R 2476   4.867   4.373   8.718  0.4558  0.1066  0.2733
   19SAPC  C213 2477   4.670   4.419   8.791  0.5048 -0.4384 -0.1124
   19SAPC  H13R 2478   4.656   4.523   8.753  0.6930 -0.9865 -1.7404
   19SAPC  H13S 2479   4.618   4.437   8.888  0.2240 -1.2930 -0.1034
   19SAPC  C214 2480   4.595   4.322   8.698  0.4445 -0.7603 -0.0445
   19SAPC  H14R 2481   4.557   4.235   8.754  0.4402 -0.4706  0.4100
   19SAPC  C215 2482   4.565   4.335   8.568 -0.0223 -0.4922  0.4523
   19SAPC  H15R 2483   4.514   4.251   8.519 -0.0756 -0.2725  0.1353
   19SAPC  C216 2484   4.600   4.452   8.481  0.3834  0.4036  0.6254
   19SAPC  H16R 2485   4.653   4.536   8.529  0.1909  1.6920 -1.3458
   19SAPC  H16S 2486   4.502   4.487   8.443  1.5044  4.0711  1.0062
   19SAPC  C217 2487   4.687   4.412   8.363 -0.0572 -0.3261  0.2938
   19SAPC  H17R 2488   4.766   4.349   8.410 -1.1924 -1.2160  1.0378
   19SAPC  H17S 2489   4.744   4.500   8.325 -1.5937  1.0427  1.0975
   19SAPC  C218 2490   4.605   4.349   8.252 -0.1667 -0.1237  0.0592
   19SAPC  H18R 2491   4.526   4.414   8.209  1.5397  1.9353 -0.0542
   19SAPC  H18S 2492   4.555   4.257   8.290 -0.6284  0.3224  0.5434
   19SAPC  C219 2493   4.707   4.313   8.144 -0.3730 -0.0044 -0.0658
   19SAPC  H19R 2494   4.786   4.250   8.190 -0.7961  0.4701  1.3379
   19SAPC  H19S 2495   4.751   4.410   8.114  0.8306 -1.0927 -1.8998
   19SAPC  C220 2496   4.642   4.241   8.032  0.2662 -0.1428 -0.2859
   19SAPC  H20R 2497   4.581   4.308   7.969 -1.8594 -0.5803  1.2367
   19SAPC  H20S 2498   4.554   4.180   8.062 -0.4399  0.8499 -0.3111
   19SAPC  H20T 2499   4.705   4.166   7.980 -0.6822 -1.2292  0.0846
   19SAPC   C33 2500   5.186   4.590  10.025 -0.6965 -0.7289  1.0115
   19SAPC   H3X 2501   5.110   4.522   9.982  1.2518 -2.6240  0.4784
   19SAPC   H3Y 2502   5.290   4.566   9.994 -0.1624  0.2263  2.0257
   19SAPC   C34 2503   5.174   4.738   9.972 -0.4041 -0.0109  0.6857
   19SAPC   H4X 2504   5.255   4.792  10.026 -0.4147  0.8536 -0.1476
   19SAPC   H4Y 2505   5.083   4.784  10.016 -0.9683  0.1820 -0.6795
   19SAPC   C35 2506   5.166   4.767   9.821 -0.3401 -0.0175  0.0033
   19SAPC   H5X 2507   5.148   4.874   9.799 -1.7802 -0.6089 -1.8036
   19SAPC   H5Y 2508   5.075   4.711   9.790  0.9794 -1.9731 -0.4026
   19SAPC   C36 2509   5.283   4.719   9.741 -0.9259 -0.1749  0.1789
   19SAPC   H6X 2510   5.300   4.612   9.767 -0.5165  0.4410  2.5888
   19SAPC   H6Y 2511   5.371   4.779   9.773 -1.5012  0.3360  0.8081
   19SAPC   C37 2512   5.279   4.737   9.592 -0.3286 -0.0574 -0.4102
   19SAPC   H7X 2513   5.247   4.840   9.566  1.6569  0.6405 -0.1146
   19SAPC   H7Y 2514   5.207   4.668   9.543  0.1602  0.2257 -1.5359
   19SAPC   C38 2515   5.409   4.715   9.523  0.3253  0.2974  0.1562
   19SAPC   H8X 2516   5.444   4.610   9.529  0.5087  0.4909  3.0657
   19SAPC   H8Y 2517   5.492   4.773   9.567  1.4054  0.2051 -1.6917
   19SAPC   C39 2518   5.390   4.763   9.374 -0.1813 -0.9706  0.2198
   19SAPC   H9X 2519   5.345   4.864   9.363  0.0211 -0.8515  0.4621
   19SAPC   H9Y 2520   5.311   4.698   9.331  0.5824 -0.5913 -1.8162
   19SAPC  C310 2521   5.523   4.751   9.295 -0.3078  0.1852 -0.4160
   19SAPC  H10X 2522   5.588   4.684   9.354 -2.1560 -1.1678  0.1153
   19SAPC  H10Y 2523   5.568   4.853   9.295 -0.5079  0.2886 -1.6365
   19SAPC  C311 2524   5.497   4.721   9.150  0.6012  0.1191 -0.0682
   19SAPC  H11X 2525   5.419   4.796   9.123  0.4323 -0.1691 -0.3844
   19SAPC  H11Y 2526   5.450   4.621   9.138 -0.7101  0.6281  0.7305
   19SAPC  C312 2527   5.610   4.739   9.052  0.9139 -0.3434 -0.4225
   19SAPC  H12X 2528   5.684   4.807   9.099  1.1999 -0.4815 -0.6636
   19SAPC  H12Y 2529   5.578   4.799   8.964  0.7018  0.3586  0.1328
   19SAPC  C313 2530   5.661   4.606   9.000  0.1680 -0.0093  0.4859
   19SAPC  H13X 2531   5.575   4.552   8.954 -0.1838  1.8260 -1.1122
   19SAPC  H13Y 2532   5.699   4.547   9.086  0.6742 -0.7205 -0.2241
   19SAPC  C314 2533   5.773   4.616   8.893 -0.7116  0.1105  0.3170
   19SAPC  H14X 2534   5.836   4.704   8.917  1.2910 -1.4166  0.8046
   19SAPC  H14Y 2535   5.725   4.633   8.794 -1.2952  1.5218  0.8418
   19SAPC  C315 2536   5.878   4.501   8.894 -0.6844 -0.2207 -0.4224
   19SAPC  H15X 2537   5.830   4.414   8.845 -1.1190 -0.8631  1.1017
   19SAPC  H15Y 2538   5.901   4.469   8.998 -0.3592 -1.7709 -0.9495
   19SAPC  C316 2539   6.010   4.523   8.819 -0.1680  0.4185 -0.1139
   19SAPC  H16X 2540   6.067   4.428   8.814  1.8773  1.6787 -2.1864
   19SAPC  H16Y 2541   6.068   4.606   8.864 -2.5824  2.0810  0.0179
   19SAPC  C317 2542   5.991   4.569   8.676  0.4807  0.5380 -0.4350
   19SAPC  H17X 2543   5.945   4.670   8.673  0.2958  0.4753  0.3014
   19SAPC  H17Y 2544   5.918   4.496   8.633  0.2634  0.1020  0.6465
   19SAPC  C318 2545   6.126   4.567   8.600  0.8152 -0.3649  0.1193
   19SAPC  H18X 2546   6.110   4.584   8.491 -0.7172 -1.6038  0.1370
   19SAPC  H18Y 2547   6.168   4.465   8.614  1.1655 -0.5488 -2.1355
   19SAPC  H18Z 2548   6.189   4.645   8.648 -1.8352  1.2703  1.0453
   20SAPC     N 2549   5.146   0.800  11.452  0.1054 -0.4474 -0.7144
   20SAPC   C12 2550   5.186   0.939  11.388 -0.2736 -0.4197 -0.6696
   20SAPC  H12A 2551   5.251   0.989  11.458  0.1864 -2.6311  0.5443
   20SAPC  H12B 2552   5.097   0.997  11.375 -0.0020  0.7922  2.4469
   20SAPC   C13 2553   5.049   0.730  11.361  0.5039  1.2022  0.1577
   20SAPC  H13A 2554   5.049   0.623  11.374  3.2547  0.9747 -1.1906
   20SAPC  H13B 2555   4.954   0.776  11.381 -0.0048  0.9078 -1.5244
   20SAPC  H13C 2556   5.082   0.749  11.260  0.8621  1.4230  0.3130
   20SAPC   C14 2557   5.264   0.721  11.482  0.5005 -0.8333  0.5661
   20SAPC  H14A 2558   5.316   0.764  11.567  0.1654  0.0162  0.3435
   20SAPC  H14B 2559   5.245   0.619  11.511 -0.3718 -0.6808  0.5500
   20SAPC  H14C 2560   5.322   0.697  11.394 -1.7421  2.4904 -1.9459
   20SAPC   C15 2561   5.069   0.833  11.582 -0.1085 -0.0903  0.1168
   20SAPC  H15A 2562   4.981   0.888  11.552 -1.5414 -2.4235 -0.1423
   20SAPC  H15B 2563   5.022   0.748  11.629 -1.0258  0.9317  1.0863
   20SAPC  H15C 2564   5.130   0.898  11.642  0.4573 -0.3900 -0.1340
   20SAPC   C11 2565   5.240   0.925  11.251 -0.0728 -0.3495 -0.4468
   20SAPC  H11A 2566   5.314   0.843  11.241 -1.8319 -2.0102 -0.1930
   20SAPC  H11B 2567   5.293   1.020  11.229 -1.8633  0.8188  0.1649
   20SAPC     P 2568   5.211   0.892  10.997 -0.2309 -0.4174  0.1990
   20SAPC   O13 2569   5.302   1.005  10.968 -0.0958  0.5699  0.1611
   20SAPC   O14 2570   5.261   0.755  10.981  0.5544 -0.2581 -0.0938
   20SAPC   O12 2571   5.145   0.908  11.149  0.1057 -0.2119 -0.1221
   20SAPC   O11 2572   5.085   0.919  10.906 -0.6198  0.1032 -0.3138
   20SAPC    C1 2573   5.024   0.824  10.822  0.0632 -0.2742 -0.5528
   20SAPC    HA 2574   5.018   0.727  10.877 -1.3233 -0.6837 -1.4118
   20SAPC    HB 2575   4.922   0.863  10.805  0.2202  1.6668  2.5929
   20SAPC    C2 2576   5.092   0.805  10.689  0.2469  0.1969 -0.2779
   20SAPC    HS 2577   5.186   0.749  10.708  0.6951  1.7035  2.0690
   20SAPC   O21 2578   5.116   0.935  10.632  0.0931 -0.3462 -0.4179
   20SAPC   C21 2579   5.239   0.960  10.584  0.2803 -0.0688 -0.3349
   20SAPC   O22 2580   5.340   0.890  10.596  0.5246 -0.5525 -0.7334
   20SAPC   C22 2581   5.239   1.093  10.510  0.0267 -0.5370  0.7343
   20SAPC   H2R 2582   5.141   1.144  10.524 -0.6871 -1.2537 -1.5429
   20SAPC   H2S 2583   5.321   1.155  10.552 -0.3185 -0.3931  1.2109
   20SAPC    C3 2584   5.001   0.729  10.591  0.1392  0.2029  0.9042
   20SAPC    HX 2585   4.909   0.792  10.584 -0.2031 -0.5330 -1.6508
   20SAPC    HY 2586   4.979   0.627  10.629  1.4491 -0.3711  0.1497
   20SAPC   O31 2587   5.055   0.727  10.457 -0.3465  0.0544 -0.4155
   20SAPC   C31 2588   4.989   0.647  10.375  0.0311  0.5810 -0.4407
   20SAPC   O32 2589   4.881   0.602  10.406 -0.3931  0.0250  0.4300
   20SAPC   C32 2590   5.057   0.639  10.237 -0.8643 -0.0130 -0.6099
   20SAPC   H2X 2591   5.124   0.550  10.229 -0.4862  0.0442  1.4961
   20SAPC   H2Y 2592   5.110   0.734  10.216  3.7344 -2.3843 -0.3747
   20SAPC   C23 2593   5.272   1.083  10.356  0.6168  0.2625 -0.0035
   20SAPC   H3R 2594   5.199   1.012  10.311  1.0913  0.3229 -0.8724
   20SAPC   H3S 2595   5.371   1.034  10.346 -0.0293 -0.5180 -3.0339
   20SAPC   C24 2596   5.253   1.226  10.286 -0.4737 -0.3288 -0.3757
   20SAPC   H4R 2597   5.147   1.248  10.312  0.0212 -1.6926  2.9172
   20SAPC   H4S 2598   5.272   1.189  10.183 -1.1852 -0.0944 -0.5932
   20SAPC   C25 2599   5.346   1.337  10.305  0.1601  0.1462 -0.8283
   20SAPC   H5R 2600   5.360   1.351  10.414  1.4339  0.2767 -1.0086
   20SAPC   C26 2601   5.389   1.426  10.218 -0.4204  0.6790  0.6612
   20SAPC   H6R 2602   5.449   1.509  10.259  0.0293  0.7511 -0.1322
   20SAPC   C27 2603   5.361   1.429  10.070  0.4713 -0.2415  0.5856
   20SAPC   H7R 2604   5.333   1.535  10.055 -0.4417 -0.4800  0.5738
   20SAPC   H7S 2605   5.264   1.378  10.051  0.4620  0.0563 -0.1858
   20SAPC   C28 2606   5.474   1.386   9.974 -0.0029  0.0204 -0.5485
   20SAPC   H8R 2607   5.578   1.409  10.003  0.1715 -0.0512 -1.1193
   20SAPC   C29 2608   5.446   1.311   9.864  0.0405  0.9851  0.7220
   20SAPC   H9R 2609   5.535   1.303   9.800  0.7465  0.2324  1.7759
   20SAPC  C210 2610   5.322   1.263   9.796 -0.5629 -0.3718  0.2289
   20SAPC  H10R 2611   5.248   1.346   9.797  1.1256  1.2053 -1.6783
   20SAPC  H10S 2612   5.271   1.194   9.867 -0.0832  1.6534  2.6635
   20SAPC  C211 2613   5.343   1.208   9.655  0.0150 -0.2614  0.5874
   20SAPC  H11R 2614   5.344   1.098   9.647  2.0810 -0.3057  1.0422
   20SAPC  C212 2615   5.342   1.277   9.541  0.1369  0.8264  1.0372
   20SAPC  H12R 2616   5.360   1.218   9.450 -0.6157 -1.0774  2.0870
   20SAPC  C213 2617   5.333   1.425   9.524  0.3386  0.1912  0.2972
   20SAPC  H13R 2618   5.383   1.438   9.425  0.1777 -0.5773  0.1144
   20SAPC  H13S 2619   5.388   1.482   9.601 -1.2476  0.4112  1.2735
   20SAPC  C214 2620   5.189   1.472   9.495 -0.2455 -0.2026 -0.7757
   20SAPC  H14R 2621   5.145   1.427   9.405  1.0084 -1.6796 -0.6928
   20SAPC  C215 2622   5.112   1.548   9.575 -0.2161  0.0563  0.0273
   20SAPC  H15R 2623   5.012   1.580   9.541 -0.4743  0.1648  0.8607
   20SAPC  C216 2624   5.133   1.601   9.716 -0.1328  0.5755 -0.0382
   20SAPC  H16R 2625   5.225   1.556   9.760 -0.0212 -1.1352 -1.9408
   20SAPC  H16S 2626   5.042   1.580   9.776  0.4187 -4.5179 -0.7014
   20SAPC  C217 2627   5.154   1.756   9.730  0.0060 -0.2351 -0.2061
   20SAPC  H17R 2628   5.088   1.811   9.660 -0.5247 -0.7130 -0.0804
   20SAPC  H17S 2629   5.257   1.773   9.693 -0.3837 -0.5978 -1.4864
   20SAPC  C218 2630   5.150   1.823   9.870  0.5229  0.3722  0.0645
   20SAPC  H18R 2631   5.237   1.891   9.886 -0.3531  1.5335 -0.0771
   20SAPC  H18S 2632   5.153   1.743   9.947 -0.6064 -0.6145 -0.9122
   20SAPC  C219 2633   5.035   1.918   9.898  0.1650  0.3551  0.1155
   20SAPC  H19R 2634   4.945   1.855   9.911  0.5119  0.0648  1.2332
   20SAPC  H19S 2635   5.014   1.985   9.812 -2.5998  0.5845  0.9444
   20SAPC  C220 2636   5.052   2.010  10.020  0.0477  0.2214 -0.5287
   20SAPC  H20R 2637   4.982   2.095  10.009  2.9226  2.5763 -1.5088
   20SAPC  H20S 2638   5.154   2.054  10.011 -0.9211  2.4837 -0.8110
   20SAPC  H20T 2639   5.047   1.971  10.124 -0.3591 -1.0825 -1.0263
   20SAPC   C33 2640   4.940   0.635  10.133  0.6494  0.1056 -0.0140
   20SAPC   H3X 2641   4.886   0.730  10.150  1.6622  0.2966  2.2967
   20SAPC   H3Y 2642   4.863   0.558  10.155 -1.1259  1.9184  0.2072
   20SAPC   C34 2643   4.997   0.607   9.993  0.2483  0.6245 -0.3314
   20SAPC   H4X 2644   5.059   0.515   9.993 -1.5974 -0.6191 -0.1703
   20SAPC   H4Y 2645   5.067   0.687   9.959  1.1618 -0.2097 -0.4579
   20SAPC   C35 2646   4.889   0.600   9.879 -0.0884 -0.3483 -0.1246
   20SAPC   H5X 2647   4.824   0.690   9.876 -2.2768 -1.8935  0.2216
   20SAPC   H5Y 2648   4.822   0.513   9.895 -1.3782  0.3680 -1.5974
   20SAPC   C36 2649   4.951   0.578   9.735 -0.2697 -0.2421 -0.1671
   20SAPC   H6X 2650   5.023   0.494   9.726  1.6487  1.3930 -0.3724
   20SAPC   H6Y 2651   5.012   0.670   9.723  0.0941 -0.3828  0.5827
   20SAPC   C37 2652   4.860   0.555   9.614 -0.1330  0.4767 -0.1823
   20SAPC   H7X 2653   4.815   0.651   9.582 -2.6673 -1.0514 -1.3905
   20SAPC   H7Y 2654   4.780   0.483   9.643  0.1144  0.5435  0.6719
   20SAPC   C38 2655   4.933   0.498   9.493 -0.1732 -0.3742  0.6534
   20SAPC   H8X 2656   4.999   0.419   9.533  0.4192  0.7039  1.8514
   20SAPC   H8Y 2657   4.989   0.584   9.450  0.4463 -1.7623 -1.3774
   20SAPC   C39 2658   4.840   0.454   9.383  0.0784 -0.1106  0.3110
   20SAPC   H9X 2659   4.750   0.406   9.427  1.3569 -1.0895  1.9339
   20SAPC   H9Y 2660   4.891   0.383   9.314 -0.9027 -0.1841 -0.3525
   20SAPC  C310 2661   4.786   0.568   9.288  0.5924 -0.7095  0.9113
   20SAPC  H10X 2662   4.751   0.651   9.353  0.5294 -0.9147  1.1406
   20SAPC  H10Y 2663   4.694   0.527   9.242  0.3918  1.1312 -0.4326
   20SAPC  C311 2664   4.889   0.609   9.186 -0.2908 -0.3727  0.5382
   20SAPC  H11X 2665   4.931   0.522   9.131 -1.7034 -0.5898 -0.2164
   20SAPC  H11Y 2666   4.982   0.650   9.231  0.3700  1.2175 -2.1370
   20SAPC  C312 2667   4.839   0.718   9.081  0.2711 -0.1164  0.4820
   20SAPC  H12X 2668   4.768   0.791   9.126  0.9685  1.0472 -0.2870
   20SAPC  H12Y 2669   4.786   0.664   8.999  1.8178 -1.4347  0.3308
   20SAPC  C313 2670   4.963   0.790   9.017 -0.3224 -0.1997 -0.2331
   20SAPC  H13X 2671   5.023   0.716   8.959  0.9090 -0.6532  1.5796
   20SAPC  H13Y 2672   5.022   0.837   9.098 -0.5861  0.1359 -0.2327
   20SAPC  C314 2673   4.923   0.900   8.916 -0.6023 -1.3228  0.5891
   20SAPC  H14X 2674   4.860   0.971   8.974 -0.7389  0.2472 -1.4711
   20SAPC  H14Y 2675   4.870   0.856   8.829  0.8228 -0.0524 -0.9454
   20SAPC  C315 2676   5.048   0.971   8.857  1.1067  0.5279 -0.2665
   20SAPC  H15X 2677   5.100   0.889   8.804  1.3175  0.1468  0.5244
   20SAPC  H15Y 2678   5.115   0.995   8.942 -0.6814  0.5564  1.1505
   20SAPC  C316 2679   5.016   1.095   8.774 -0.4726 -0.6073  0.4996
   20SAPC  H16X 2680   5.102   1.165   8.774  0.5879 -1.8761 -0.5296
   20SAPC  H16Y 2681   4.931   1.146   8.825 -2.9670 -2.5396 -1.5409
   20SAPC  C317 2682   4.985   1.063   8.624 -0.3017 -0.1302 -0.6140
   20SAPC  H17X 2683   4.885   1.016   8.611  0.2572 -1.4724 -0.2389
   20SAPC  H17Y 2684   5.067   1.000   8.582 -1.3266  0.8964 -4.3145
   20SAPC  C318 2685   4.991   1.193   8.544 -0.4281 -0.3563 -0.0244
   20SAPC  H18X 2686   4.991   1.172   8.435 -0.8243 -1.6524  0.2140
   20SAPC  H18Y 2687   5.078   1.254   8.576  0.0547 -0.7896 -0.5072
   20SAPC  H18Z 2688   4.902   1.241   8.590  0.1556  0.5832  0.1402
   21SAPC     N 2689   4.523   6.590  11.134  0.9430 -0.7021 -0.4105
   21SAPC   C12 2690   4.454   6.657  11.013  0.6687  0.5064  0.1117
   21SAPC  H12A 2691   4.407   6.748  11.048  0.0577  0.4826 -0.6388
   21SAPC  H12B 2692   4.377   6.592  10.974  0.9522  0.8672 -1.0587
   21SAPC   C13 2693   4.563   6.453  11.101  0.0223  0.0336  0.0629
   21SAPC  H13A 2694   4.614   6.402  11.181 -1.1855  0.0217  0.8311
   21SAPC  H13B 2695   4.478   6.394  11.069  0.7871 -1.2999  0.4466
   21SAPC  H13C 2696   4.627   6.452  11.014  0.1996  1.5735  0.1645
   21SAPC   C14 2697   4.641   6.667  11.177 -0.5547  0.7638 -0.2336
   21SAPC  H14A 2698   4.598   6.761  11.204 -2.3430 -0.0757 -0.0830
   21SAPC  H14B 2699   4.679   6.618  11.265 -2.4718  1.9612  1.3038
   21SAPC  H14C 2700   4.711   6.690  11.098 -1.0819 -1.5527 -1.4199
   21SAPC   C15 2701   4.428   6.590  11.248 -0.4385  0.3782 -0.0768
   21SAPC  H15A 2702   4.402   6.692  11.275 -1.2008 -0.2603  1.6358
   21SAPC  H15B 2703   4.338   6.534  11.228  1.6514 -2.6759 -1.2492
   21SAPC  H15C 2704   4.450   6.540  11.341 -1.2646 -1.0376 -0.6198
   21SAPC   C11 2705   4.534   6.690  10.889  0.5282 -0.5351 -0.2783
   21SAPC  H11A 2706   4.592   6.779  10.919  0.8448 -0.7882 -0.1290
   21SAPC  H11B 2707   4.460   6.707  10.807 -0.4850 -0.8067  0.5731
   21SAPC     P 2708   4.778   6.609  10.811 -0.3356 -0.3066 -0.1071
   21SAPC   O13 2709   4.848   6.642  10.933  0.3151 -0.1861  0.1236
   21SAPC   O14 2710   4.819   6.482  10.749 -0.1569 -0.1344  0.0185
   21SAPC   O12 2711   4.623   6.581  10.848 -0.0335  0.3820  0.2131
   21SAPC   O11 2712   4.777   6.719  10.696 -0.4099  0.2087 -0.1521
   21SAPC    C1 2713   4.718   6.852  10.678  0.5783 -0.8884  0.5133
   21SAPC    HA 2714   4.628   6.861  10.743  0.6682  0.4675  0.4736
   21SAPC    HB 2715   4.790   6.925  10.721 -1.2355 -1.0079  3.9185
   21SAPC    C2 2716   4.693   6.896  10.534 -0.1644 -0.0251  0.0393
   21SAPC    HS 2717   4.631   6.987  10.551 -0.0567  0.2266 -0.8598
   21SAPC   O21 2718   4.611   6.796  10.466 -0.2722  0.1922 -0.1685
   21SAPC   C21 2719   4.490   6.771  10.521 -0.1166 -0.3927  0.4851
   21SAPC   O22 2720   4.415   6.860  10.566  0.3185 -0.2861  0.5623
   21SAPC   C22 2721   4.477   6.627  10.535  0.0654  0.4310  0.6159
   21SAPC   H2R 2722   4.557   6.585  10.598  0.6756 -0.4448 -0.7109
   21SAPC   H2S 2723   4.383   6.603  10.589 -1.0982 -1.4819 -2.1022
   21SAPC    C3 2724   4.822   6.933  10.458 -0.8268  0.0061 -0.2206
   21SAPC    HX 2725   4.893   6.848  10.447  2.3008  2.5047 -0.1542
   21SAPC    HY 2726   4.870   7.011  10.521  0.2869 -1.7687  1.1538
   21SAPC   O31 2727   4.791   6.972  10.319  0.1503 -0.1470 -0.6571
   21SAPC   C31 2728   4.904   7.011  10.258 -0.9168  0.3861  0.1321
   21SAPC   O32 2729   5.018   7.017  10.309 -0.1056  0.4325 -0.2811
   21SAPC   C32 2730   4.861   7.082  10.129 -0.1403 -0.9141  0.8010
   21SAPC   H2X 2731   4.844   7.187  10.162 -0.0833 -0.3671 -0.8585
   21SAPC   H2Y 2732   4.768   7.033  10.095  1.0265 -1.9394 -1.0037
   21SAPC   C23 2733   4.485   6.558  10.393 -0.5597 -0.8168 -0.0122
   21SAPC   H3R 2734   4.521   6.456  10.418  0.7523 -0.2919  0.2679
   21SAPC   H3S 2735   4.566   6.597  10.328  0.3534  0.1699  1.6900
   21SAPC   C24 2736   4.349   6.535  10.319  0.2506  0.0254 -0.6937
   21SAPC   H4R 2737   4.271   6.505  10.392  0.9746  0.2898  0.1962
   21SAPC   H4S 2738   4.351   6.448  10.250 -1.3095 -1.0469  0.5819
   21SAPC   C25 2739   4.312   6.669  10.261 -0.7350 -0.5895 -0.2121
   21SAPC   H5R 2740   4.271   6.744  10.330 -0.1848  0.0174 -0.5450
   21SAPC   C26 2741   4.315   6.697  10.127 -0.3283  0.5804  0.2705
   21SAPC   H6R 2742   4.292   6.798  10.090  0.7782  0.8955  0.4151
   21SAPC   C27 2743   4.360   6.605  10.014  0.6361 -0.0291 -0.0421
   21SAPC   H7R 2744   4.455   6.558  10.045  2.2656  1.4058 -2.6828
   21SAPC   H7S 2745   4.381   6.665   9.923 -3.2789  0.3248 -0.8013
   21SAPC   C28 2746   4.261   6.495   9.970  0.3438 -0.2196  0.2945
   21SAPC   H8R 2747   4.246   6.414  10.042  0.9898 -0.0462  0.6257
   21SAPC   C29 2748   4.219   6.465   9.844  0.1705 -0.2978  0.5591
   21SAPC   H9R 2749   4.146   6.383   9.843 -0.1307 -0.0309  0.0632
   21SAPC  C210 2750   4.252   6.532   9.714 -0.5946 -0.2368  0.8521
   21SAPC  H10R 2751   4.295   6.633   9.733 -0.5825 -0.1785  0.5245
   21SAPC  H10S 2752   4.159   6.543   9.653 -0.4821 -0.7231  0.5964
   21SAPC  C211 2753   4.358   6.460   9.632 -0.7265 -0.6826 -0.1091
   21SAPC  H11R 2754   4.424   6.390   9.685  0.2085 -0.7882 -1.3753
   21SAPC  C212 2755   4.378   6.465   9.500  0.0471 -0.6348 -0.6302
   21SAPC  H12R 2756   4.452   6.391   9.466  0.3078 -0.7926  0.2456
   21SAPC  C213 2757   4.304   6.553   9.403 -0.1414 -0.3015  0.1487
   21SAPC  H13R 2758   4.313   6.658   9.437  0.8197 -0.3974  0.2009
   21SAPC  H13S 2759   4.197   6.522   9.409 -0.2076 -0.1612 -0.2561
   21SAPC  C214 2760   4.379   6.535   9.274  0.7689  0.3038  0.1231
   21SAPC  H14R 2761   4.488   6.541   9.287  0.6987  2.1387 -0.0300
   21SAPC  C215 2762   4.329   6.517   9.151 -0.0473 -0.3324 -0.3080
   21SAPC  H15R 2763   4.396   6.503   9.066  0.1441  2.3848 -0.6430
   21SAPC  C216 2764   4.181   6.527   9.114  0.9375 -0.0855  0.7908
   21SAPC  H16R 2765   4.112   6.547   9.199  0.7866 -2.5326  1.2796
   21SAPC  H16S 2766   4.141   6.426   9.094 -1.5225  0.7294  1.3627
   21SAPC  C217 2767   4.153   6.625   8.999  0.1958  0.2623 -0.2032
   21SAPC  H17R 2768   4.163   6.731   9.031  3.0581  0.1212 -0.4703
   21SAPC  H17S 2769   4.044   6.625   8.978 -0.1769  2.1603  1.5829
   21SAPC  C218 2770   4.244   6.605   8.873  0.2463 -0.4174 -1.0384
   21SAPC  H18R 2771   4.238   6.501   8.836 -0.3963  0.1420 -2.5435
   21SAPC  H18S 2772   4.349   6.617   8.910 -1.2867  1.2807  3.1312
   21SAPC  C219 2773   4.223   6.710   8.761  0.3320 -0.5367  0.5282
   21SAPC  H19R 2774   4.302   6.692   8.685 -0.8915  0.5153 -1.0488
   21SAPC  H19S 2775   4.243   6.804   8.816  1.0699 -0.1209 -0.4363
   21SAPC  C220 2776   4.088   6.702   8.701  0.1197  0.1331  0.2626
   21SAPC  H20R 2777   4.079   6.742   8.597  1.6399 -0.0421  0.0568
   21SAPC  H20S 2778   4.024   6.765   8.767  0.7679  0.0030  1.0282
   21SAPC  H20T 2779   4.055   6.596   8.699  2.5300 -0.6681  0.7219
   21SAPC   C33 2780   4.978   7.067  10.026 -0.2061  0.2408 -0.3374
   21SAPC   H3X 2781   5.071   7.101  10.077  0.4310  1.1667 -2.0965
   21SAPC   H3Y 2782   4.976   7.144   9.946 -0.7608  1.0777  0.4792
   21SAPC   C34 2783   4.998   6.924   9.972  0.4415 -0.7664  0.0708
   21SAPC   H4X 2784   4.924   6.914   9.889  0.3565  0.9791 -0.1019
   21SAPC   H4Y 2785   4.980   6.844  10.047  2.1429 -0.7568  0.5127
   21SAPC   C35 2786   5.142   6.903   9.923 -0.5366 -0.8964 -0.5695
   21SAPC   H5X 2787   5.147   6.797   9.889  0.9031 -1.5343  1.4801
   21SAPC   H5Y 2788   5.207   6.920  10.011  1.1201 -0.7405 -1.8053
   21SAPC   C36 2789   5.195   6.989   9.814  0.6026  0.2230 -0.0708
   21SAPC   H6X 2790   5.300   7.020   9.830  0.7065 -0.1890  0.0525
   21SAPC   H6Y 2791   5.138   7.084   9.813 -0.3252 -0.2372  3.1786
   21SAPC   C37 2792   5.193   6.928   9.674  0.0067  0.6012 -0.1635
   21SAPC   H7X 2793   5.230   6.823   9.671 -1.7449 -0.0206 -0.4949
   21SAPC   H7Y 2794   5.251   6.997   9.608 -0.4215  0.8088 -0.3271
   21SAPC   C38 2795   5.053   6.925   9.615 -0.2068 -0.2447 -0.4303
   21SAPC   H8X 2796   5.000   7.011   9.661  1.9713 -0.1713  2.0347
   21SAPC   H8Y 2797   4.987   6.843   9.652 -1.6411  1.0449 -0.0822
   21SAPC   C39 2798   5.051   6.933   9.461  0.6193 -0.3627  0.0100
   21SAPC   H9X 2799   5.059   7.043   9.453  1.4469 -0.3635  0.8286
   21SAPC   H9Y 2800   4.954   6.888   9.431  1.2468 -1.9719  0.3614
   21SAPC  C310 2801   5.169   6.869   9.379  0.2204 -0.8360 -0.8262
   21SAPC  H10X 2802   5.173   6.758   9.385 -0.4588 -0.7770  0.9306
   21SAPC  H10Y 2803   5.272   6.894   9.414 -0.8895  1.1424  1.1119
   21SAPC  C311 2804   5.157   6.915   9.236  0.2543 -0.1250 -0.2522
   21SAPC  H11X 2805   5.255   6.903   9.185  1.1733  0.2566  1.3728
   21SAPC  H11Y 2806   5.138   7.024   9.243  0.3476 -0.0949 -0.4838
   21SAPC  C312 2807   5.047   6.849   9.160 -0.1340  0.1958 -0.2012
   21SAPC  H12X 2808   4.949   6.871   9.208  0.5293  0.2351  1.1542
   21SAPC  H12Y 2809   5.055   6.739   9.172 -1.8969 -0.1380 -1.7412
   21SAPC  C313 2810   5.055   6.897   9.014  0.5865 -0.9563 -0.4374
   21SAPC  H13X 2811   5.007   6.823   8.947 -3.2080  1.0773 -0.0940
   21SAPC  H13Y 2812   5.160   6.903   8.979  1.0962  0.7109  1.2749
   21SAPC  C314 2813   4.995   7.036   8.992 -0.0681 -0.1817  0.9028
   21SAPC  H14X 2814   5.036   7.083   8.899  1.6320 -2.3951  0.4984
   21SAPC  H14Y 2815   5.030   7.111   9.066 -0.7926  0.8828  0.1830
   21SAPC  C315 2816   4.843   7.028   8.977  0.3954  1.1514 -0.5367
   21SAPC  H15X 2817   4.798   6.978   9.066  0.4283  0.0998 -1.1062
   21SAPC  H15Y 2818   4.818   6.970   8.886  1.0372 -0.7194  0.4395
   21SAPC  C316 2819   4.773   7.169   8.967 -0.4643 -0.3354  0.5182
   21SAPC  H16X 2820   4.833   7.239   8.905  0.5651 -0.7590  1.0126
   21SAPC  H16Y 2821   4.772   7.210   9.071  1.3440 -0.5186  0.6183
   21SAPC  C317 2822   4.620   7.150   8.940 -0.2781 -0.1478 -0.2337
   21SAPC  H17X 2823   4.589   7.050   8.979 -0.0425  0.3764  1.3195
   21SAPC  H17Y 2824   4.607   7.138   8.831  2.2892 -3.9773 -0.2245
   21SAPC  C318 2825   4.531   7.260   8.991  0.1422  0.7289 -0.1479
   21SAPC  H18X 2826   4.551   7.358   8.941 -0.6789  0.9900  0.0279
   21SAPC  H18Y 2827   4.539   7.285   9.099  1.6587  2.9672 -0.7411
   21SAPC  H18Z 2828   4.422   7.244   8.975 -0.4420  1.1078  3.0693
   22SAPC     N 2829   3.396   4.535  10.747 -0.6539  0.3006 -0.2012
   22SAPC   C12 2830   3.508   4.531  10.640  0.4790  0.2925 -0.0175
   22SAPC  H12A 2831   3.472   4.586  10.555  0.5317  1.6114  0.7967
   22SAPC  H12B 2832   3.518   4.437  10.588  0.2239  1.3118 -1.9568
   22SAPC   C13 2833   3.271   4.459  10.703 -0.7103 -0.0055 -0.3888
   22SAPC  H13A 2834   3.289   4.355  10.678  0.6452  0.3847 -1.0838
   22SAPC  H13B 2835   3.194   4.467  10.778  0.8698  0.1879  1.2670
   22SAPC  H13C 2836   3.231   4.514  10.620  1.1128  1.0539 -0.6042
   22SAPC   C14 2837   3.436   4.466  10.866 -0.0209  0.8246  0.4657
   22SAPC  H14A 2838   3.433   4.358  10.859  2.1517  0.5169  3.0522
   22SAPC  H14B 2839   3.529   4.502  10.909  1.1895 -1.9187  0.2582
   22SAPC  H14C 2840   3.365   4.480  10.946  0.5189 -0.1579  1.1302
   22SAPC   C15 2841   3.350   4.672  10.778 -0.0670 -0.3618  0.3258
   22SAPC  H15A 2842   3.259   4.679  10.836  0.7235 -2.2440  1.8510
   22SAPC  H15B 2843   3.438   4.721  10.816 -0.3244  0.4584 -0.1254
   22SAPC  H15C 2844   3.314   4.718  10.687  2.4477  0.9570 -0.0437
   22SAPC   C11 2845   3.641   4.582  10.671  0.6736  0.7374 -0.3759
   22SAPC  H11A 2846   3.627   4.671  10.737  1.1279  0.8611 -0.4457
   22SAPC  H11B 2847   3.697   4.603  10.578  1.4397  1.1068  0.1567
   22SAPC     P 2848   3.820   4.506  10.843 -0.3009 -0.3107 -0.2878
   22SAPC   O13 2849   3.787   4.625  10.926  0.3933 -0.0103  0.3731
   22SAPC   O14 2850   3.847   4.380  10.918 -0.3066  0.6616  0.2734
   22SAPC   O12 2851   3.715   4.477  10.731  0.0893  0.1488 -0.4217
   22SAPC   O11 2852   3.950   4.534  10.759 -0.0914  0.4137  0.1407
   22SAPC    C1 2853   4.012   4.657  10.726 -0.6171  0.3485 -0.6779
   22SAPC    HA 2854   3.925   4.723  10.705  0.6370  2.3215  0.1986
   22SAPC    HB 2855   4.048   4.705  10.819  0.4025  1.1339 -1.4754
   22SAPC    C2 2856   4.110   4.655  10.610 -1.3570  0.0138  0.5266
   22SAPC    HS 2857   4.133   4.758  10.575  0.1810 -1.0768 -1.7492
   22SAPC   O21 2858   4.067   4.570  10.502 -0.2883 -0.0064  0.4307
   22SAPC   C21 2859   3.948   4.603  10.448 -0.6794  0.4600  0.0200
   22SAPC   O22 2860   3.885   4.700  10.477  0.1550  0.4005  0.4720
   22SAPC   C22 2861   3.907   4.492  10.355 -0.0687 -0.0275 -0.0870
   22SAPC   H2R 2862   3.917   4.399  10.416 -0.0302  0.2865  0.3899
   22SAPC   H2S 2863   3.801   4.507  10.327 -0.3188 -0.8422  0.4064
   22SAPC    C3 2864   4.248   4.606  10.662  0.4530 -0.9716  0.9287
   22SAPC    HX 2865   4.246   4.495  10.671  0.0283 -0.9274  1.4098
   22SAPC    HY 2866   4.260   4.648  10.764  0.2177 -0.8962  0.9258
   22SAPC   O31 2867   4.351   4.657  10.574  0.0878  0.2477  0.4209
   22SAPC   C31 2868   4.381   4.585  10.473  0.2728  0.5432  0.9201
   22SAPC   O32 2869   4.363   4.463  10.467  0.0106  0.6868  0.0608
   22SAPC   C32 2870   4.458   4.664  10.368  0.1889  0.4382  0.0080
   22SAPC   H2X 2871   4.547   4.694  10.425  0.5713  0.9005 -0.8284
   22SAPC   H2Y 2872   4.405   4.760  10.352  0.2823  0.7489  1.5224
   22SAPC   C23 2873   3.996   4.477  10.228  0.3227  0.5991 -0.7194
   22SAPC   H3R 2874   4.096   4.447  10.266 -0.2065 -2.6887 -1.7342
   22SAPC   H3S 2875   4.003   4.575  10.178  0.9751  1.2035  0.5478
   22SAPC   C24 2876   3.944   4.377  10.125 -0.1636  0.3425 -0.0364
   22SAPC   H4R 2877   3.919   4.288  10.187  0.0997 -1.4263 -2.4377
   22SAPC   H4S 2878   4.028   4.347  10.060  1.2222  1.8655  1.0080
   22SAPC   C25 2879   3.819   4.426  10.058 -0.1559  0.5151 -0.3601
   22SAPC   H5R 2880   3.738   4.441  10.131 -0.1837  3.7137 -1.0148
   22SAPC   C26 2881   3.787   4.431   9.920 -0.0689 -0.8082 -0.3109
   22SAPC   H6R 2882   3.691   4.467   9.879  0.8322  1.6096 -0.3497
   22SAPC   C27 2883   3.887   4.391   9.811  0.2314  0.0001  0.0655
   22SAPC   H7R 2884   3.930   4.292   9.836  0.2954  0.0625  0.2048
   22SAPC   H7S 2885   3.975   4.459   9.811 -0.0142  0.3701  2.5215
   22SAPC   C28 2886   3.821   4.373   9.675  0.3516  0.6616 -0.0440
   22SAPC   H8R 2887   3.725   4.320   9.678 -0.5768  2.2033 -1.4429
   22SAPC   C29 2888   3.873   4.389   9.553 -0.1516 -0.0301 -1.3070
   22SAPC   H9R 2889   3.812   4.370   9.463 -2.4545  0.3917  0.1463
   22SAPC  C210 2890   4.008   4.451   9.529  0.6802 -0.0177  0.6477
   22SAPC  H10R 2891   4.051   4.421   9.431  0.8084  1.1318  0.3441
   22SAPC  H10S 2892   4.079   4.411   9.604 -0.3588  1.4015  2.4203
   22SAPC  C211 2893   4.002   4.602   9.543  0.0215 -0.2185 -0.4084
   22SAPC  H11R 2894   4.043   4.648   9.635  1.4133 -0.1454 -1.0445
   22SAPC  C212 2895   3.963   4.681   9.445  0.2337  0.6751  0.1793
   22SAPC  H12R 2896   3.972   4.790   9.450  0.2630  0.8988 -3.4548
   22SAPC  C213 2897   3.921   4.633   9.303  0.5613 -0.1121  0.1268
   22SAPC  H13R 2898   3.820   4.587   9.305  0.1560  0.6886 -1.5262
   22SAPC  H13S 2899   3.995   4.563   9.259  0.0471 -1.6670  1.6627
   22SAPC  C214 2900   3.914   4.746   9.208  0.2368 -0.7142  0.1501
   22SAPC  H14R 2901   4.003   4.757   9.145 -0.3955  2.1816 -0.2870
   22SAPC  C215 2902   3.828   4.849   9.213 -0.3467  0.2743  0.5827
   22SAPC  H15R 2903   3.835   4.917   9.128 -0.7205 -0.6287 -0.1827
   22SAPC  C216 2904   3.718   4.874   9.305 -0.1695 -0.3365  0.4120
   22SAPC  H16R 2905   3.704   4.797   9.384 -1.8982 -1.4369 -0.9266
   22SAPC  H16S 2906   3.618   4.874   9.256 -0.4089  1.9810  0.8525
   22SAPC  C217 2907   3.734   5.013   9.374 -0.1134 -0.2565 -0.3614
   22SAPC  H17R 2908   3.836   5.031   9.414  0.2065  0.0055 -1.2941
   22SAPC  H17S 2909   3.668   5.003   9.463 -0.2528 -1.0046 -0.5506
   22SAPC  C218 2910   3.701   5.137   9.283 -0.2821 -0.3296 -0.3162
   22SAPC  H18R 2911   3.599   5.117   9.242  0.1541 -3.0887 -0.1921
   22SAPC  H18S 2912   3.778   5.144   9.203  1.7253  3.1719  1.8105
   22SAPC  C219 2913   3.689   5.268   9.360 -0.1059  0.2273 -0.7379
   22SAPC  H19R 2914   3.793   5.291   9.392  0.0188  1.5155 -2.0372
   22SAPC  H19S 2915   3.634   5.254   9.455  2.9131  0.2096  1.0909
   22SAPC  C220 2916   3.645   5.400   9.284  0.1636  0.3951  0.5425
   22SAPC  H20R 2917   3.716   5.418   9.201 -2.5167  2.1554 -1.4626
   22SAPC  H20S 2918   3.641   5.493   9.346 -0.9435 -0.0221  1.1151
   22SAPC  H20T 2919   3.552   5.390   9.224  0.7743 -0.5243 -0.2563
   22SAPC   C33 2920   4.493   4.591  10.237  0.5884  0.8537 -0.1380
   22SAPC   H3X 2921   4.525   4.488  10.260 -2.6432 -0.0945  0.3407
   22SAPC   H3Y 2922   4.574   4.647  10.186  1.9338 -2.7101 -2.0249
   22SAPC   C34 2923   4.372   4.584  10.145  0.0606 -0.0649 -0.5545
   22SAPC   H4X 2924   4.351   4.683  10.101  1.1223  0.2901 -0.2582
   22SAPC   H4Y 2925   4.280   4.548  10.198  0.5434 -0.8893 -0.2669
   22SAPC   C35 2926   4.383   4.479  10.043  0.4285  0.4602  0.0165
   22SAPC   H5X 2927   4.378   4.377  10.086 -0.9450  1.4096  2.2257
   22SAPC   H5Y 2928   4.484   4.477   9.997  0.8956 -2.6284  1.0702
   22SAPC   C36 2929   4.289   4.483   9.925  0.5441 -0.4085  0.1005
   22SAPC   H6X 2930   4.187   4.482   9.969 -0.4229  2.5238 -1.9538
   22SAPC   H6Y 2931   4.302   4.387   9.869 -0.7201 -0.6225  0.1625
   22SAPC   C37 2932   4.309   4.600   9.828  0.4998 -0.1468 -0.5091
   22SAPC   H7X 2933   4.271   4.696   9.869 -2.1558 -1.3044 -0.1807
   22SAPC   H7Y 2934   4.253   4.582   9.734 -0.2810  0.8382 -0.2336
   22SAPC   C38 2935   4.457   4.622   9.775 -0.0535 -0.7243 -0.3931
   22SAPC   H8X 2936   4.492   4.531   9.722  1.8775 -1.2962  1.7502
   22SAPC   H8Y 2937   4.532   4.633   9.856  1.0891  4.1077 -1.9604
   22SAPC   C39 2938   4.475   4.751   9.688  0.4793 -0.1296 -0.0302
   22SAPC   H9X 2939   4.577   4.745   9.643  0.6628 -2.8442  0.6367
   22SAPC   H9Y 2940   4.479   4.841   9.753  2.3758  1.2647 -1.9813
   22SAPC  C310 2941   4.378   4.775   9.573  0.1677  0.3042  0.5222
   22SAPC  H10X 2942   4.283   4.775   9.631 -0.4731 -0.5516 -0.5167
   22SAPC  H10Y 2943   4.391   4.689   9.504 -1.3398  0.7634 -0.3552
   22SAPC  C311 2944   4.399   4.908   9.505  0.1093  0.0111  0.2648
   22SAPC  H11X 2945   4.508   4.925   9.492  0.3118  1.1033  3.1268
   22SAPC  H11Y 2946   4.383   4.987   9.582 -1.5018  0.6720 -0.7304
   22SAPC  C312 2947   4.328   4.943   9.374  0.1544 -0.3433 -0.9236
   22SAPC  H12X 2948   4.218   4.939   9.388  0.1201  1.3226 -0.6055
   22SAPC  H12Y 2949   4.348   4.871   9.292  0.8115 -1.0682 -0.1293
   22SAPC  C313 2950   4.355   5.089   9.329 -0.1157 -0.1130 -0.5938
   22SAPC  H13X 2951   4.451   5.080   9.272  1.1270  1.6018  1.1416
   22SAPC  H13Y 2952   4.380   5.167   9.404 -2.7608  0.6772 -0.4893
   22SAPC  C314 2953   4.256   5.166   9.246 -0.2990  0.1782  0.6049
   22SAPC  H14X 2954   4.271   5.276   9.245  0.5396  0.0702 -0.3525
   22SAPC  H14Y 2955   4.154   5.145   9.285  0.4171 -5.3096 -0.0226
   22SAPC  C315 2956   4.286   5.143   9.095 -0.0374 -0.1677 -0.1588
   22SAPC  H15X 2957   4.255   5.037   9.092  1.2402 -0.5206 -1.0732
   22SAPC  H15Y 2958   4.394   5.153   9.070 -0.3539 -0.3094 -1.6381
   22SAPC  C316 2959   4.207   5.234   9.001  0.2527 -0.1135 -0.1224
   22SAPC  H16X 2960   4.252   5.335   8.987 -1.0145  0.4457 -0.2539
   22SAPC  H16Y 2961   4.104   5.236   9.042 -0.1452 -3.2619 -0.8838
   22SAPC  C317 2962   4.186   5.178   8.859 -0.3047  0.6661  0.2292
   22SAPC  H17X 2963   4.150   5.075   8.878 -0.1927  0.6609  0.4178
   22SAPC  H17Y 2964   4.279   5.169   8.798 -1.4583  0.4995 -1.5275
   22SAPC  C318 2965   4.071   5.234   8.773  0.4236 -1.1311 -0.1314
   22SAPC  H18X 2966   4.047   5.172   8.684  0.7195  0.3243 -1.2483
   22SAPC  H18Y 2967   4.096   5.340   8.751  2.0993 -1.7666 -1.3706
   22SAPC  H18Z 2968   3.981   5.247   8.836 -0.3273  0.3176 -1.4914
   23SAPC     N 2969   5.315   6.435  10.716 -0.1572  0.1028 -0.0989
   23SAPC   C12 2970   5.287   6.352  10.597 -0.5265 -0.3104  0.1339
   23SAPC  H12A 2971   5.377   6.332  10.540 -0.8013  0.4328 -0.5661
   23SAPC  H12B 2972   5.226   6.414  10.533  0.0237 -0.1081 -0.2043
   23SAPC   C13 2973   5.191   6.465  10.786  1.0701  0.4074  0.6734
   23SAPC  H13A 2974   5.133   6.546  10.743 -0.0241  0.5937  2.4531
   23SAPC  H13B 2975   5.126   6.379  10.793  0.6198  0.7153  0.3116
   23SAPC  H13C 2976   5.212   6.500  10.886 -0.9836  2.3867  0.4624
   23SAPC   C14 2977   5.407   6.358  10.794 -0.1636 -0.4818 -0.0329
   23SAPC  H14A 2978   5.438   6.401  10.888  0.3011  0.6318 -0.6860
   23SAPC  H14B 2979   5.352   6.267  10.812  2.5507 -1.7421  2.2353
   23SAPC  H14C 2980   5.497   6.336  10.739  0.2613  0.3338  0.3307
   23SAPC   C15 2981   5.390   6.560  10.664  0.0479  0.2165 -0.3034
   23SAPC  H15A 2982   5.322   6.635  10.627 -0.7535 -1.2023 -1.7965
   23SAPC  H15B 2983   5.446   6.599  10.747  0.3911  3.0108 -1.8041
   23SAPC  H15C 2984   5.445   6.524  10.578  0.0643  1.5174 -0.8428
   23SAPC   C11 2985   5.216   6.215  10.613  0.3184 -0.0375  0.8175
   23SAPC  H11A 2986   5.202   6.184  10.507  0.2502 -0.3589  0.9207
   23SAPC  H11B 2987   5.112   6.234  10.646 -0.2363 -0.9715 -0.3857
   23SAPC     P 2988   5.232   5.977  10.703  0.5567  0.1069 -0.4011
   23SAPC   O13 2989   5.326   5.887  10.773 -0.0688 -0.9048 -0.5098
   23SAPC   O14 2990   5.092   5.985  10.753 -0.2787  0.5715 -0.3207
   23SAPC   O12 2991   5.281   6.120  10.693 -0.6528 -0.2558 -0.0142
   23SAPC   O11 2992   5.223   5.934  10.547 -0.1513  0.0411 -0.2021
   23SAPC    C1 2993   5.342   5.895  10.475 -0.4646 -0.2153  0.5553
   23SAPC    HA 2994   5.435   5.913  10.534  0.0882  0.6428 -0.5618
   23SAPC    HB 2995   5.343   5.784  10.464 -2.6111 -0.1140 -0.9688
   23SAPC    C2 2996   5.360   5.970  10.341  0.0118 -0.5501  0.4539
   23SAPC    HS 2997   5.326   6.075  10.354  2.0701  0.3041 -0.8491
   23SAPC   O21 2998   5.266   5.903  10.247  0.0616 -0.2016 -0.2608
   23SAPC   C21 2999   5.149   5.940  10.234 -0.1531  0.2365  0.6451
   23SAPC   O22 3000   5.098   6.035  10.291 -0.0442  0.3116  0.3003
   23SAPC   C22 3001   5.085   5.846  10.134 -0.0650  0.6767 -0.5738
   23SAPC   H2R 3002   5.078   5.747  10.183  0.3426 -0.6209 -3.0518
   23SAPC   H2S 3003   4.984   5.889  10.116  0.3004  2.0655  0.5572
   23SAPC    C3 3004   5.510   5.956  10.289  0.4524  0.1716  0.1772
   23SAPC    HX 3005   5.535   5.848  10.295  2.4844  0.7269  2.6007
   23SAPC    HY 3006   5.567   6.001  10.373  2.4043  0.5039 -1.3071
   23SAPC   O31 3007   5.537   6.027  10.162 -0.7266  0.2278 -0.2635
   23SAPC   C31 3008   5.666   6.026  10.149 -0.7113  0.1864 -0.3393
   23SAPC   O32 3009   5.748   5.980  10.226  0.9010 -0.0510  0.2805
   23SAPC   C32 3010   5.703   6.102  10.018  0.1512 -0.1126 -0.1523
   23SAPC   H2X 3011   5.711   6.210  10.042 -0.7747 -0.5718  2.5149
   23SAPC   H2Y 3012   5.624   6.071   9.946  1.3889 -0.1330 -1.5096
   23SAPC   C23 3013   5.158   5.834  10.007  0.4208 -0.3344 -0.7026
   23SAPC   H3R 3014   5.268   5.852  10.004  0.1538  1.5088  0.0066
   23SAPC   H3S 3015   5.117   5.900   9.927  0.9252 -0.4322 -1.0505
   23SAPC   C24 3016   5.153   5.687   9.961  0.2167 -0.9235  0.1813
   23SAPC   H4R 3017   5.183   5.621  10.046  0.9452  1.0362  1.4716
   23SAPC   H4S 3018   5.232   5.679   9.884 -0.1056  1.8934 -0.4777
   23SAPC   C25 3019   5.022   5.648   9.893 -0.3698  0.0950 -0.2686
   23SAPC   H5R 3020   4.933   5.643   9.958  0.5943  1.0846  1.1494
   23SAPC   C26 3021   5.013   5.618   9.763 -0.2353  0.1119  0.3192
   23SAPC   H6R 3022   4.911   5.605   9.725 -0.2354  1.4867 -0.2183
   23SAPC   C27 3023   5.121   5.632   9.665 -0.3619 -0.1834 -0.3217
   23SAPC   H7R 3024   5.184   5.541   9.676 -1.0517 -0.8202 -1.5666
   23SAPC   H7S 3025   5.188   5.720   9.672 -0.4554  0.2138 -3.7320
   23SAPC   C28 3026   5.066   5.622   9.521 -0.5608  0.4113 -0.1098
   23SAPC   H8R 3027   5.018   5.525   9.503 -2.5246  1.4471 -0.5569
   23SAPC   C29 3028   5.075   5.707   9.419 -0.6381  0.4607  0.3323
   23SAPC   H9R 3029   5.029   5.689   9.321  0.1655  1.1058 -0.1731
   23SAPC  C210 3030   5.147   5.842   9.418  0.7590 -0.5985  0.1386
   23SAPC  H10R 3031   5.213   5.839   9.507  2.1425 -0.0145 -0.8485
   23SAPC  H10S 3032   5.076   5.927   9.426  0.8716 -0.3718 -1.1309
   23SAPC  C211 3033   5.238   5.842   9.293 -0.1801 -0.1165 -0.0617
   23SAPC  H11R 3034   5.345   5.832   9.318 -0.4754 -1.2296  0.7900
   23SAPC  C212 3035   5.200   5.868   9.162 -0.2532 -0.2327 -0.4572
   23SAPC  H12R 3036   5.272   5.868   9.079 -0.6713  0.0891 -0.8141
   23SAPC  C213 3037   5.059   5.881   9.119  0.1313  0.5064  0.2546
   23SAPC  H13R 3038   4.985   5.886   9.202 -2.1857  0.4642 -1.7620
   23SAPC  H13S 3039   5.035   5.783   9.072 -1.5051 -0.2929  2.6335
   23SAPC  C214 3040   5.051   6.001   9.017 -0.7840  0.0374  0.3263
   23SAPC  H14R 3041   5.022   6.100   9.056  1.6109  0.6163  0.6983
   23SAPC  C215 3042   5.069   5.996   8.885 -0.3337  0.3453  0.2479
   23SAPC  H15R 3043   5.063   6.097   8.841  2.8498  0.7616  0.5944
   23SAPC  C216 3044   5.117   5.877   8.802 -0.1082 -0.1646 -0.6226
   23SAPC  H16R 3045   5.156   5.801   8.873  1.8889  0.0929 -1.4299
   23SAPC  H16S 3046   5.197   5.912   8.735 -1.1172  0.9400 -1.2727
   23SAPC  C217 3047   5.006   5.809   8.710 -0.1211  0.0340  0.1934
   23SAPC  H17R 3048   4.940   5.884   8.662  0.9925  1.2007  0.4460
   23SAPC  H17S 3049   4.936   5.757   8.779 -1.1996 -1.7314 -2.1731
   23SAPC  C218 3050   5.069   5.702   8.633 -0.0520  0.4669 -0.1183
   23SAPC  H18R 3051   5.069   5.608   8.692  1.0994  0.2137 -0.5140
   23SAPC  H18S 3052   5.178   5.722   8.625  0.1740 -1.0434 -0.9168
   23SAPC  C219 3053   5.009   5.661   8.500  0.2625  0.2779  0.9618
   23SAPC  H19R 3054   5.045   5.558   8.480 -0.5791  0.3756 -1.2287
   23SAPC  H19S 3055   5.029   5.744   8.428 -0.2803 -0.0418  0.4360
   23SAPC  C220 3056   4.856   5.630   8.502  0.3719  0.6829 -0.5422
   23SAPC  H20R 3057   4.844   5.532   8.554 -0.9402  2.4471  2.6822
   23SAPC  H20S 3058   4.817   5.612   8.400 -0.7769  0.8441 -0.1529
   23SAPC  H20T 3059   4.793   5.702   8.559  0.5586  0.4351 -0.0188
   23SAPC   C33 3060   5.842   6.058   9.957 -0.5465  0.1731  0.7612
   23SAPC   H3X 3061   5.837   5.950   9.932 -0.1359  0.0368  1.2408
   23SAPC   H3Y 3062   5.923   6.077  10.031 -0.8788  1.5338  0.7868
   23SAPC   C34 3063   5.875   6.134   9.827 -0.6138  0.2690 -0.0347
   23SAPC   H4X 3064   5.967   6.097   9.777 -0.2595  0.0199  0.7870
   23SAPC   H4Y 3065   5.878   6.242   9.852 -0.3955  0.1204  0.5927
   23SAPC   C35 3066   5.757   6.118   9.722 -0.1928  0.0431  0.3444
   23SAPC   H5X 3067   5.693   6.208   9.727 -1.9015 -1.0145 -1.7872
   23SAPC   H5Y 3068   5.695   6.029   9.746  2.8922 -1.8510  1.6442
   23SAPC   C36 3069   5.818   6.112   9.583 -0.6813 -0.1081  0.4693
   23SAPC   H6X 3070   5.892   6.029   9.574  0.4151  0.9751 -0.8045
   23SAPC   H6Y 3071   5.884   6.201   9.583  0.4855 -0.9547  1.5155
   23SAPC   C37 3072   5.720   6.104   9.469  0.1124 -0.3227  0.5257
   23SAPC   H7X 3073   5.657   6.195   9.465 -1.1106 -1.1888 -0.2451
   23SAPC   H7Y 3074   5.652   6.020   9.496 -0.1762 -0.3244 -0.2062
   23SAPC   C38 3075   5.800   6.071   9.338  0.3629  0.4112  0.0626
   23SAPC   H8X 3076   5.867   5.986   9.364  0.7887  1.0541  1.0897
   23SAPC   H8Y 3077   5.872   6.153   9.318 -0.4893  1.1655  0.0737
   23SAPC   C39 3078   5.703   6.047   9.226 -0.1004  0.3421  0.4630
   23SAPC   H9X 3079   5.628   6.129   9.224 -3.6195 -2.7631 -2.0571
   23SAPC   H9Y 3080   5.654   5.954   9.262 -0.4599 -0.8406 -2.8961
   23SAPC  C310 3081   5.754   6.004   9.094  0.6820  0.0397 -0.1506
   23SAPC  H10X 3082   5.674   5.946   9.043  1.2099 -1.4346  0.6753
   23SAPC  H10Y 3083   5.822   5.916   9.103 -0.2937 -0.7077 -0.0331
   23SAPC  C311 3084   5.802   6.112   9.004  0.4358  0.9087 -0.3980
   23SAPC  H11X 3085   5.843   6.068   8.910  1.2801 -0.3563  0.5511
   23SAPC  H11Y 3086   5.885   6.174   9.042 -0.2714  0.6841  1.5398
   23SAPC  C312 3087   5.680   6.205   8.974 -0.5243 -0.4417  0.3211
   23SAPC  H12X 3088   5.684   6.298   9.036 -3.2792 -1.1170  1.6105
   23SAPC  H12Y 3089   5.587   6.150   9.000 -1.1160  0.4564  0.1340
   23SAPC  C313 3090   5.675   6.255   8.834  0.5027  0.3951  0.6963
   23SAPC  H13X 3091   5.777   6.290   8.805 -0.3530  1.7896 -0.7497
   23SAPC  H13Y 3092   5.605   6.341   8.828 -0.0751 -0.1400 -0.5475
   23SAPC  C314 3093   5.617   6.152   8.736 -0.0149 -0.1029  0.7272
   23SAPC  H14X 3094   5.513   6.129   8.766 -0.1653 -1.5745 -0.8369
   23SAPC  H14Y 3095   5.671   6.055   8.748 -0.9988 -0.6803  0.5383
   23SAPC  C315 3096   5.631   6.196   8.591  0.5570  0.1541  0.5574
   23SAPC  H15X 3097   5.737   6.224   8.575  0.3402 -0.3037 -1.8665
   23SAPC  H15Y 3098   5.568   6.283   8.563  0.4430 -0.0905  0.0594
   23SAPC  C316 3099   5.609   6.084   8.489 -0.6275  0.7181  0.2200
   23SAPC  H16X 3100   5.694   6.015   8.506 -0.1038  1.1279 -0.7212
   23SAPC  H16Y 3101   5.607   6.124   8.385 -0.6852  0.1100 -0.0146
   23SAPC  C317 3102   5.474   6.008   8.517  0.1708 -0.2922  0.6530
   23SAPC  H17X 3103   5.468   5.955   8.615 -0.2248 -2.4051 -0.4733
   23SAPC  H17Y 3104   5.479   5.928   8.441  0.7410 -2.2701  2.7052
   23SAPC  C318 3105   5.347   6.083   8.485  0.6997  0.8327  0.8794
   23SAPC  H18X 3106   5.259   6.018   8.505 -0.3503  1.9780  0.0675
   23SAPC  H18Y 3107   5.348   6.108   8.377 -0.3831  0.4562  0.7796
   23SAPC  H18Z 3108   5.344   6.180   8.539  1.6348  1.2764  0.1589
   24SAPC     N 3109   1.062   6.347  11.314 -0.3142  0.0292 -0.0795
   24SAPC   C12 3110   1.146   6.436  11.222  0.5831 -0.0654  0.5580
   24SAPC  H12A 3111   1.248   6.425  11.257  0.9809  2.2388  0.1787
   24SAPC  H12B 3112   1.109   6.535  11.242  0.2659  0.6391 -3.1064
   24SAPC   C13 3113   1.072   6.385  11.457 -0.2826  0.2133 -0.1862
   24SAPC  H13A 3114   1.012   6.318  11.515  0.2770 -2.0408 -2.1177
   24SAPC  H13B 3115   1.166   6.366  11.507 -2.1331 -1.8909  2.5735
   24SAPC  H13C 3116   1.055   6.490  11.478  1.8330  0.3800  0.8203
   24SAPC   C14 3117   0.916   6.350  11.274  0.5832 -0.3094 -0.0427
   24SAPC  H14A 3118   0.872   6.443  11.306 -0.3274 -1.1474  1.1767
   24SAPC  H14B 3119   0.903   6.347  11.167 -0.8877  0.6637  0.1050
   24SAPC  H14C 3120   0.860   6.264  11.307 -0.2789  0.9682  1.9249
   24SAPC   C15 3121   1.106   6.202  11.294  0.1070  0.5393 -0.0888
   24SAPC  H15A 3122   1.038   6.130  11.337  0.9526  0.9355  1.9584
   24SAPC  H15B 3123   1.129   6.173  11.192 -0.4234  1.3421 -0.4486
   24SAPC  H15C 3124   1.198   6.189  11.349  0.6769 -0.2556 -1.1883
   24SAPC   C11 3125   1.132   6.432  11.066 -0.5190  0.3535 -0.2645
   24SAPC  H11A 3126   1.135   6.329  11.024  0.5373 -0.4167  1.6663
   24SAPC  H11B 3127   1.220   6.488  11.029  0.5437 -1.6508 -0.7979
   24SAPC     P 3128   1.000   6.640  10.976  0.0141 -0.0198  0.1797
   24SAPC   O13 3129   0.855   6.679  10.958  0.0132 -0.2129  0.2974
   24SAPC   O14 3130   1.069   6.731  11.066  0.0602 -0.0741 -0.1585
   24SAPC   O12 3131   1.007   6.497  11.033  0.0711  1.0010  0.8074
   24SAPC   O11 3132   1.075   6.633  10.839 -0.2704 -0.1207 -0.2802
   24SAPC    C1 3133   1.017   6.575  10.725 -0.2839 -0.1263 -0.0208
   24SAPC    HA 3134   0.954   6.488  10.752 -0.3768 -0.7506 -2.1249
   24SAPC    HB 3135   0.962   6.652  10.667  1.5756  1.0377 -0.2694
   24SAPC    C2 3136   1.133   6.523  10.634  0.1913 -0.2968 -0.6398
   24SAPC    HS 3137   1.175   6.611  10.580 -1.4944 -0.7287 -2.7391
   24SAPC   O21 3138   1.079   6.428  10.543 -0.4177  0.3746  0.2890
   24SAPC   C21 3139   1.007   6.476  10.438  0.2641  0.3235  0.1013
   24SAPC   O22 3140   0.978   6.593  10.423  0.1076 -0.3783 -0.3224
   24SAPC   C22 3141   0.978   6.366  10.337  0.2370  0.7624  0.2284
   24SAPC   H2R 3142   1.079   6.331  10.308  2.2008  4.8624  1.7870
   24SAPC   H2S 3143   0.922   6.282  10.383 -0.2128  2.0733  2.1157
   24SAPC    C3 3144   1.253   6.460  10.715 -0.5536  0.1645  0.8906
   24SAPC    HX 3145   1.219   6.370  10.772 -2.6691 -0.2049 -0.9031
   24SAPC    HY 3146   1.286   6.536  10.789  1.3656  2.5437 -2.3225
   24SAPC   O31 3147   1.365   6.433  10.624  0.2099  0.5654  0.5650
   24SAPC   C31 3148   1.372   6.311  10.564 -0.1741 -0.5282 -0.1259
   24SAPC   O32 3149   1.295   6.217  10.579  0.3454 -0.5380  0.1626
   24SAPC   C32 3150   1.482   6.317  10.455 -0.4570  1.5854 -0.4118
   24SAPC   H2X 3151   1.574   6.347  10.510  0.0749  0.0414 -0.4245
   24SAPC   H2Y 3152   1.457   6.395  10.381 -1.9472  2.1042  0.6081
   24SAPC   C23 3153   0.916   6.419  10.210  0.7357  0.4634 -0.0726
   24SAPC   H3R 3154   0.982   6.499  10.169  0.6268  1.5534  1.7767
   24SAPC   H3S 3155   0.816   6.466  10.226  0.0544 -0.9364 -0.2051
   24SAPC   C24 3156   0.894   6.300  10.108 -0.3544  0.1400  0.4834
   24SAPC   H4R 3157   0.818   6.233  10.154  1.0360 -1.9552 -0.2102
   24SAPC   H4S 3158   0.985   6.238  10.094 -0.8588 -0.7845  1.2360
   24SAPC   C25 3159   0.839   6.360   9.981  0.0619  0.2502  0.8270
   24SAPC   H5R 3160   0.761   6.437   9.987  0.6595  0.9524 -0.1851
   24SAPC   C26 3161   0.858   6.326   9.851  0.3839  0.6170  0.1665
   24SAPC   H6R 3162   0.809   6.387   9.774 -1.1487 -1.8236 -0.8833
   24SAPC   C27 3163   0.952   6.220   9.798  0.1732  0.1682  0.7960
   24SAPC   H7R 3164   0.965   6.135   9.869  2.6658  0.6512  0.9724
   24SAPC   H7S 3165   1.048   6.277   9.799 -0.5184  1.3424  0.6998
   24SAPC   C28 3166   0.906   6.178   9.661 -0.0734 -0.4711 -0.6569
   24SAPC   H8R 3167   0.803   6.141   9.672 -1.6590  3.1779 -2.2474
   24SAPC   C29 3168   0.970   6.192   9.548 -0.0822  0.0196 -0.0333
   24SAPC   H9R 3169   0.915   6.170   9.456 -1.2911  1.2686  0.3745
   24SAPC  C210 3170   1.107   6.243   9.534 -0.5542  0.4035  0.8345
   24SAPC  H10R 3171   1.169   6.235   9.625 -1.1461  1.0827  1.3058
   24SAPC  H10S 3172   1.102   6.350   9.503  1.7447  0.2329 -0.2500
   24SAPC  C211 3173   1.183   6.173   9.427 -0.6623 -0.1650  0.2724
   24SAPC  H11R 3174   1.227   6.079   9.463  1.6770  0.8623  0.1236
   24SAPC  C212 3175   1.197   6.206   9.293  0.2109 -0.1357 -1.0387
   24SAPC  H12R 3176   1.248   6.138   9.223  2.3896 -1.3361  1.6401
   24SAPC  C213 3177   1.128   6.329   9.231 -0.0440  0.5578  0.0253
   24SAPC  H13R 3178   1.191   6.412   9.268 -1.0137  1.4767 -0.3333
   24SAPC  H13S 3179   1.023   6.338   9.268 -0.4706 -0.1395 -0.9737
   24SAPC  C214 3180   1.110   6.340   9.082 -0.0456 -0.0439 -0.7521
   24SAPC  H14R 3181   1.037   6.273   9.033 -0.8972  1.1604 -1.1647
   24SAPC  C215 3182   1.150   6.446   9.010  0.1157  0.2034 -0.1774
   24SAPC  H15R 3183   1.122   6.452   8.904  0.2421 -1.7704 -0.3458
   24SAPC  C216 3184   1.226   6.572   9.046 -0.3439  0.1487 -0.4668
   24SAPC  H16R 3185   1.216   6.607   9.151  0.4332  0.0314 -0.3545
   24SAPC  H16S 3186   1.205   6.660   8.981 -0.4895  2.6461  2.7889
   24SAPC  C217 3187   1.376   6.541   9.051 -0.4356  0.5210  0.5901
   24SAPC  H17R 3188   1.427   6.560   8.954 -0.8145 -0.9206  0.0936
   24SAPC  H17S 3189   1.397   6.436   9.079 -0.5520  0.5200  0.6723
   24SAPC  C218 3190   1.452   6.620   9.155  0.1860  0.0025  0.6190
   24SAPC  H18R 3191   1.411   6.724   9.154 -1.2790 -0.5332  1.7117
   24SAPC  H18S 3192   1.559   6.619   9.127  0.3710  0.2199  1.2938
   24SAPC  C219 3193   1.434   6.571   9.296 -0.4533  0.3757  1.0597
   24SAPC  H19R 3194   1.436   6.460   9.291 -2.2881  0.3516  0.2110
   24SAPC  H19S 3195   1.327   6.591   9.317 -0.9428 -1.6534  0.5808
   24SAPC  C220 3196   1.528   6.631   9.402 -1.3379 -0.5449  0.3185
   24SAPC  H20R 3197   1.512   6.573   9.496 -2.9532 -0.9682 -0.1999
   24SAPC  H20S 3198   1.522   6.741   9.414  1.6830 -0.4800  1.8578
   24SAPC  H20T 3199   1.630   6.602   9.369 -0.8275  2.3932 -0.8432
   24SAPC   C33 3200   1.487   6.182  10.374 -0.9721  0.3332  0.0108
   24SAPC   H3X 3201   1.478   6.094  10.442 -0.7686 -1.3626 -2.0790
   24SAPC   H3Y 3202   1.586   6.177  10.324 -1.3347  3.1018 -1.0497
   24SAPC   C34 3203   1.384   6.181  10.264  0.9716  0.5558  0.3431
   24SAPC   H4X 3204   1.388   6.271  10.199 -3.4342 -0.9110 -2.1571
   24SAPC   H4Y 3205   1.286   6.193  10.316  1.5712 -0.6132  1.7702
   24SAPC   C35 3206   1.378   6.062  10.162 -0.0701  0.0895 -0.1880
   24SAPC   H5X 3207   1.360   5.973  10.226  2.1643 -0.1888  0.0918
   24SAPC   H5Y 3208   1.481   6.040  10.126 -0.2574 -2.2537  0.6082
   24SAPC   C36 3209   1.263   6.063  10.054  0.7900  1.0600  0.7456
   24SAPC   H6X 3210   1.283   6.140   9.977 -0.8811  2.1594  1.4048
   24SAPC   H6Y 3211   1.163   6.100  10.084 -0.2779 -0.8995 -0.2990
   24SAPC   C37 3212   1.274   5.933   9.971  0.3447 -0.2860  0.0904
   24SAPC   H7X 3213   1.233   5.847  10.027 -0.6041  0.8631  1.2051
   24SAPC   H7Y 3214   1.381   5.906   9.964  0.8091  1.8392 -1.4817
   24SAPC   C38 3215   1.210   5.939   9.831  0.0867  0.7027  0.5693
   24SAPC   H8X 3216   1.257   6.025   9.778  2.0680 -1.6841 -1.6500
   24SAPC   H8Y 3217   1.101   5.952   9.851 -0.4403 -0.7168 -1.2492
   24SAPC   C39 3218   1.223   5.802   9.767 -0.4620  0.3886  0.9252
   24SAPC   H9X 3219   1.128   5.745   9.773  2.1098 -4.3420 -0.6879
   24SAPC   H9Y 3220   1.302   5.742   9.816 -0.0899  2.5136  3.0533
   24SAPC  C310 3221   1.222   5.825   9.617  0.1753  0.1857  0.1390
   24SAPC  H10X 3222   1.298   5.898   9.582 -0.1716 -0.4045 -1.9372
   24SAPC  H10Y 3223   1.122   5.861   9.586  0.4950 -0.4537 -1.7239
   24SAPC  C311 3224   1.248   5.700   9.538 -0.4998  0.0307  0.0932
   24SAPC  H11X 3225   1.198   5.614   9.587 -1.8927  0.0593 -1.2441
   24SAPC  H11Y 3226   1.357   5.679   9.537 -0.3849  0.6331 -0.5112
   24SAPC  C312 3227   1.196   5.708   9.399 -0.4182 -0.2209 -0.9601
   24SAPC  H12X 3228   1.247   5.799   9.360 -2.5788  1.1894 -0.6320
   24SAPC  H12Y 3229   1.089   5.736   9.412  0.5343  2.0415  2.8093
   24SAPC  C313 3230   1.221   5.584   9.317 -0.0794 -0.6091 -0.2164
   24SAPC  H13X 3231   1.220   5.497   9.387  2.0854  0.1062  0.7877
   24SAPC  H13Y 3232   1.327   5.590   9.283 -0.1838 -0.3254 -0.4906
   24SAPC  C314 3233   1.128   5.561   9.204 -0.2471  0.1222 -0.4040
   24SAPC  H14X 3234   1.025   5.553   9.244 -0.9730  0.9605 -2.0698
   24SAPC  H14Y 3235   1.149   5.460   9.162  2.3391 -0.8844  3.0504
   24SAPC  C315 3236   1.136   5.665   9.089 -0.2751 -0.2939  0.0717
   24SAPC  H15X 3237   1.233   5.675   9.035 -1.1885 -0.4010 -1.5976
   24SAPC  H15Y 3238   1.124   5.768   9.130 -1.4677  0.2449 -1.5702
   24SAPC  C316 3239   1.028   5.636   8.987 -0.6509 -0.4574  0.8941
   24SAPC  H16X 3240   1.043   5.722   8.918 -0.2505  0.2559  1.8728
   24SAPC  H16Y 3241   0.924   5.644   9.024 -1.1936 -0.7794 -0.5180
   24SAPC  C317 3242   1.054   5.513   8.906  0.2704  0.4240 -0.4058
   24SAPC  H17X 3243   0.965   5.505   8.840  0.6383  3.3774 -1.2829
   24SAPC  H17Y 3244   1.052   5.426   8.975  3.8616  0.2487 -0.4735
   24SAPC  C318 3245   1.171   5.516   8.813 -0.5847 -0.9099 -0.0145
   24SAPC  H18X 3246   1.190   5.416   8.768  0.3978 -0.0695 -1.5036
   24SAPC  H18Y 3247   1.268   5.531   8.866  0.3311 -0.4688 -1.7663
   24SAPC  H18Z 3248   1.165   5.599   8.740 -0.8413  1.0366  2.1582
   25SAPC     N 3249   3.407   4.171   5.776 -0.0992 -0.3018  0.2007
   25SAPC   C12 3250   3.453   4.123   5.916 -0.1946  0.0903  1.0187
   25SAPC  H12A 3251   3.519   4.039   5.898  2.4624  2.6120 -1.6609
   25SAPC  H12B 3252   3.364   4.086   5.965 -0.8972  1.1263  0.5301
   25SAPC   C13 3253   3.526   4.237   5.706  0.7242  0.5822 -0.2469
   25SAPC  H13A 3254   3.531   4.344   5.721 -1.9593  0.8070 -0.6987
   25SAPC  H13B 3255   3.618   4.192   5.739 -0.3160  1.2824  4.0340
   25SAPC  H13C 3256   3.513   4.229   5.599 -3.5819  0.8576  0.1634
   25SAPC   C14 3257   3.346   4.058   5.701  0.1206  0.3431 -0.1739
   25SAPC  H14A 3258   3.272   4.015   5.768  0.4975  1.8453  1.2373
   25SAPC  H14B 3259   3.300   4.091   5.609  1.6373 -0.1329 -1.1185
   25SAPC  H14C 3260   3.417   3.980   5.676 -0.4421  0.2790 -1.5845
   25SAPC   C15 3261   3.308   4.278   5.782  0.3954  0.4407  0.2667
   25SAPC  H15A 3262   3.282   4.322   5.687 -0.3451  0.4871  0.4808
   25SAPC  H15B 3263   3.214   4.245   5.824  0.9480 -0.6902  0.6203
   25SAPC  H15C 3264   3.339   4.358   5.848  2.5636  0.0593 -0.2628
   25SAPC   C11 3265   3.542   4.220   6.006  0.4007 -0.3793  0.5704
   25SAPC  H11A 3266   3.636   4.245   5.952 -1.4966  1.1977 -2.1130
   25SAPC  H11B 3267   3.574   4.164   6.097 -1.9807 -3.2056 -0.2482
   25SAPC     P 3268   3.346   4.331   6.131  0.5746 -0.5092  0.0696
   25SAPC   O13 3269   3.250   4.445   6.107 -0.1476  0.5503  0.1485
   25SAPC   O14 3270   3.281   4.201   6.134  0.1906 -0.2272  0.4595
   25SAPC   O12 3271   3.468   4.337   6.037 -0.0438 -0.7346  0.1765
   25SAPC   O11 3272   3.421   4.364   6.277  0.1698 -0.2003 -0.1303
   25SAPC    C1 3273   3.485   4.493   6.287 -0.2128 -0.6277 -0.0012
   25SAPC    HA 3274   3.500   4.538   6.186 -1.2125 -0.8262 -0.2513
   25SAPC    HB 3275   3.426   4.567   6.345 -0.8216 -0.7191 -0.4958
   25SAPC    C2 3276   3.625   4.480   6.349  0.5706  1.2247  0.3133
   25SAPC    HS 3277   3.676   4.399   6.291  0.5369  1.7742 -0.4920
   25SAPC   O21 3278   3.614   4.429   6.479  0.1634  0.3872 -0.8042
   25SAPC   C21 3279   3.716   4.385   6.547 -0.0587  0.6208 -0.5722
   25SAPC   O22 3280   3.832   4.368   6.509  0.1858 -0.0072  0.1914
   25SAPC   C22 3281   3.675   4.348   6.687 -0.3890 -0.8147 -0.8818
   25SAPC   H2R 3282   3.655   4.444   6.740 -2.7985 -1.5374 -0.4256
   25SAPC   H2S 3283   3.572   4.307   6.681 -0.7387  0.2012 -2.0403
   25SAPC    C3 3284   3.712   4.600   6.341  0.1598 -0.0111  0.3047
   25SAPC    HX 3285   3.734   4.639   6.239 -1.5554 -0.9865 -0.4703
   25SAPC    HY 3286   3.807   4.562   6.384  0.0241 -2.1865 -1.1945
   25SAPC   O31 3287   3.659   4.705   6.416 -0.0104  0.8278  0.5529
   25SAPC   C31 3288   3.715   4.735   6.529  0.3311  0.5251 -0.2374
   25SAPC   O32 3289   3.809   4.678   6.583 -0.2467 -0.2550  0.3270
   25SAPC   C32 3290   3.642   4.849   6.596  0.0808  0.0194  0.0877
   25SAPC   H2X 3291   3.534   4.824   6.593  0.4528 -1.7765  0.7451
   25SAPC   H2Y 3292   3.643   4.938   6.530  1.2220 -0.8732 -1.1107
   25SAPC   C23 3293   3.775   4.263   6.760  0.3514 -0.1870 -0.0439
   25SAPC   H3R 3294   3.878   4.286   6.725  0.9004  0.6063  2.0096
   25SAPC   H3S 3295   3.768   4.160   6.720  0.3003 -0.2135  0.0336
   25SAPC   C24 3296   3.757   4.251   6.916 -0.2377 -0.3956 -0.6282
   25SAPC   H4R 3297   3.832   4.179   6.954 -0.1716 -1.5654 -2.8589
   25SAPC   H4S 3298   3.654   4.218   6.942 -0.3047 -0.8648 -1.4722
   25SAPC   C25 3299   3.787   4.388   6.968  0.1925 -0.5707  0.8591
   25SAPC   H5R 3300   3.743   4.472   6.911 -3.1576 -2.0128  1.1854
   25SAPC   C26 3301   3.848   4.412   7.080 -0.0874 -0.0919  0.6882
   25SAPC   H6R 3302   3.859   4.518   7.107 -1.3069  1.1873 -3.5383
   25SAPC   C27 3303   3.898   4.322   7.185  0.3303  0.3456  0.3584
   25SAPC   H7R 3304   3.969   4.385   7.244  2.3081  0.0680 -1.6546
   25SAPC   H7S 3305   3.960   4.247   7.131  0.8523  1.5297 -0.7030
   25SAPC   C28 3306   3.789   4.260   7.277  0.2951 -0.2128 -0.2383
   25SAPC   H8R 3307   3.700   4.224   7.223  0.7264 -0.8184 -0.5578
   25SAPC   C29 3308   3.804   4.247   7.410 -0.2782  0.6942 -0.0646
   25SAPC   H9R 3309   3.736   4.185   7.469  1.0203 -0.2325  0.4877
   25SAPC  C210 3310   3.929   4.285   7.485 -0.2225 -0.1749 -0.4197
   25SAPC  H10R 3311   3.930   4.394   7.509 -3.6016 -0.2003  0.0367
   25SAPC  H10S 3312   4.021   4.268   7.426  1.1371 -0.2993  1.6809
   25SAPC  C211 3313   3.956   4.206   7.610  0.4360  0.4073 -0.5427
   25SAPC  H11R 3314   4.048   4.146   7.599  0.2961  0.3053 -1.1819
   25SAPC  C212 3315   3.908   4.201   7.738 -0.6127  0.4594  0.1579
   25SAPC  H12R 3316   3.958   4.143   7.816  2.5582  1.0536 -1.3553
   25SAPC  C213 3317   3.795   4.289   7.784 -0.2118  0.6168  0.5393
   25SAPC  H13R 3318   3.751   4.363   7.714 -1.7934  0.3735  1.2732
   25SAPC  H13S 3319   3.836   4.355   7.863  0.0462  1.1683 -0.0485
   25SAPC  C214 3320   3.683   4.213   7.846 -0.1193  0.0608 -0.5817
   25SAPC  H14R 3321   3.627   4.151   7.774 -0.1291  0.8669 -1.2702
   25SAPC  C215 3322   3.631   4.214   7.975 -0.0360 -0.6125 -0.5950
   25SAPC  H15R 3323   3.544   4.153   8.005  0.6458 -0.6283  1.4632
   25SAPC  C216 3324   3.698   4.297   8.093  0.5025 -0.0744 -0.7636
   25SAPC  H16R 3325   3.693   4.405   8.070  0.5152  0.1039  0.0885
   25SAPC  H16S 3326   3.806   4.272   8.096  0.7275  1.0565  2.3520
   25SAPC  C217 3327   3.635   4.281   8.231  0.8745 -0.0844 -0.0387
   25SAPC  H17R 3328   3.634   4.175   8.265  0.2882  0.6167  2.2370
   25SAPC  H17S 3329   3.532   4.323   8.228  0.8338  0.1810  2.9058
   25SAPC  C218 3330   3.723   4.343   8.345 -0.4557 -0.0784 -0.1813
   25SAPC  H18R 3331   3.828   4.311   8.334 -0.3038 -0.5478  2.4608
   25SAPC  H18S 3332   3.689   4.302   8.442 -0.6983  1.4025  0.3809
   25SAPC  C219 3333   3.715   4.493   8.353 -0.1556  0.4081 -0.0807
   25SAPC  H19R 3334   3.631   4.517   8.421  2.3650 -0.7938  3.5736
   25SAPC  H19S 3335   3.689   4.542   8.256 -0.5855  2.2716  0.9629
   25SAPC  C220 3336   3.840   4.555   8.411  0.5793  0.3314  0.2814
   25SAPC  H20R 3337   3.917   4.565   8.332  0.5145  1.3035  0.3378
   25SAPC  H20S 3338   3.868   4.506   8.507 -0.0181  0.5374  0.5632
   25SAPC  H20T 3339   3.817   4.658   8.446  0.6609  0.2201  0.6672
   25SAPC   C33 3340   3.698   4.903   6.735  0.5574 -0.1074  0.0887
   25SAPC   H3X 3341   3.654   5.004   6.740  1.1614  0.1172  1.1441
   25SAPC   H3Y 3342   3.807   4.919   6.723  0.1152  1.0032 -2.6370
   25SAPC   C34 3343   3.643   4.828   6.853  0.7881 -0.3407  0.3910
   25SAPC   H4X 3344   3.680   4.723   6.846  0.1070 -0.6646  1.6077
   25SAPC   H4Y 3345   3.533   4.826   6.840  0.9400  1.8883 -1.6661
   25SAPC   C35 3346   3.688   4.886   6.980 -0.6591 -0.0896  0.5280
   25SAPC   H5X 3347   3.666   4.995   6.985 -2.0311 -0.2443 -1.6315
   25SAPC   H5Y 3348   3.798   4.881   6.997 -0.6892  0.0931  0.7777
   25SAPC   C36 3349   3.618   4.834   7.107 -0.3317 -0.0096 -0.3069
   25SAPC   H6X 3350   3.510   4.851   7.089 -0.3278  1.6209  1.0837
   25SAPC   H6Y 3351   3.650   4.901   7.189 -1.3451 -0.3130  0.3429
   25SAPC   C37 3352   3.665   4.688   7.127 -0.3899 -0.7698  0.5765
   25SAPC   H7X 3353   3.774   4.695   7.148 -0.3045 -2.5506  0.8433
   25SAPC   H7Y 3354   3.641   4.622   7.041 -0.8239  1.7760 -1.2880
   25SAPC   C38 3355   3.632   4.608   7.258  0.6866  0.0330 -0.3501
   25SAPC   H8X 3356   3.670   4.504   7.246 -1.3738 -1.3053  3.6100
   25SAPC   H8Y 3357   3.521   4.602   7.261  0.6075  0.8909 -1.7215
   25SAPC   C39 3358   3.694   4.670   7.384 -0.5112 -0.1885  0.0746
   25SAPC   H9X 3359   3.681   4.781   7.385  1.8439  0.1390 -0.9402
   25SAPC   H9Y 3360   3.804   4.658   7.378 -0.4595 -0.5550  1.6801
   25SAPC  C310 3361   3.645   4.596   7.508 -0.2501 -0.2461  0.0075
   25SAPC  H10X 3362   3.681   4.493   7.529 -0.3018 -0.6831 -1.9725
   25SAPC  H10Y 3363   3.534   4.592   7.507 -0.2261 -2.1624  1.5401
   25SAPC  C311 3364   3.668   4.683   7.633 -0.2815 -0.5675 -0.0695
   25SAPC  H11X 3365   3.668   4.791   7.605 -2.3636 -0.3311  0.7099
   25SAPC  H11Y 3366   3.763   4.643   7.675 -0.1495  0.4336  0.6246
   25SAPC  C312 3367   3.565   4.654   7.748  0.0246  0.0508  0.1250
   25SAPC  H12X 3368   3.573   4.545   7.770  1.3434  0.7161  3.1992
   25SAPC  H12Y 3369   3.463   4.673   7.706 -0.3160 -0.8559  0.5250
   25SAPC  C313 3370   3.584   4.737   7.875  0.3907  0.1081 -0.9018
   25SAPC  H13X 3371   3.550   4.841   7.851 -1.6736 -0.2315  0.4246
   25SAPC  H13Y 3372   3.687   4.740   7.916 -0.9002 -0.5708  2.5130
   25SAPC  C314 3373   3.494   4.675   7.992  0.2203  0.0932  0.4215
   25SAPC  H14X 3374   3.546   4.581   8.022 -0.0689 -0.8698 -1.9641
   25SAPC  H14Y 3375   3.399   4.638   7.947 -1.0823  3.0051  0.6576
   25SAPC  C315 3376   3.482   4.780   8.101 -0.7755 -0.9001  0.2925
   25SAPC  H15X 3377   3.426   4.861   8.050 -0.9445 -1.7326 -0.8477
   25SAPC  H15Y 3378   3.582   4.814   8.136 -1.2637  1.5236 -0.5864
   25SAPC  C316 3379   3.400   4.745   8.221 -0.5150  0.5056  0.1561
   25SAPC  H16X 3380   3.440   4.659   8.279 -0.5231  1.7169  1.9977
   25SAPC  H16Y 3381   3.292   4.736   8.195 -0.3943  1.2856 -0.6302
   25SAPC  C317 3382   3.412   4.858   8.325 -0.0691  0.1204 -0.4993
   25SAPC  H17X 3383   3.374   4.954   8.285  2.6002  1.0637 -0.8725
   25SAPC  H17Y 3384   3.521   4.875   8.336  0.1233 -1.4140  0.0998
   25SAPC  C318 3385   3.352   4.844   8.460  0.1486  0.4228 -0.8595
   25SAPC  H18X 3386   3.401   4.760   8.513  2.2126  1.4998 -0.9808
   25SAPC  H18Y 3387   3.248   4.807   8.465 -0.0088  0.9803  0.1967
   25SAPC  H18Z 3388   3.362   4.935   8.523 -2.6969  1.7286 -2.2192
   26SAPC     N 3389   2.830   0.358   6.107 -0.2799 -0.5018 -0.4989
   26SAPC   C12 3390   2.727   0.262   6.167 -0.5205  0.2624 -0.1005
   26SAPC  H12A 3391   2.718   0.172   6.109  1.3784 -0.6675  0.9830
   26SAPC  H12B 3392   2.637   0.322   6.166  0.7075  2.2576  1.8551
   26SAPC   C13 3393   2.971   0.294   6.118  0.2260  0.1535  0.8978
   26SAPC  H13A 3394   3.050   0.366   6.103  1.0692 -1.1247 -0.8498
   26SAPC  H13B 3395   2.986   0.248   6.215 -2.5373  0.3528  1.4681
   26SAPC  H13C 3396   2.980   0.212   6.049  2.1793 -1.1829  2.6777
   26SAPC   C14 3397   2.796   0.399   5.970 -0.1990  0.0242 -0.1982
   26SAPC  H14A 3398   2.703   0.453   5.959 -0.3303 -0.3283 -0.8683
   26SAPC  H14B 3399   2.869   0.469   5.935 -1.6485  1.5083 -0.3269
   26SAPC  H14C 3400   2.800   0.306   5.915 -0.6602 -0.5705  0.7571
   26SAPC   C15 3401   2.826   0.478   6.202 -0.4874 -0.0325  0.2950
   26SAPC  H15A 3402   2.911   0.539   6.177  0.0839 -0.5967  0.8551
   26SAPC  H15B 3403   2.735   0.535   6.190 -0.3703  0.4788  1.8309
   26SAPC  H15C 3404   2.835   0.448   6.305 -0.9822  1.0814  0.6704
   26SAPC   C11 3405   2.751   0.215   6.307 -0.7271 -0.7776 -0.1774
   26SAPC  H11A 3406   2.654   0.180   6.349 -0.3127 -0.9989  0.6051
   26SAPC  H11B 3407   2.774   0.293   6.382  0.3712  0.8994 -2.2174
   26SAPC     P 3408   2.832  -0.032   6.311 -0.1542 -0.3439  0.1255
   26SAPC   O13 3409   2.750  -0.062   6.194 -0.8765  0.1110  0.1916
   26SAPC   O14 3410   2.967  -0.099   6.318  0.1841  0.2237 -0.0409
   26SAPC   O12 3411   2.856   0.122   6.308  0.1141 -0.4884 -0.8585
   26SAPC   O11 3412   2.753  -0.061   6.442 -0.4327  0.2328 -0.2674
   26SAPC    C1 3413   2.787   0.009   6.561 -0.3967 -0.2896  0.1371
   26SAPC    HA 3414   2.829   0.110   6.542 -2.2691  0.2519 -1.2894
   26SAPC    HB 3415   2.690   0.024   6.612 -1.7090 -3.0158 -1.4435
   26SAPC    C2 3416   2.886  -0.064   6.653  0.1479 -0.3567  0.3271
   26SAPC    HS 3417   2.961  -0.112   6.586  0.8987  0.4460  0.5829
   26SAPC   O21 3418   2.819  -0.164   6.727 -0.0673 -0.0632  0.3936
   26SAPC   C21 3419   2.871  -0.284   6.722 -0.2223  0.0042  0.1747
   26SAPC   O22 3420   2.980  -0.314   6.677  0.2392  0.5222  0.2588
   26SAPC   C22 3421   2.782  -0.385   6.804 -0.1653 -0.5992  0.6215
   26SAPC   H2R 3422   2.726  -0.321   6.876 -1.3557  0.7145 -1.4041
   26SAPC   H2S 3423   2.696  -0.427   6.747 -1.5273  1.9189  0.6937
   26SAPC    C3 3424   2.967   0.032   6.743 -0.1027  0.1624 -0.1459
   26SAPC    HX 3425   2.890   0.102   6.780 -0.8880  0.3525 -2.0485
   26SAPC    HY 3426   3.035   0.090   6.676 -2.1152 -0.0741 -2.4859
   26SAPC   O31 3427   3.034  -0.037   6.851  0.3477 -0.0934  0.2031
   26SAPC   C31 3428   3.090   0.052   6.936  0.9072 -0.0080  0.1173
   26SAPC   O32 3429   3.126   0.162   6.911 -0.5511 -0.2457  0.5786
   26SAPC   C32 3430   3.079  -0.012   7.075 -0.6034  1.1034 -0.2991
   26SAPC   H2X 3431   3.133  -0.108   7.062 -1.0970  0.7751  0.0843
   26SAPC   H2Y 3432   2.971  -0.033   7.090 -0.5338 -0.0387 -1.3554
   26SAPC   C23 3433   2.845  -0.504   6.881 -0.4210  0.4478 -0.4997
   26SAPC   H3R 3434   2.878  -0.584   6.811 -2.0474 -0.7605  0.1107
   26SAPC   H3S 3435   2.769  -0.557   6.942 -0.2514  0.3447 -0.3774
   26SAPC   C24 3436   2.962  -0.479   6.982 -0.4781  0.6677  0.3223
   26SAPC   H4R 3437   3.050  -0.439   6.927 -0.4453 -0.7379 -0.6573
   26SAPC   H4S 3438   2.996  -0.572   7.032  1.1905  0.3468 -1.3650
   26SAPC   C25 3439   2.932  -0.382   7.098  0.4484 -0.6290  0.9497
   26SAPC   H5R 3440   2.864  -0.302   7.064 -0.6685 -2.9374 -2.5346
   26SAPC   C26 3441   2.960  -0.383   7.231  0.7018  0.0200  0.3564
   26SAPC   H6R 3442   2.924  -0.306   7.301  2.0136  1.0370 -0.0670
   26SAPC   C27 3443   3.044  -0.490   7.299 -0.4498  0.0475 -0.1552
   26SAPC   H7R 3444   3.116  -0.436   7.364 -1.7338 -2.1478  3.2472
   26SAPC   H7S 3445   3.111  -0.555   7.239 -0.6519  0.4699 -0.8525
   26SAPC   C28 3446   2.954  -0.571   7.390 -0.1212 -0.7673 -0.5398
   26SAPC   H8R 3447   2.857  -0.585   7.340  0.1509 -2.7702 -0.5698
   26SAPC   C29 3448   2.958  -0.603   7.519 -0.1133  0.2573 -0.3701
   26SAPC   H9R 3449   2.878  -0.669   7.555  1.2360  0.0431  2.3948
   26SAPC  C210 3450   3.070  -0.570   7.613 -0.0933 -0.5670  0.8768
   26SAPC  H10R 3451   3.165  -0.547   7.560 -2.5514 -1.2359 -4.1095
   26SAPC  H10S 3452   3.079  -0.673   7.654  1.3263 -0.0835  1.8218
   26SAPC  C211 3453   3.031  -0.460   7.712 -0.8007  0.3233  0.1031
   26SAPC  H11R 3454   3.018  -0.361   7.666  1.1443  0.3991 -0.3144
   26SAPC  C212 3455   3.021  -0.481   7.845 -0.4099 -0.6043 -0.6054
   26SAPC  H12R 3456   2.999  -0.393   7.907  0.7821 -1.5018  1.1238
   26SAPC  C213 3457   3.034  -0.609   7.915 -0.3861 -0.3246 -0.8461
   26SAPC  H13R 3458   3.114  -0.592   7.990 -0.3879  0.1256 -0.9489
   26SAPC  H13S 3459   3.093  -0.681   7.854  2.5372 -0.4564  1.9922
   26SAPC  C214 3460   2.912  -0.669   7.975 -0.0776  0.5021 -0.3750
   26SAPC  H14R 3461   2.814  -0.650   7.928 -0.5513  1.0104  0.7980
   26SAPC  C215 3462   2.902  -0.728   8.092 -0.7116  0.1341 -0.6175
   26SAPC  H15R 3463   2.800  -0.756   8.121 -0.5309  0.0058 -0.1048
   26SAPC  C216 3464   3.009  -0.747   8.195 -0.3253 -0.9356  0.1653
   26SAPC  H16R 3465   2.990  -0.680   8.282  0.2343  0.8170 -1.0429
   26SAPC  H16S 3466   3.105  -0.725   8.144  0.9369 -0.5299  2.6156
   26SAPC  C217 3467   3.041  -0.897   8.232  0.5986 -0.7204  0.0312
   26SAPC  H17R 3468   3.125  -0.907   8.303  0.3655  0.6999  0.5371
   26SAPC  H17S 3469   3.064  -0.942   8.133  2.5748  0.5478 -0.1183
   26SAPC  C218 3470   2.920  -0.970   8.281 -0.0364  0.1813 -0.6608
   26SAPC  H18R 3471   2.835  -0.950   8.212 -3.2020 -0.0724  3.0208
   26SAPC  H18S 3472   2.882  -0.945   8.383 -0.3419  0.4591 -0.8392
   26SAPC  C219 3473   2.945  -1.123   8.285 -0.1619 -0.4499 -0.6502
   26SAPC  H19R 3474   3.042  -1.130   8.340 -2.9169  0.6622  4.6596
   26SAPC  H19S 3475   2.970  -1.169   8.187  4.7128 -1.0538  0.7451
   26SAPC  C220 3476   2.827  -1.209   8.344 -0.5030  0.4924  0.4497
   26SAPC  H20R 3477   2.740  -1.194   8.276  0.8205  1.1884 -1.1083
   26SAPC  H20S 3478   2.805  -1.203   8.453 -0.3235  1.2640  0.4498
   26SAPC  H20T 3479   2.850  -1.316   8.330 -0.3540  0.6652 -0.6513
   26SAPC   C33 3480   3.138   0.067   7.195 -0.4782 -0.0724 -0.0856
   26SAPC   H3X 3481   3.080   0.161   7.208 -0.2643 -0.0805  0.9151
   26SAPC   H3Y 3482   3.242   0.095   7.172 -0.4343 -0.7966 -0.8265
   26SAPC   C34 3483   3.155  -0.026   7.310 -0.3005  0.1660 -0.3131
   26SAPC   H4X 3484   3.242  -0.092   7.291  1.9464  2.1011  2.7652
   26SAPC   H4Y 3485   3.063  -0.087   7.318  0.9222 -1.6429  0.2104
   26SAPC   C35 3486   3.177   0.052   7.441  0.2807  0.4276  0.1514
   26SAPC   H5X 3487   3.082   0.106   7.459  0.8164  0.4474  3.1921
   26SAPC   H5Y 3488   3.257   0.126   7.421  1.1364 -0.7752 -1.0003
   26SAPC   C36 3489   3.208  -0.043   7.549  0.1238  0.3799 -0.3836
   26SAPC   H6X 3490   3.303  -0.098   7.533 -0.1934 -0.4339  0.4649
   26SAPC   H6Y 3491   3.117  -0.107   7.545  2.0477 -2.6234  1.6054
   26SAPC   C37 3492   3.216   0.017   7.691  0.4190  0.3060  0.2590
   26SAPC   H7X 3493   3.114   0.047   7.723 -0.0631 -0.8153 -0.1777
   26SAPC   H7Y 3494   3.285   0.103   7.679  1.0457 -0.1711  0.3637
   26SAPC   C38 3495   3.265  -0.075   7.804  0.3157 -0.5921  0.1580
   26SAPC   H8X 3496   3.368  -0.117   7.794  0.5586  0.1363 -0.3656
   26SAPC   H8Y 3497   3.195  -0.162   7.806  1.3459 -1.4608 -0.4345
   26SAPC   C39 3498   3.257  -0.005   7.941 -0.5098  0.6071 -0.4172
   26SAPC   H9X 3499   3.153   0.032   7.948 -0.9681 -0.1929 -2.4950
   26SAPC   H9Y 3500   3.325   0.081   7.926  0.1046  0.4835  1.5129
   26SAPC  C310 3501   3.308  -0.086   8.060  0.8191 -0.2748 -0.2476
   26SAPC  H10X 3502   3.410  -0.124   8.037  1.5945 -0.3497  3.0144
   26SAPC  H10Y 3503   3.248  -0.178   8.081  1.0797 -0.3725  0.0827
   26SAPC  C311 3504   3.325  -0.004   8.187  0.1399 -0.2181  0.6996
   26SAPC  H11X 3505   3.225   0.014   8.232  0.1281  1.6394  0.0097
   26SAPC  H11Y 3506   3.350   0.102   8.161 -1.2090  0.5906  2.5637
   26SAPC  C312 3507   3.429  -0.064   8.277 -0.4112  0.3263  0.4124
   26SAPC  H12X 3508   3.521  -0.088   8.221 -0.3226 -1.2216  1.1942
   26SAPC  H12Y 3509   3.393  -0.162   8.316  1.2381 -0.9431 -1.1804
   26SAPC  C313 3510   3.466   0.029   8.397  0.8472  1.0599 -0.6260
   26SAPC  H13X 3511   3.495   0.132   8.368 -0.2454  1.2087 -1.2212
   26SAPC  H13Y 3512   3.560  -0.015   8.436 -0.1070 -0.4066  0.0891
   26SAPC  C314 3513   3.355   0.039   8.508  0.2078 -0.4991  0.0586
   26SAPC  H14X 3514   3.319  -0.059   8.546  0.1696 -0.8461 -0.8382
   26SAPC  H14Y 3515   3.272   0.090   8.455  1.2571  1.7275  0.5135
   26SAPC  C315 3516   3.395   0.120   8.628  0.0659 -0.5150 -0.3140
   26SAPC  H15X 3517   3.444   0.218   8.608 -0.2106 -0.1349  0.8220
   26SAPC  H15Y 3518   3.476   0.073   8.688  0.5888  2.1432  1.1708
   26SAPC  C316 3519   3.271   0.151   8.718 -0.0354  0.2706  0.5212
   26SAPC  H16X 3520   3.203   0.206   8.650  0.1622  0.4303  0.4546
   26SAPC  H16Y 3521   3.305   0.227   8.792 -0.7378 -1.1062  2.3172
   26SAPC  C317 3522   3.193   0.025   8.770 -0.2259 -0.2010  0.1245
   26SAPC  H17X 3523   3.263  -0.047   8.816  2.5825  1.6516 -1.0955
   26SAPC  H17Y 3524   3.138  -0.021   8.685  0.9224  1.4160 -1.5557
   26SAPC  C318 3525   3.086   0.056   8.874  0.1015  0.8417  0.0975
   26SAPC  H18X 3526   3.007   0.125   8.836 -0.7876 -0.1475  0.1325
   26SAPC  H18Y 3527   3.134   0.104   8.962 -0.1334  0.5643  0.3787
   26SAPC  H18Z 3528   3.035  -0.035   8.912  2.2052 -0.0541  0.8120
   27SAPC     N 3529   1.208   0.080   6.438 -0.0003  0.1400 -0.1970
   27SAPC   C12 3530   1.248   0.114   6.582 -0.0584 -0.0329 -0.2701
   27SAPC  H12A 3531   1.165   0.167   6.626  0.0048 -0.8237  0.8231
   27SAPC  H12B 3532   1.338   0.173   6.571 -0.5316  0.9601  1.0191
   27SAPC   C13 3533   1.207   0.205   6.351 -0.0708  0.1114 -0.4808
   27SAPC  H13A 3534   1.148   0.284   6.394  1.6724  1.9743 -1.4159
   27SAPC  H13B 3535   1.309   0.240   6.341 -0.6060  1.8925  0.1189
   27SAPC  H13C 3536   1.161   0.190   6.255  0.4949 -0.5602 -0.6503
   27SAPC   C14 3537   1.314  -0.001   6.372 -0.2562 -0.4318  1.0708
   27SAPC  H14A 3538   1.307   0.005   6.264  2.8666 -1.4854  0.7444
   27SAPC  H14B 3539   1.413   0.028   6.405 -0.7340  0.1222  2.0326
   27SAPC  H14C 3540   1.286  -0.097   6.412 -2.0368  0.0566  1.0051
   27SAPC   C15 3541   1.084   0.002   6.432  0.4945 -0.1725  0.3233
   27SAPC  H15A 3542   1.005   0.066   6.467 -0.5151 -2.1546  1.7528
   27SAPC  H15B 3543   1.058  -0.027   6.331  0.0046 -2.4489  1.0769
   27SAPC  H15C 3544   1.083  -0.088   6.493 -1.9090 -0.5323 -0.1986
   27SAPC   C11 3545   1.292  -0.002   6.674  1.0805 -0.1546 -0.5203
   27SAPC  H11A 3546   1.329   0.038   6.771 -0.4861 -0.4906  0.2253
   27SAPC  H11B 3547   1.382  -0.036   6.619  1.6012 -0.7681  0.6816
   27SAPC     P 3548   1.250  -0.256   6.668 -0.3411  0.0731  0.1597
   27SAPC   O13 3549   1.265  -0.277   6.520 -1.3611  0.0039  0.1339
   27SAPC   O14 3550   1.375  -0.270   6.749 -0.0020  0.1957  0.5896
   27SAPC   O12 3551   1.201  -0.107   6.698  0.0194  0.2983  0.1605
   27SAPC   O11 3552   1.133  -0.363   6.729 -0.1868 -0.4873 -0.3930
   27SAPC    C1 3553   1.087  -0.355   6.865 -0.5189 -0.0523  0.2345
   27SAPC    HA 3554   1.124  -0.261   6.912  1.7508 -0.4149 -0.7416
   27SAPC    HB 3555   0.977  -0.355   6.848 -0.0901 -1.5998 -3.1142
   27SAPC    C2 3556   1.131  -0.467   6.960  0.0729  0.0971  0.9239
   27SAPC    HS 3557   1.104  -0.566   6.916 -0.0490  0.2078  0.7483
   27SAPC   O21 3558   1.071  -0.444   7.087 -0.3358 -0.2991  0.3197
   27SAPC   C21 3559   0.946  -0.488   7.095 -0.0075 -0.4757 -0.2033
   27SAPC   O22 3560   0.881  -0.546   7.005 -0.0148 -0.2531 -0.0205
   27SAPC   C22 3561   0.892  -0.473   7.237 -0.2693 -0.0086  0.2261
   27SAPC   H2R 3562   0.893  -0.363   7.255  2.4045 -0.0630  0.6202
   27SAPC   H2S 3563   0.794  -0.524   7.250  1.0438 -2.9546 -0.9949
   27SAPC    C3 3564   1.287  -0.471   6.965 -0.3012  0.1408  0.0663
   27SAPC    HX 3565   1.330  -0.369   6.978 -0.1340  0.2073 -1.0085
   27SAPC    HY 3566   1.320  -0.503   6.864 -0.4556 -4.0074  1.2376
   27SAPC   O31 3567   1.341  -0.554   7.068  0.0868 -0.1234  0.3051
   27SAPC   C31 3568   1.340  -0.690   7.053  0.3116 -0.1080 -0.5850
   27SAPC   O32 3569   1.285  -0.751   6.964  0.3451 -0.1055  0.0850
   27SAPC   C32 3570   1.401  -0.743   7.177  0.2213 -0.2381 -0.0311
   27SAPC   H2X 3571   1.509  -0.717   7.178  0.0387  0.7023 -2.0903
   27SAPC   H2Y 3572   1.397  -0.854   7.181 -0.2496 -0.1968  1.1505
   27SAPC   C23 3573   0.996  -0.534   7.342 -0.7699  0.3116 -0.2884
   27SAPC   H3R 3574   1.081  -0.468   7.369  1.9149 -1.9758 -2.7501
   27SAPC   H3S 3575   1.044  -0.622   7.293 -0.6738 -0.4098  1.0701
   27SAPC   C24 3576   0.934  -0.593   7.470 -0.0686  0.0025  0.0374
   27SAPC   H4R 3577   1.020  -0.654   7.508  0.4044 -0.2267 -1.3877
   27SAPC   H4S 3578   0.846  -0.658   7.450 -1.5101  1.5812  1.1172
   27SAPC   C25 3579   0.886  -0.493   7.573  0.5663 -0.9811 -0.7695
   27SAPC   H5R 3580   0.793  -0.445   7.541  0.0547 -0.5107  1.3597
   27SAPC   C26 3581   0.935  -0.480   7.697 -0.4881 -0.5909 -0.5067
   27SAPC   H6R 3582   0.879  -0.415   7.766 -0.8421 -1.3164 -0.0997
   27SAPC   C27 3583   1.047  -0.546   7.771 -0.0263  0.1530  0.2011
   27SAPC   H7R 3584   1.080  -0.486   7.858 -0.7182 -2.3087  2.2226
   27SAPC   H7S 3585   1.137  -0.560   7.706 -1.2538  2.7054 -2.1516
   27SAPC   C28 3586   1.011  -0.689   7.816 -0.3265 -0.5893  0.3356
   27SAPC   H8R 3587   0.972  -0.756   7.737 -0.7355 -0.6950  0.6256
   27SAPC   C29 3588   1.012  -0.735   7.944  0.4339  0.3002 -0.3600
   27SAPC   H9R 3589   0.981  -0.839   7.961  0.8703  0.3197  0.6074
   27SAPC  C210 3590   1.064  -0.676   8.074 -0.2451 -0.2346 -0.3867
   27SAPC  H10R 3591   1.117  -0.581   8.052  1.8580 -0.9225  1.4420
   27SAPC  H10S 3592   1.133  -0.746   8.126 -0.1522  1.0449  1.2674
   27SAPC  C211 3593   0.960  -0.641   8.170  0.4912  0.0177  0.0849
   27SAPC  H11R 3594   0.862  -0.648   8.120  0.5552 -3.2272  0.2975
   27SAPC  C212 3595   0.967  -0.629   8.300 -0.8403  0.5841 -0.0816
   27SAPC  H12R 3596   0.871  -0.617   8.353 -0.9181 -1.5437  0.3257
   27SAPC  C213 3597   1.095  -0.636   8.381 -0.1342 -0.6915 -0.2985
   27SAPC  H13R 3598   1.175  -0.655   8.306 -0.2624  0.5050 -0.7447
   27SAPC  H13S 3599   1.097  -0.724   8.450  0.2325  0.1505  0.7715
   27SAPC  C214 3600   1.119  -0.513   8.469  0.6711 -0.2926 -0.5605
   27SAPC  H14R 3601   1.187  -0.440   8.423 -1.2379  1.8889 -0.0064
   27SAPC  C215 3602   1.060  -0.469   8.577  0.2717 -0.4138  0.2076
   27SAPC  H15R 3603   1.090  -0.371   8.617  0.8942 -0.0883 -1.0347
   27SAPC  C216 3604   0.942  -0.540   8.646 -0.7032  0.2545 -0.2334
   27SAPC  H16R 3605   0.969  -0.576   8.748 -1.6070 -1.3563 -0.5363
   27SAPC  H16S 3606   0.906  -0.624   8.583  2.0717 -0.8459 -0.4129
   27SAPC  C217 3607   0.837  -0.432   8.684 -0.2822 -0.4058 -0.5169
   27SAPC  H17R 3608   0.750  -0.489   8.722 -0.3034 -0.0971 -0.0992
   27SAPC  H17S 3609   0.814  -0.373   8.593 -1.6295 -0.1761 -0.0332
   27SAPC  C218 3610   0.876  -0.340   8.802  0.1579  0.5173 -0.1183
   27SAPC  H18R 3611   0.937  -0.251   8.778 -2.4462  3.1906  2.6914
   27SAPC  H18S 3612   0.934  -0.402   8.874 -0.5645  0.5865  0.5416
   27SAPC  C219 3613   0.745  -0.293   8.878 -0.6468 -0.2341 -0.1979
   27SAPC  H19R 3614   0.689  -0.382   8.917 -0.9599  0.8111  1.8118
   27SAPC  H19S 3615   0.676  -0.242   8.807 -0.6084 -0.8407 -0.6804
   27SAPC  C220 3616   0.770  -0.192   8.992 -0.1130 -0.0649 -0.8386
   27SAPC  H20R 3617   0.817  -0.244   9.078 -0.4324  3.0667  1.3282
   27SAPC  H20S 3618   0.668  -0.161   9.024  0.0462 -1.2621  0.8708
   27SAPC  H20T 3619   0.836  -0.110   8.956 -0.9536  0.9121 -0.1591
   27SAPC   C33 3620   1.326  -0.698   7.310 -0.6009 -0.6002 -0.1452
   27SAPC   H3X 3621   1.228  -0.749   7.309 -0.8041 -0.2814  1.4615
   27SAPC   H3Y 3622   1.320  -0.588   7.291 -1.2123 -0.9826 -2.3101
   27SAPC   C34 3623   1.397  -0.721   7.445  0.7055 -0.8354 -0.3246
   27SAPC   H4X 3624   1.342  -0.671   7.528 -0.9039 -3.7955  0.4634
   27SAPC   H4Y 3625   1.497  -0.673   7.442 -0.3765  1.4182 -3.0578
   27SAPC   C35 3626   1.415  -0.866   7.479  1.0129 -0.0649 -0.3372
   27SAPC   H5X 3627   1.459  -0.916   7.390  0.2443 -1.5183  0.0747
   27SAPC   H5Y 3628   1.311  -0.903   7.497  1.1332  0.1013  0.7334
   27SAPC   C36 3629   1.510  -0.892   7.598  0.2990  0.3011  0.0424
   27SAPC   H6X 3630   1.607  -0.839   7.601  0.0764  0.9011 -2.1441
   27SAPC   H6Y 3631   1.531  -1.000   7.615 -1.2484 -0.4332 -2.4683
   27SAPC   C37 3632   1.445  -0.848   7.728  1.1015 -0.1939 -0.7751
   27SAPC   H7X 3633   1.339  -0.880   7.738  0.7983  0.3156 -2.2849
   27SAPC   H7Y 3634   1.437  -0.737   7.718  0.4494 -0.1157  0.5057
   27SAPC   C38 3635   1.522  -0.865   7.868 -0.0330  0.0176  0.9656
   27SAPC   H8X 3636   1.613  -0.802   7.864 -0.0239 -0.0784 -1.4902
   27SAPC   H8Y 3637   1.552  -0.970   7.888  0.2429 -0.4292 -1.5779
   27SAPC   C39 3638   1.441  -0.815   7.985  0.4684  0.3706 -0.1425
   27SAPC   H9X 3639   1.342  -0.868   7.985  0.1207  1.0217  0.3137
   27SAPC   H9Y 3640   1.425  -0.706   7.976  1.1431  0.5450  0.7690
   27SAPC  C310 3641   1.516  -0.824   8.122  0.0584 -0.3591 -0.4366
   27SAPC  H10X 3642   1.612  -0.768   8.122  0.8934 -1.7539 -0.0588
   27SAPC  H10Y 3643   1.550  -0.926   8.153  1.6568  0.3516  0.1907
   27SAPC  C311 3644   1.416  -0.766   8.237  0.2855  1.2504  0.3997
   27SAPC  H11X 3645   1.346  -0.847   8.264 -0.8709  1.5513 -1.5693
   27SAPC  H11Y 3646   1.359  -0.675   8.207 -0.7899  0.6548  0.6232
   27SAPC  C312 3647   1.502  -0.724   8.357 -0.4962 -1.2315 -0.1353
   27SAPC  H12X 3648   1.555  -0.629   8.333 -1.7176 -0.5328 -0.1366
   27SAPC  H12Y 3649   1.572  -0.808   8.378 -0.2812 -0.8178  0.8054
   27SAPC  C313 3650   1.419  -0.698   8.484  0.6358  0.2851  0.1003
   27SAPC  H13X 3651   1.359  -0.786   8.514 -0.9214  0.9836 -0.9064
   27SAPC  H13Y 3652   1.350  -0.616   8.454  0.0540 -0.5777 -0.9263
   27SAPC  C314 3653   1.498  -0.639   8.600 -0.1559 -0.2097  0.1700
   27SAPC  H14X 3654   1.577  -0.567   8.571  2.1857 -1.8425  2.3305
   27SAPC  H14Y 3655   1.553  -0.721   8.650 -1.8416 -1.5792 -0.1536
   27SAPC  C315 3656   1.408  -0.558   8.700 -0.4735 -0.1003 -0.3260
   27SAPC  H15X 3657   1.347  -0.489   8.638  0.4037  0.7257 -0.2921
   27SAPC  H15Y 3658   1.469  -0.504   8.776 -0.4596  0.4871 -0.7562
   27SAPC  C316 3659   1.293  -0.639   8.766  1.2567  0.3008 -0.2625
   27SAPC  H16X 3660   1.236  -0.702   8.694 -1.8090  0.5926  1.8271
   27SAPC  H16Y 3661   1.220  -0.569   8.811  0.7070 -0.8875  0.7285
   27SAPC  C317 3662   1.339  -0.725   8.882 -0.4859 -0.5480 -0.6652
   27SAPC  H17X 3663   1.391  -0.657   8.953 -0.9681  0.8540 -1.6408
   27SAPC  H17Y 3664   1.433  -0.782   8.869  0.2430  0.2258  0.9794
   27SAPC  C318 3665   1.233  -0.820   8.951  0.2387  0.0850  0.2871
   27SAPC  H18X 3666   1.290  -0.885   9.020 -1.8030 -2.6016 -0.4377
   27SAPC  H18Y 3667   1.178  -0.879   8.875  2.2905  0.5845 -1.6360
   27SAPC  H18Z 3668   1.154  -0.765   9.007 -0.0512 -0.5723  0.5296
   28SAPC     N 3669   6.504   3.904   5.922 -0.1404 -0.5268  0.1251
   28SAPC   C12 3670   6.565   3.778   5.977  0.6946 -0.0057  0.1063
   28SAPC  H12A 3671   6.669   3.766   5.949  0.4752  0.4382 -0.9166
   28SAPC  H12B 3672   6.515   3.697   5.927  0.4947 -2.0635  3.5181
   28SAPC   C13 3673   6.559   4.032   5.973  0.7070 -0.3080 -0.1775
   28SAPC  H13A 3674   6.497   4.111   5.935  1.5406 -0.2166 -1.3675
   28SAPC  H13B 3675   6.566   4.022   6.080 -0.9783  1.7064  0.1449
   28SAPC  H13C 3676   6.661   4.060   5.950  0.1280  2.6521  0.7324
   28SAPC   C14 3677   6.532   3.902   5.779 -0.1894 -0.2057  0.2577
   28SAPC  H14A 3678   6.513   3.999   5.736 -4.0259  0.3852  3.0171
   28SAPC  H14B 3679   6.634   3.889   5.745 -0.4635 -2.4233  0.2365
   28SAPC  H14C 3680   6.463   3.835   5.730 -1.1890  1.5092 -0.7660
   28SAPC   C15 3681   6.357   3.908   5.941 -0.3403  0.2340  0.9043
   28SAPC  H15A 3682   6.335   3.939   6.042 -0.7060 -2.2856  1.6171
   28SAPC  H15B 3683   6.308   3.974   5.871  1.8621  0.2982 -0.6250
   28SAPC  H15C 3684   6.324   3.806   5.930 -1.2917  0.4024  2.1683
   28SAPC   C11 3685   6.549   3.751   6.126 -0.4074 -0.5954 -0.6154
   28SAPC  H11A 3686   6.587   3.649   6.144  0.2517 -0.4817 -1.3182
   28SAPC  H11B 3687   6.442   3.751   6.156  0.7832 -2.7262  4.1553
   28SAPC     P 3688   6.565   3.912   6.329 -0.5719  0.0434  0.0406
   28SAPC   O13 3689   6.665   4.015   6.378 -0.1521  0.1740  0.1790
   28SAPC   O14 3690   6.432   3.970   6.297  0.4473 -0.2886  0.0447
   28SAPC   O12 3691   6.626   3.844   6.198 -0.1488  0.6867  0.7366
   28SAPC   O11 3692   6.553   3.793   6.430  0.2380  0.1656 -0.0896
   28SAPC    C1 3693   6.663   3.702   6.454  0.5794 -0.1156 -0.2559
   28SAPC    HA 3694   6.644   3.611   6.393  1.3846 -0.6139  0.2061
   28SAPC    HB 3695   6.763   3.747   6.435  0.8706 -0.7195 -0.1749
   28SAPC    C2 3696   6.675   3.659   6.608  0.4801  0.0121 -0.0289
   28SAPC    HS 3697   6.595   3.587   6.634  1.9634 -1.1402  1.5413
   28SAPC   O21 3698   6.675   3.774   6.695  0.1008  0.0246 -0.3823
   28SAPC   C21 3699   6.551   3.828   6.712 -0.0073  0.3652  0.5868
   28SAPC   O22 3700   6.446   3.774   6.688  0.3694 -0.0508 -0.1241
   28SAPC   C22 3701   6.566   3.972   6.767 -0.0084 -0.1008  0.0453
   28SAPC   H2R 3702   6.632   4.031   6.700 -0.1758 -0.0426 -0.0688
   28SAPC   H2S 3703   6.467   4.020   6.751  0.1096 -0.2363 -1.1816
   28SAPC    C3 3704   6.798   3.563   6.616  0.2880 -0.2068  0.0339
   28SAPC    HX 3705   6.883   3.613   6.565  0.2680  1.4494  1.5456
   28SAPC    HY 3706   6.778   3.471   6.558 -1.9140  2.3923 -3.5606
   28SAPC   O31 3707   6.834   3.532   6.751  0.2479  0.6831  0.1474
   28SAPC   C31 3708   6.759   3.440   6.813  0.1422  0.7406 -0.7346
   28SAPC   O32 3709   6.664   3.380   6.770  0.5583  0.0526  0.5196
   28SAPC   C32 3710   6.812   3.406   6.950 -0.0833  0.7293 -0.7188
   28SAPC   H2X 3711   6.815   3.501   7.007  1.0556  0.3770 -0.1774
   28SAPC   H2Y 3712   6.918   3.378   6.932 -0.3413 -1.0600  0.3493
   28SAPC   C23 3713   6.609   3.981   6.911  0.3424 -0.0306  0.0157
   28SAPC   H3R 3714   6.651   4.082   6.928  1.2567 -0.1576 -1.4713
   28SAPC   H3S 3715   6.686   3.907   6.942  0.1997 -0.7557 -1.3570
   28SAPC   C24 3716   6.488   3.979   7.006 -0.2162  0.2169 -0.1970
   28SAPC   H4R 3717   6.484   4.072   7.068  0.2250  0.7562 -0.9718
   28SAPC   H4S 3718   6.401   3.977   6.937  0.8310  0.6364 -1.5532
   28SAPC   C25 3719   6.478   3.850   7.088 -0.3425 -0.1259 -0.0089
   28SAPC   H5R 3720   6.505   3.752   7.046  1.1039  0.6536 -0.9357
   28SAPC   C26 3721   6.428   3.842   7.214 -0.0172  0.5152 -0.5291
   28SAPC   H6R 3722   6.440   3.752   7.276  2.1501  0.1455 -1.4301
   28SAPC   C27 3723   6.392   3.956   7.302 -0.3225 -0.0145 -0.0238
   28SAPC   H7R 3724   6.447   4.049   7.277 -0.1937  0.3267  1.5070
   28SAPC   H7S 3725   6.413   3.944   7.410 -1.7472  0.9661  0.3565
   28SAPC   C28 3726   6.249   3.987   7.269  0.4066  0.0551  0.4450
   28SAPC   H8R 3727   6.242   4.071   7.198 -0.8162 -1.3360 -1.1054
   28SAPC   C29 3728   6.144   3.930   7.333  0.5720 -0.2910  1.4339
   28SAPC   H9R 3729   6.042   3.970   7.321  0.8135 -0.8867 -3.5094
   28SAPC  C210 3730   6.150   3.821   7.442  0.1190 -0.0209  0.3332
   28SAPC  H10R 3731   6.134   3.865   7.543  0.0399 -2.0350  1.2247
   28SAPC  H10S 3732   6.251   3.775   7.451 -0.3784 -0.5474  4.2938
   28SAPC  C211 3733   6.058   3.700   7.418 -0.3419 -0.0429 -0.8816
   28SAPC  H11R 3734   6.059   3.654   7.317 -1.1103  0.2425 -1.0248
   28SAPC  C212 3735   5.962   3.657   7.505 -0.1281 -0.7204  0.1899
   28SAPC  H12R 3736   5.888   3.583   7.472 -2.4202  1.3772  0.4699
   28SAPC  C213 3737   5.942   3.719   7.647 -1.1933 -0.2189  0.1298
   28SAPC  H13R 3738   5.853   3.785   7.644 -0.9597  0.1874  1.5290
   28SAPC  H13S 3739   6.021   3.791   7.678 -0.9710 -1.0485  1.5200
   28SAPC  C214 3740   5.926   3.614   7.749 -0.2989 -0.3610  0.2171
   28SAPC  H14R 3741   6.023   3.578   7.786 -0.4371  0.0743  0.9952
   28SAPC  C215 3742   5.810   3.564   7.803 -0.4812 -0.6609 -0.1914
   28SAPC  H15R 3743   5.816   3.482   7.876  0.5133 -0.5390 -0.1288
   28SAPC  C216 3744   5.669   3.600   7.774  0.3304 -0.3188  0.4485
   28SAPC  H16R 3745   5.617   3.507   7.742 -0.4056  0.4386 -0.6040
   28SAPC  H16S 3746   5.670   3.681   7.697  0.4717 -0.8901 -0.1564
   28SAPC  C217 3747   5.592   3.642   7.901  0.0237  0.3661  0.1811
   28SAPC  H17R 3748   5.491   3.679   7.871  0.9413  2.3127 -0.6400
   28SAPC  H17S 3749   5.652   3.711   7.964 -0.2481 -0.0948  0.9493
   28SAPC  C218 3750   5.567   3.528   8.003 -0.1932 -0.1438  0.1018
   28SAPC  H18R 3751   5.665   3.477   8.013 -0.4600 -0.4762  1.0745
   28SAPC  H18S 3752   5.506   3.450   7.953  0.8291 -0.1148 -1.2239
   28SAPC  C219 3753   5.498   3.577   8.133  0.2082  0.4778 -0.6558
   28SAPC  H19R 3754   5.402   3.616   8.094 -0.1842  0.7443  0.5570
   28SAPC  H19S 3755   5.558   3.657   8.182 -2.7856  0.7911  2.6323
   28SAPC  C220 3756   5.475   3.464   8.226 -0.1819 -0.9366 -0.4898
   28SAPC  H20R 3757   5.410   3.381   8.190  1.4072 -3.5624  2.4738
   28SAPC  H20S 3758   5.422   3.507   8.314 -0.4926  0.3720 -1.3088
   28SAPC  H20T 3759   5.564   3.412   8.268 -0.0234 -0.7172 -0.5493
   28SAPC   C33 3760   6.732   3.306   7.026 -0.4712 -0.1039  0.1109
   28SAPC   H3X 3761   6.682   3.238   6.954  0.9501 -1.3481  0.2687
   28SAPC   H3Y 3762   6.653   3.359   7.083 -0.6587 -0.0923 -0.1605
   28SAPC   C34 3763   6.821   3.233   7.133 -0.8974  0.6096  0.5772
   28SAPC   H4X 3764   6.894   3.301   7.183 -0.1374 -0.5381  1.0485
   28SAPC   H4Y 3765   6.888   3.163   7.079 -1.1863  1.0958 -0.4377
   28SAPC   C35 3766   6.751   3.183   7.255  0.8981 -0.0467 -0.8667
   28SAPC   H5X 3767   6.672   3.108   7.239  2.5934 -1.9139 -0.7162
   28SAPC   H5Y 3768   6.713   3.273   7.307  1.4924 -0.3315  0.0716
   28SAPC   C36 3769   6.855   3.121   7.360 -0.0460  0.1841  0.1304
   28SAPC   H6X 3770   6.921   3.195   7.410  2.2375 -2.0986  0.6267
   28SAPC   H6Y 3771   6.920   3.059   7.294 -0.5956 -1.8270  1.4154
   28SAPC   C37 3772   6.785   3.039   7.467  0.0500 -0.1009 -0.4951
   28SAPC   H7X 3773   6.873   3.009   7.528  0.7194  0.6344 -1.0885
   28SAPC   H7Y 3774   6.732   2.955   7.417 -2.4761  1.7046 -0.9511
   28SAPC   C38 3775   6.691   3.118   7.556  0.2485  1.0813 -1.0677
   28SAPC   H8X 3776   6.593   3.065   7.562 -0.4703  2.6505  1.8622
   28SAPC   H8Y 3777   6.668   3.222   7.524 -1.3484  1.7267  1.9629
   28SAPC   C39 3778   6.735   3.137   7.708  0.6740 -0.8461 -0.4451
   28SAPC   H9X 3779   6.826   3.201   7.709 -0.9221  1.4804 -1.0283
   28SAPC   H9Y 3780   6.761   3.043   7.761  0.2940 -0.8410 -0.2502
   28SAPC  C310 3781   6.640   3.226   7.801  0.6300  0.5142 -0.2889
   28SAPC  H10X 3782   6.543   3.175   7.816  0.0939  2.0036  1.4273
   28SAPC  H10Y 3783   6.617   3.318   7.743  1.3004  0.7155 -0.2461
   28SAPC  C311 3784   6.705   3.253   7.934 -0.3020 -0.1713  0.3766
   28SAPC  H11X 3785   6.811   3.285   7.925 -0.6992  1.3793  1.0748
   28SAPC  H11Y 3786   6.705   3.158   7.993  0.6971 -1.3345 -1.4396
   28SAPC  C312 3787   6.634   3.367   8.014  0.1675  0.3309 -0.2275
   28SAPC  H12X 3788   6.628   3.461   7.955  1.7783 -0.0025 -0.9496
   28SAPC  H12Y 3789   6.697   3.400   8.099 -0.4462  1.3677 -0.1634
   28SAPC  C313 3790   6.499   3.325   8.076  0.3505 -0.4158 -0.0323
   28SAPC  H13X 3791   6.518   3.233   8.134 -1.6019 -0.9080 -0.1571
   28SAPC  H13Y 3792   6.425   3.301   7.997 -1.6796  2.0866  1.0194
   28SAPC  C314 3793   6.443   3.444   8.163 -0.8701 -0.5924 -0.3990
   28SAPC  H14X 3794   6.440   3.537   8.103 -1.8166  0.5166  1.3171
   28SAPC  H14Y 3795   6.507   3.448   8.254 -2.4269 -0.1328  0.7084
   28SAPC  C315 3796   6.302   3.419   8.212 -0.2350 -0.1930 -0.5446
   28SAPC  H15X 3797   6.295   3.333   8.282  0.4174  0.0711 -0.1506
   28SAPC  H15Y 3798   6.251   3.377   8.122  1.6059 -1.3863 -1.0637
   28SAPC  C316 3799   6.224   3.539   8.261 -0.5791  0.0391  0.1315
   28SAPC  H16X 3800   6.248   3.628   8.198  1.3644 -0.0816  0.6639
   28SAPC  H16Y 3801   6.262   3.552   8.365 -0.1932 -1.3564  0.1731
   28SAPC  C317 3802   6.069   3.518   8.267  0.3162 -0.8856  0.0721
   28SAPC  H17X 3803   6.034   3.481   8.366 -0.2780 -1.0825 -0.2046
   28SAPC  H17Y 3804   6.034   3.453   8.183 -1.5463 -0.1704  0.2724
   28SAPC  C318 3805   5.993   3.647   8.241 -0.4488  0.4417  0.0772
   28SAPC  H18X 3806   6.023   3.736   8.300 -1.5048  0.3344  0.7979
   28SAPC  H18Y 3807   5.884   3.637   8.264  0.0921 -0.7502  2.2200
   28SAPC  H18Z 3808   6.001   3.671   8.133  0.9873  1.6000  0.4215
   29SAPC     N 3809   2.315   0.030   6.386 -0.0795 -0.2577 -0.3438
   29SAPC   C12 3810   2.264   0.072   6.251 -0.2346 -0.3388  0.0781
   29SAPC  H12A 3811   2.172   0.126   6.269  1.3223  2.0136  1.1405
   29SAPC  H12B 3812   2.232  -0.018   6.201 -1.8348  0.7159 -0.8209
   29SAPC   C13 3813   2.200  -0.037   6.464 -0.1244  0.6387 -0.3278
   29SAPC  H13A 3814   2.158  -0.125   6.417  2.4279 -0.6708 -0.2414
   29SAPC  H13B 3815   2.243  -0.077   6.555  0.6614  0.7615 -0.6329
   29SAPC  H13C 3816   2.122   0.030   6.496 -0.7029 -0.4897  0.6350
   29SAPC   C14 3817   2.446  -0.047   6.375  0.2096  0.1512 -0.7833
   29SAPC  H14A 3818   2.496  -0.070   6.468 -0.5162  1.1680 -0.1240
   29SAPC  H14B 3819   2.419  -0.138   6.323  1.9617 -0.3721 -0.7937
   29SAPC  H14C 3820   2.524  -0.002   6.315  1.8525  0.0204  1.1840
   29SAPC   C15 3821   2.353   0.148   6.461  0.6590 -0.3174 -0.0671
   29SAPC  H15A 3822   2.386   0.114   6.558  2.1930  0.4312 -0.3011
   29SAPC  H15B 3823   2.434   0.203   6.416  1.2004 -1.7656 -0.8497
   29SAPC  H15C 3824   2.269   0.211   6.487  0.2769 -1.1159  0.6616
   29SAPC   C11 3825   2.371   0.122   6.155  0.2088  0.1575 -0.3212
   29SAPC  H11A 3826   2.318   0.140   6.059 -2.1032  2.0224  1.2547
   29SAPC  H11B 3827   2.439   0.036   6.136 -0.0227 -0.0186 -0.3481
   29SAPC     P 3828   2.375   0.375   6.163  0.1119 -0.1759  0.2285
   29SAPC   O13 3829   2.484   0.475   6.177  0.1679  0.6099 -0.3703
   29SAPC   O14 3830   2.314   0.363   6.031 -0.0284 -0.2480  0.2433
   29SAPC   O12 3831   2.442   0.235   6.207  0.0098 -0.5252  0.0165
   29SAPC   O11 3832   2.256   0.403   6.267  0.0801 -0.3053 -0.1075
   29SAPC    C1 3833   2.244   0.522   6.335 -0.6831 -0.0963 -0.5876
   29SAPC    HA 3834   2.334   0.587   6.345 -0.8781  0.3895 -1.8905
   29SAPC    HB 3835   2.173   0.593   6.288 -1.1384  1.5445  2.4578
   29SAPC    C2 3836   2.186   0.486   6.478 -0.4527 -1.1831 -0.1683
   29SAPC    HS 3837   2.158   0.582   6.527  0.5162 -2.0687  2.2082
   29SAPC   O21 3838   2.296   0.422   6.546  1.1131 -0.5135  0.2461
   29SAPC   C21 3839   2.394   0.505   6.587  0.0354 -0.7065  0.9056
   29SAPC   O22 3840   2.398   0.629   6.584  0.2205  0.4758 -0.1308
   29SAPC   C22 3841   2.500   0.411   6.655 -0.3169 -0.7556 -0.0149
   29SAPC   H2R 3842   2.498   0.312   6.606  1.1962  0.4716 -2.6398
   29SAPC   H2S 3843   2.592   0.467   6.628 -0.4794 -0.2196  0.5093
   29SAPC    C3 3844   2.060   0.398   6.477  0.1138 -0.0865 -0.6402
   29SAPC    HX 3845   2.074   0.298   6.430 -1.6380 -0.4711 -0.3620
   29SAPC    HY 3846   1.986   0.456   6.419 -0.3287  0.0028  0.0150
   29SAPC   O31 3847   2.011   0.374   6.609 -0.3051 -0.4446 -0.2363
   29SAPC   C31 3848   1.979   0.252   6.651 -0.4037  0.4762  0.4580
   29SAPC   O32 3849   1.979   0.149   6.581 -0.0570 -0.2018 -0.4256
   29SAPC   C32 3850   1.971   0.262   6.808 -0.0662  0.4505 -0.1229
   29SAPC   H2X 3851   1.904   0.177   6.832 -0.4658  0.6754 -0.4376
   29SAPC   H2Y 3852   1.923   0.358   6.834 -0.0869  0.2685  0.5145
   29SAPC   C23 3853   2.493   0.409   6.811  0.1329 -0.6666 -0.4148
   29SAPC   H3R 3854   2.395   0.370   6.846  0.5403 -2.6618 -1.4441
   29SAPC   H3S 3855   2.492   0.505   6.867 -1.0351 -1.0238  0.2029
   29SAPC   C24 3856   2.592   0.320   6.883 -0.3187  0.0719 -0.4748
   29SAPC   H4R 3857   2.587   0.215   6.846  2.1816 -0.5185  0.7289
   29SAPC   H4S 3858   2.567   0.321   6.991 -0.5292  0.9346 -0.5339
   29SAPC   C25 3859   2.737   0.359   6.874  0.7690  0.6953  0.3232
   29SAPC   H5R 3860   2.761   0.406   6.777 -1.4992  2.1153  0.4105
   29SAPC   C26 3861   2.829   0.367   6.969 -0.4166 -0.1620  0.2014
   29SAPC   H6R 3862   2.925   0.417   6.949 -0.2773 -0.8007 -0.7363
   29SAPC   C27 3863   2.803   0.327   7.111  0.6512 -0.0027  0.3321
   29SAPC   H7R 3864   2.893   0.274   7.150  0.4640 -0.4622  0.1334
   29SAPC   H7S 3865   2.727   0.246   7.115  1.7201 -0.9402  2.4353
   29SAPC   C28 3866   2.764   0.447   7.196  0.4483  0.3640  0.2321
   29SAPC   H8R 3867   2.737   0.540   7.144 -1.9115  0.3510  1.3516
   29SAPC   C29 3868   2.775   0.451   7.333 -0.7550 -0.2369  0.8467
   29SAPC   H9R 3869   2.776   0.548   7.384  2.1852 -0.6503  1.6716
   29SAPC  C210 3870   2.825   0.343   7.423  0.0867 -0.0282 -0.6001
   29SAPC  H10R 3871   2.819   0.241   7.378  2.9245 -0.6075  0.2481
   29SAPC  H10S 3872   2.765   0.339   7.516  0.5181 -1.0323 -0.3603
   29SAPC  C211 3873   2.974   0.352   7.450 -0.2292 -0.3628 -0.2645
   29SAPC  H11R 3874   3.037   0.350   7.360 -0.9460 -0.6306 -0.7639
   29SAPC  C212 3875   3.035   0.347   7.566  0.2522  0.0691 -0.1606
   29SAPC  H12R 3876   3.143   0.368   7.566  0.6780 -1.7764  2.4249
   29SAPC  C213 3877   2.972   0.322   7.700  0.4182 -0.3684  0.5558
   29SAPC  H13R 3878   3.047   0.259   7.751  1.0872  0.2518  0.3512
   29SAPC  H13S 3879   2.884   0.255   7.689  0.3547 -0.0034 -1.3504
   29SAPC  C214 3880   2.947   0.445   7.784  0.1769 -0.0801 -0.5862
   29SAPC  H14R 3881   2.874   0.522   7.756  2.6407  2.6402  0.2205
   29SAPC  C215 3882   2.973   0.466   7.914  0.6390 -0.6960 -0.0807
   29SAPC  H15R 3883   2.955   0.568   7.952  3.3479 -0.1942 -0.0630
   29SAPC  C216 3884   3.061   0.376   8.000  0.3990 -0.0874 -0.3646
   29SAPC  H16R 3885   3.144   0.327   7.946 -0.1732 -1.1270 -0.3072
   29SAPC  H16S 3886   3.000   0.292   8.039  2.1195 -0.5990  1.2627
   29SAPC  C217 3887   3.120   0.454   8.122  0.4486 -0.2894  0.2929
   29SAPC  H17R 3888   3.033   0.467   8.189 -0.0332 -2.2871  0.0945
   29SAPC  H17S 3889   3.163   0.552   8.094  1.9656 -0.8826  0.4939
   29SAPC  C218 3890   3.237   0.385   8.195  0.2916 -0.3556  0.0004
   29SAPC  H18R 3891   3.293   0.325   8.119  1.1700 -0.0951  0.4337
   29SAPC  H18S 3892   3.199   0.312   8.269 -2.0649  0.0793 -0.7491
   29SAPC  C219 3893   3.324   0.485   8.253 -0.0153  0.4306 -0.2614
   29SAPC  H19R 3894   3.271   0.552   8.324  0.9707  0.9110  0.0257
   29SAPC  H19S 3895   3.364   0.548   8.171  0.0406 -1.5054 -1.7404
   29SAPC  C220 3896   3.431   0.432   8.345  0.4567  0.2689 -0.5974
   29SAPC  H20R 3897   3.458   0.521   8.406 -0.9086  0.0438  0.3712
   29SAPC  H20S 3898   3.501   0.386   8.273  0.4757 -1.8753  0.7392
   29SAPC  H20T 3899   3.387   0.344   8.398  0.0590  1.1585  0.5748
   29SAPC   C33 3900   2.104   0.247   6.887 -0.0764 -0.1181 -0.3209
   29SAPC   H3X 3901   2.182   0.295   6.825 -1.1454  1.5725 -0.3676
   29SAPC   H3Y 3902   2.125   0.138   6.883  1.2405  0.1812 -2.0160
   29SAPC   C34 3903   2.102   0.286   7.037 -0.9720  0.0443  0.0460
   29SAPC   H4X 3904   2.035   0.223   7.100 -0.5186  0.6177  1.1061
   29SAPC   H4Y 3905   2.061   0.389   7.047  0.5329  0.5194  1.6638
   29SAPC   C35 3906   2.238   0.268   7.113 -0.6657  0.3131 -0.6088
   29SAPC   H5X 3907   2.311   0.338   7.066 -0.4412  0.1735 -0.4652
   29SAPC   H5Y 3908   2.275   0.164   7.099 -1.5899 -0.4282  2.1601
   29SAPC   C36 3909   2.229   0.280   7.263 -0.3609  0.4032  0.4313
   29SAPC   H6X 3910   2.145   0.216   7.297  0.7759 -1.0096  0.6229
   29SAPC   H6Y 3911   2.212   0.385   7.296 -0.3946  0.5037  0.0943
   29SAPC   C37 3912   2.360   0.244   7.343 -0.1380 -0.8571  0.5695
   29SAPC   H7X 3913   2.438   0.307   7.295 -1.2318  0.5134  0.5600
   29SAPC   H7Y 3914   2.378   0.136   7.329 -1.9735 -0.9024 -1.6770
   29SAPC   C38 3915   2.346   0.263   7.494  0.0585 -0.2238  0.3608
   29SAPC   H8X 3916   2.290   0.174   7.532 -2.1671  0.6921 -0.7075
   29SAPC   H8Y 3917   2.290   0.356   7.518 -0.3181 -0.5461  0.7490
   29SAPC   C39 3918   2.484   0.269   7.560 -0.5272  0.2231  0.3511
   29SAPC   H9X 3919   2.536   0.366   7.543  1.0881 -0.5767  0.6044
   29SAPC   H9Y 3920   2.544   0.188   7.514 -0.3899  0.9197 -0.7155
   29SAPC  C310 3921   2.477   0.251   7.709  0.1222  0.3428  0.1573
   29SAPC  H10X 3922   2.438   0.153   7.744  0.9131  0.5601  1.6770
   29SAPC  H10Y 3923   2.416   0.335   7.746 -3.7389 -0.0718 -4.7087
   29SAPC  C311 3924   2.618   0.256   7.785 -0.3849 -0.8788  0.3204
   29SAPC  H11X 3925   2.661   0.357   7.766 -0.3310 -1.2834 -1.9572
   29SAPC  H11Y 3926   2.687   0.181   7.741  0.7343  2.0825 -3.3757
   29SAPC  C312 3927   2.610   0.203   7.924 -0.1225 -0.0250  0.3252
   29SAPC  H12X 3928   2.595   0.093   7.922  1.6450 -0.2837  0.5178
   29SAPC  H12Y 3929   2.521   0.253   7.969 -1.6741  0.5146 -3.1439
   29SAPC  C313 3930   2.717   0.250   8.022 -0.5734  0.3720  0.5708
   29SAPC  H13X 3931   2.708   0.360   8.013  1.6152  0.5811  0.6864
   29SAPC  H13Y 3932   2.809   0.202   7.983 -1.7878 -0.3227 -1.5193
   29SAPC  C314 3933   2.699   0.211   8.173  0.4765  0.2191  0.3199
   29SAPC  H14X 3934   2.683   0.101   8.164  0.6349  0.0881  1.5822
   29SAPC  H14Y 3935   2.603   0.252   8.211  1.2633  1.0327  1.4272
   29SAPC  C315 3936   2.804   0.269   8.269  0.0836  0.4618 -0.0810
   29SAPC  H15X 3937   2.811   0.379   8.254 -0.0528 -0.0524 -4.6583
   29SAPC  H15Y 3938   2.903   0.224   8.248 -0.3161  0.1678 -1.4087
   29SAPC  C316 3939   2.776   0.238   8.419 -0.2851 -0.7195 -0.7553
   29SAPC  H16X 3940   2.682   0.283   8.457  1.3900  1.7855  0.5057
   29SAPC  H16Y 3941   2.857   0.287   8.476 -1.6929  1.0280 -0.2201
   29SAPC  C317 3942   2.783   0.087   8.454 -0.2296  0.3127  0.1148
   29SAPC  H17X 3943   2.867   0.047   8.393 -0.7546  1.9712 -1.7642
   29SAPC  H17Y 3944   2.700   0.026   8.410 -0.0493 -0.4515  0.8173
   29SAPC  C318 3945   2.788   0.055   8.599  0.4574  0.7737 -0.0649
   29SAPC  H18X 3946   2.711   0.106   8.661 -2.1816 -1.1097 -1.6776
   29SAPC  H18Y 3947   2.891   0.074   8.635  0.0890  0.7813  1.0096
   29SAPC  H18Z 3948   2.761  -0.052   8.613  2.0211  0.1092 -2.0143
   30SAPC     N 3949   4.686   0.839   5.970  0.6025  0.1779 -0.6039
   30SAPC   C12 3950   4.537   0.859   6.017  0.4672 -0.2147 -0.0061
   30SAPC  H12A 3951   4.499   0.767   6.060  0.0926 -0.2062 -0.3171
   30SAPC  H12B 3952   4.474   0.855   5.929 -0.7161  1.3600  0.7397
   30SAPC   C13 3953   4.695   0.744   5.859 -0.7201 -0.0174 -0.2396
   30SAPC  H13A 3954   4.626   0.661   5.865 -1.0065  0.3769  2.3891
   30SAPC  H13B 3955   4.687   0.796   5.765  1.1627  0.9879  0.1294
   30SAPC  H13C 3956   4.789   0.693   5.851 -1.8312 -1.9593 -1.1170
   30SAPC   C14 3957   4.733   0.971   5.919  0.5538 -0.0269  0.0786
   30SAPC  H14A 3958   4.692   0.983   5.820 -1.3381  0.3493  0.8724
   30SAPC  H14B 3959   4.694   1.044   5.988 -0.8375  0.9669 -1.7178
   30SAPC  H14C 3960   4.840   0.973   5.910  0.4068  2.3169 -1.3260
   30SAPC   C15 3961   4.762   0.794   6.089  0.5285 -0.4747 -0.1399
   30SAPC  H15A 3962   4.743   0.690   6.108  0.4057 -0.1173  1.7875
   30SAPC  H15B 3963   4.865   0.823   6.077  0.0511  1.4112  0.1516
   30SAPC  H15C 3964   4.719   0.839   6.177 -1.2149 -1.0868 -0.6606
   30SAPC   C11 3965   4.504   0.960   6.131 -0.4460 -0.6436 -0.5278
   30SAPC  H11A 3966   4.566   0.934   6.220 -0.9092  0.8990  0.2777
   30SAPC  H11B 3967   4.397   0.946   6.159 -0.3962  1.0285  0.6256
   30SAPC     P 3968   4.415   1.195   6.035 -0.3978 -0.2809 -0.0894
   30SAPC   O13 3969   4.487   1.301   5.961  0.0696  0.2458  0.2591
   30SAPC   O14 3970   4.308   1.124   5.961  0.1030 -0.1855  0.0856
   30SAPC   O12 3971   4.524   1.094   6.096  0.4088  0.0042 -0.1464
   30SAPC   O11 3972   4.363   1.259   6.167  0.3766 -0.0549  0.4233
   30SAPC    C1 3973   4.286   1.202   6.275  0.3072  0.1257 -0.3353
   30SAPC    HA 3974   4.205   1.270   6.311 -0.2737  0.0037 -1.4064
   30SAPC    HB 3975   4.238   1.107   6.245 -0.1033 -0.1331  1.0816
   30SAPC    C2 3976   4.368   1.169   6.394 -0.4086  0.2040 -0.0259
   30SAPC    HS 3977   4.448   1.101   6.356 -0.8157  0.9179 -2.2444
   30SAPC   O21 3978   4.278   1.128   6.498  0.3800  0.0762 -1.2236
   30SAPC   C21 3979   4.287   0.988   6.526 -0.2502  0.2894  0.4830
   30SAPC   O22 3980   4.365   0.916   6.468  0.1808 -0.0912 -0.0780
   30SAPC   C22 3981   4.188   0.956   6.637 -0.1276  0.0749 -0.1561
   30SAPC   H2R 3982   4.188   1.038   6.713 -1.4375 -0.4704  0.4510
   30SAPC   H2S 3983   4.084   0.953   6.600 -0.2554  1.5951  0.0483
   30SAPC    C3 3984   4.439   1.298   6.447  0.2288 -0.2132 -0.0827
   30SAPC    HX 3985   4.364   1.379   6.458 -0.2783 -0.0500 -3.9567
   30SAPC    HY 3986   4.505   1.329   6.363  1.4718 -0.8511  0.6388
   30SAPC   O31 3987   4.498   1.272   6.575 -0.2130 -0.4450 -0.1786
   30SAPC   C31 3988   4.597   1.184   6.579  0.1790 -0.6572  0.3338
   30SAPC   O32 3989   4.658   1.135   6.481 -0.0605 -0.1146  0.0983
   30SAPC   C32 3990   4.649   1.165   6.729  0.2222 -0.3401  0.6180
   30SAPC   H2X 3991   4.558   1.146   6.788  1.2116 -1.1666  1.9008
   30SAPC   H2Y 3992   4.711   1.247   6.770  0.0191 -1.1281  2.5497
   30SAPC   C23 3993   4.212   0.811   6.694  0.1418  0.7195 -0.3128
   30SAPC   H3R 3994   4.237   0.742   6.611 -2.5526  0.5830 -1.0512
   30SAPC   H3S 3995   4.118   0.771   6.740  0.9614 -1.3330 -0.3631
   30SAPC   C24 3996   4.322   0.822   6.795 -0.3355 -0.6969 -0.3239
   30SAPC   H4R 3997   4.287   0.884   6.880 -1.8152 -1.1099 -0.6216
   30SAPC   H4S 3998   4.408   0.875   6.750 -1.3067  0.3806 -0.9322
   30SAPC   C25 3999   4.382   0.692   6.835  0.4139 -0.3085 -0.5002
   30SAPC   H5R 4000   4.394   0.613   6.760  0.6339 -0.3039 -0.4701
   30SAPC   C26 4001   4.444   0.670   6.953  0.3790  0.9094 -0.3796
   30SAPC   H6R 4002   4.469   0.564   6.970 -4.1651 -0.2537 -0.2624
   30SAPC   C27 4003   4.463   0.766   7.070  0.6591 -0.1787 -0.1044
   30SAPC   H7R 4004   4.491   0.871   7.045  1.5257 -0.2407  0.5853
   30SAPC   H7S 4005   4.562   0.744   7.115  1.0886 -0.2582 -1.0737
   30SAPC   C28 4006   4.347   0.760   7.167 -0.5329  0.6320 -0.1340
   30SAPC   H8R 4007   4.252   0.792   7.122 -1.1426 -0.4001  0.3948
   30SAPC   C29 4008   4.358   0.737   7.304  0.1543  0.4482 -0.1031
   30SAPC   H9R 4009   4.261   0.735   7.357  0.2592  0.0592  0.0772
   30SAPC  C210 4010   4.476   0.700   7.399 -0.9121  0.2210  0.4101
   30SAPC  H10R 4011   4.443   0.733   7.500 -0.3524  0.7992  0.4034
   30SAPC  H10S 4012   4.569   0.759   7.385 -1.7586  1.5410  0.3323
   30SAPC  C211 4013   4.504   0.557   7.391 -0.6503  0.1464 -0.0416
   30SAPC  H11R 4014   4.465   0.498   7.306 -0.2950 -0.8132  0.4542
   30SAPC  C212 4015   4.557   0.476   7.479  0.4339  0.5219  0.2874
   30SAPC  H12R 4016   4.583   0.374   7.450  1.3461  0.2249  2.0924
   30SAPC  C213 4017   4.615   0.490   7.615  0.2647 -0.0984 -0.4238
   30SAPC  H13R 4018   4.637   0.595   7.645 -0.7122 -0.2976  1.0406
   30SAPC  H13S 4019   4.714   0.439   7.612 -0.0983 -0.8798  0.4703
   30SAPC  C214 4020   4.526   0.436   7.722  0.0038  0.3086  0.3806
   30SAPC  H14R 4021   4.429   0.398   7.689  0.1371  1.3904 -1.2932
   30SAPC  C215 4022   4.560   0.423   7.849 -0.2311 -0.0973 -0.2292
   30SAPC  H15R 4023   4.487   0.369   7.910  1.1621 -2.7316 -0.8196
   30SAPC  C216 4024   4.685   0.481   7.912 -0.1995  0.0551  0.4303
   30SAPC  H16R 4025   4.725   0.577   7.875 -1.2131  0.8172  1.2827
   30SAPC  H16S 4026   4.768   0.412   7.885  0.0657  0.7863 -0.6427
   30SAPC  C217 4027   4.668   0.494   8.062 -0.3663 -0.6894  0.1664
   30SAPC  H17R 4028   4.568   0.540   8.078 -0.0737 -0.5709  1.7815
   30SAPC  H17S 4029   4.748   0.565   8.093  0.3765 -0.4938 -2.1179
   30SAPC  C218 4030   4.695   0.356   8.127 -0.2146  0.1881 -0.3134
   30SAPC  H18R 4031   4.783   0.309   8.080 -0.1508 -0.5057  0.4806
   30SAPC  H18S 4032   4.607   0.292   8.104 -0.3993  0.6700 -0.9537
   30SAPC  C219 4033   4.726   0.348   8.274 -0.3894  0.1308  0.0435
   30SAPC  H19R 4034   4.824   0.399   8.288  0.3687 -1.3750  0.3068
   30SAPC  H19S 4035   4.744   0.242   8.299  0.2606  0.2345  0.0242
   30SAPC  C220 4036   4.614   0.406   8.363 -0.0074 -0.3191  0.2419
   30SAPC  H20R 4037   4.650   0.400   8.468  1.4868 -1.3136 -0.3168
   30SAPC  H20S 4038   4.513   0.361   8.351 -0.2949  0.7665 -1.4864
   30SAPC  H20T 4039   4.608   0.512   8.333  0.8885 -0.3109  0.0877
   30SAPC   C33 4040   4.741   1.038   6.746  0.3696 -0.6396 -0.2211
   30SAPC   H3X 4041   4.816   1.049   6.665 -0.2200  1.3408 -0.5066
   30SAPC   H3Y 4042   4.689   0.942   6.723  0.1218 -1.1125  2.2079
   30SAPC   C34 4043   4.830   1.040   6.871  0.0530 -0.7353  0.2866
   30SAPC   H4X 4044   4.883   1.136   6.887 -0.4633 -0.2787 -0.6621
   30SAPC   H4Y 4045   4.896   0.953   6.887  1.9304  0.6904  0.4067
   30SAPC   C35 4046   4.724   1.032   6.990  0.7250  0.8003 -0.4053
   30SAPC   H5X 4047   4.691   0.926   6.998 -1.8274  1.5668 -0.4039
   30SAPC   H5Y 4048   4.627   1.085   6.982 -0.1363 -0.6542  0.0986
   30SAPC   C36 4049   4.799   1.062   7.116 -0.2591  0.4436  0.2315
   30SAPC   H6X 4050   4.808   1.172   7.130 -1.4608  0.6027 -0.1545
   30SAPC   H6Y 4051   4.904   1.025   7.123 -0.6450 -0.9304 -0.9238
   30SAPC   C37 4052   4.729   0.998   7.246  0.8624 -0.0113 -0.2859
   30SAPC   H7X 4053   4.712   0.889   7.228 -0.7480  0.4167 -1.4644
   30SAPC   H7Y 4054   4.635   1.053   7.270  1.9283  0.5808  2.6962
   30SAPC   C38 4055   4.825   1.010   7.367  0.2696 -0.3652  0.1876
   30SAPC   H8X 4056   4.845   1.119   7.379  2.5618 -0.6932 -0.3710
   30SAPC   H8Y 4057   4.924   0.965   7.346 -0.8065 -0.5943 -4.8650
   30SAPC   C39 4058   4.770   0.949   7.497 -0.0717  0.2440 -0.3087
   30SAPC   H9X 4059   4.760   0.838   7.494 -2.5307  0.3927  0.8591
   30SAPC   H9Y 4060   4.666   0.984   7.514  0.4486  2.2350 -1.1340
   30SAPC  C310 4061   4.852   0.978   7.614 -0.2229 -0.6087 -0.0714
   30SAPC  H10X 4062   4.835   1.087   7.626 -2.2130 -0.9100 -0.0455
   30SAPC  H10Y 4063   4.960   0.966   7.587 -0.2681  2.3531 -1.8116
   30SAPC  C311 4064   4.816   0.886   7.735 -0.0203  0.8977  0.4853
   30SAPC  H11X 4065   4.857   0.789   7.699 -1.0362  1.4815 -2.4400
   30SAPC  H11Y 4066   4.706   0.877   7.743 -0.0941 -0.0228 -1.2563
   30SAPC  C312 4067   4.879   0.940   7.861 -0.3441 -0.7279 -0.7552
   30SAPC  H12X 4068   4.842   1.042   7.887  2.9802  0.6489 -1.1700
   30SAPC  H12Y 4069   4.990   0.947   7.859 -0.3191 -0.9884 -0.3068
   30SAPC  C313 4070   4.835   0.852   7.986 -0.0913 -0.0484  0.0901
   30SAPC  H13X 4071   4.870   0.748   7.972  2.6305  1.1521 -2.3024
   30SAPC  H13Y 4072   4.724   0.861   7.993 -0.1853 -0.8260 -0.3687
   30SAPC  C314 4073   4.916   0.900   8.106 -0.0379 -0.4027 -0.6598
   30SAPC  H14X 4074   4.922   1.011   8.111 -1.6285 -0.3616  1.1431
   30SAPC  H14Y 4075   5.018   0.863   8.083  0.1881 -0.5732  0.5655
   30SAPC  C315 4076   4.869   0.847   8.247  0.6044  0.4582  0.6650
   30SAPC  H15X 4077   4.814   0.751   8.235  0.5598  0.5516  0.0741
   30SAPC  H15Y 4078   4.810   0.920   8.305  1.7313  1.6545  0.3216
   30SAPC  C316 4079   4.985   0.800   8.337  0.3126  0.0237  0.9122
   30SAPC  H16X 4080   5.044   0.886   8.375 -1.6634  2.0799 -0.5194
   30SAPC  H16Y 4081   5.053   0.731   8.283 -1.2572 -0.5229 -0.4115
   30SAPC  C317 4082   4.929   0.740   8.468  0.2475  0.4972 -0.0001
   30SAPC  H17X 4083   4.855   0.661   8.442  1.3146 -0.5086  0.0205
   30SAPC  H17Y 4084   4.873   0.821   8.518 -0.0908 -0.2659  0.8670
   30SAPC  C318 4085   5.051   0.692   8.558 -0.0013  0.6697  0.8734
   30SAPC  H18X 4086   5.120   0.778   8.573  2.5798 -0.5401 -3.1947
   30SAPC  H18Y 4087   5.112   0.609   8.516  1.9157  1.4017  2.1397
   30SAPC  H18Z 4088   5.008   0.670   8.657 -3.4394  1.9887 -0.2573
   31SAPC     N 4089   5.374   0.846   6.068 -0.1274  0.8858  0.1935
   31SAPC   C12 4090   5.373   0.870   6.218 -0.5897 -0.9345  0.0747
   31SAPC  H12A 4091   5.456   0.815   6.261 -0.5508 -2.6653 -2.1201
   31SAPC  H12B 4092   5.288   0.828   6.269 -0.9125  0.5798  0.8132
   31SAPC   C13 4093   5.382   0.700   6.029 -0.2817 -0.0311  1.1269
   31SAPC  H13A 4094   5.301   0.641   6.070 -1.4503  0.8428  0.1468
   31SAPC  H13B 4095   5.385   0.702   5.921  1.0719  2.7609  1.1781
   31SAPC  H13C 4096   5.475   0.660   6.065  1.9228  2.6997 -1.3406
   31SAPC   C14 4097   5.243   0.898   6.015 -0.2500  0.0888 -0.2417
   31SAPC  H14A 4098   5.222   0.861   5.916 -2.0331 -1.5461  0.7092
   31SAPC  H14B 4099   5.156   0.855   6.062  0.0918 -1.3236 -0.8754
   31SAPC  H14C 4100   5.250   1.005   6.029  3.7164 -0.3637  1.8865
   31SAPC   C15 4101   5.492   0.916   6.005 -0.5593 -0.0211  0.6314
   31SAPC  H15A 4102   5.582   0.871   6.046  1.7757  1.9257 -2.1528
   31SAPC  H15B 4103   5.492   0.898   5.899 -0.8344 -1.9264  0.9447
   31SAPC  H15C 4104   5.479   1.020   6.033  0.2880  0.6648 -1.3993
   31SAPC   C11 4105   5.360   1.016   6.275  0.5430 -0.6348  0.2269
   31SAPC  H11A 4106   5.328   1.002   6.381  0.1730 -2.9474 -0.1825
   31SAPC  H11B 4107   5.268   1.063   6.235 -0.2332 -0.6345  1.9637
   31SAPC     P 4108   5.608   1.060   6.337  0.0270  0.0909 -0.4184
   31SAPC   O13 4109   5.614   0.913   6.342 -0.0509  0.1688  0.1624
   31SAPC   O14 4110   5.724   1.132   6.275 -0.3039  0.4932  0.1567
   31SAPC   O12 4111   5.481   1.089   6.261  0.4395 -0.5598 -0.2828
   31SAPC   O11 4112   5.589   1.111   6.480  0.3220  0.0670  0.2074
   31SAPC    C1 4113   5.496   1.217   6.520 -0.2296 -0.0580  0.5256
   31SAPC    HA 4114   5.415   1.247   6.451 -0.0431 -0.6404  0.0418
   31SAPC    HB 4115   5.453   1.199   6.621 -1.1902 -2.0499 -0.2140
   31SAPC    C2 4116   5.585   1.344   6.541 -0.0798  0.3510  0.4541
   31SAPC    HS 4117   5.633   1.358   6.443  2.4483 -1.0421  1.4436
   31SAPC   O21 4118   5.690   1.318   6.642 -0.1635  0.4211  0.5078
   31SAPC   C21 4119   5.790   1.404   6.642 -0.4113 -0.6681  0.1409
   31SAPC   O22 4120   5.796   1.502   6.573 -1.3654  0.6544 -0.1539
   31SAPC   C22 4121   5.901   1.361   6.744 -0.0367 -0.3327  0.3336
   31SAPC   H2R 4122   5.891   1.252   6.762  1.3147 -0.7769 -1.4574
   31SAPC   H2S 4123   6.002   1.388   6.706 -1.4475  1.7693 -2.1048
   31SAPC    C3 4124   5.502   1.465   6.581  0.2498 -0.0103  0.3241
   31SAPC    HX 4125   5.408   1.453   6.522  0.8961  1.0426 -0.9378
   31SAPC    HY 4126   5.550   1.557   6.542 -0.1396  0.4282  0.8645
   31SAPC   O31 4127   5.475   1.470   6.719  0.0561 -0.3224 -0.3009
   31SAPC   C31 4128   5.413   1.582   6.760  0.2538  0.5474  0.0565
   31SAPC   O32 4129   5.386   1.682   6.688 -0.5155  0.3303 -0.5570
   31SAPC   C32 4130   5.359   1.562   6.901  0.0558  0.7193 -0.2687
   31SAPC   H2X 4131   5.447   1.538   6.966 -0.5582  0.5148  0.4936
   31SAPC   H2Y 4132   5.283   1.482   6.890  0.0203  0.9534 -1.7283
   31SAPC   C23 4133   5.875   1.432   6.879 -0.1988  0.1693 -0.9986
   31SAPC   H3R 4134   5.769   1.422   6.912 -0.2503  2.6762 -0.2693
   31SAPC   H3S 4135   5.887   1.541   6.862 -1.4031  0.7750  1.7651
   31SAPC   C24 4136   5.971   1.375   6.991  0.4276  0.1534  0.4617
   31SAPC   H4R 4137   6.074   1.416   6.981  0.0497  0.6621 -1.6071
   31SAPC   H4S 4138   5.969   1.266   6.973 -1.2154 -0.0130  1.5816
   31SAPC   C25 4139   5.928   1.388   7.137 -0.7300 -1.1463  0.1345
   31SAPC   H5R 4140   5.964   1.481   7.183 -0.3020 -1.2589  0.0307
   31SAPC   C26 4141   5.856   1.297   7.212 -0.1769  0.4615 -0.1357
   31SAPC   H6R 4142   5.828   1.321   7.316 -0.3618 -1.3903  0.2635
   31SAPC   C27 4143   5.797   1.168   7.162 -0.0981 -0.3380  0.0933
   31SAPC   H7R 4144   5.878   1.120   7.103  0.7238  0.9296  0.1555
   31SAPC   H7S 4145   5.713   1.188   7.093 -0.0835 -0.1735  0.1240
   31SAPC   C28 4146   5.741   1.084   7.273  0.3173  0.6916 -0.0928
   31SAPC   H8R 4147   5.727   1.132   7.371  0.2254  0.6326 -0.0771
   31SAPC   C29 4148   5.738   0.950   7.270 -0.3608  0.0566 -0.1507
   31SAPC   H9R 4149   5.695   0.903   7.360 -1.1057 -1.3742 -1.2499
   31SAPC  C210 4150   5.783   0.859   7.153 -0.3463 -0.4994 -0.1690
   31SAPC  H10R 4151   5.825   0.771   7.204  1.4154 -0.0108 -0.7583
   31SAPC  H10S 4152   5.865   0.914   7.103  0.7358 -0.8855  1.1536
   31SAPC  C211 4153   5.673   0.813   7.055 -0.3318 -0.5418 -0.5427
   31SAPC  H11R 4154   5.641   0.892   6.986  1.0317  2.6990  2.4165
   31SAPC  C212 4155   5.585   0.710   7.065 -0.1937  0.1358  0.3305
   31SAPC  H12R 4156   5.516   0.707   6.979 -0.4533  0.4240  0.5263
   31SAPC  C213 4157   5.580   0.606   7.174  0.5934  0.4430 -0.1930
   31SAPC  H13R 4158   5.687   0.604   7.202  0.8097  1.8614 -0.8694
   31SAPC  H13S 4159   5.561   0.501   7.144  0.0227  0.3149  0.5972
   31SAPC  C214 4160   5.481   0.628   7.286 -1.5707 -0.3904 -0.2370
   31SAPC  H14R 4161   5.406   0.705   7.262  1.2850  2.6378  0.1903
   31SAPC  C215 4162   5.489   0.575   7.410 -0.3063 -0.0918 -0.0679
   31SAPC  H15R 4163   5.402   0.594   7.475 -2.4155 -0.4481 -2.6959
   31SAPC  C216 4164   5.597   0.479   7.459 -0.5328 -0.1178 -0.8480
   31SAPC  H16R 4165   5.694   0.516   7.419 -0.7429  1.5656  0.1790
   31SAPC  H16S 4166   5.577   0.380   7.413 -0.1086 -0.6579  0.1198
   31SAPC  C217 4167   5.599   0.478   7.611 -0.4153  0.6920 -0.6863
   31SAPC  H17R 4168   5.682   0.408   7.632 -1.2576  0.4354  1.9583
   31SAPC  H17S 4169   5.516   0.423   7.660  1.4776 -2.0492 -0.4445
   31SAPC  C218 4170   5.620   0.610   7.676  0.1567 -0.0200  0.1403
   31SAPC  H18R 4171   5.611   0.595   7.785  0.5598  1.0234  0.3239
   31SAPC  H18S 4172   5.546   0.689   7.651  0.3670 -0.1068 -0.7699
   31SAPC  C219 4173   5.757   0.668   7.647 -0.0031 -0.4684 -0.0398
   31SAPC  H19R 4174   5.761   0.720   7.549 -1.0794 -1.2398 -0.5102
   31SAPC  H19S 4175   5.832   0.587   7.646 -0.9206 -1.3322 -0.1355
   31SAPC  C220 4176   5.804   0.772   7.749 -0.1518 -0.4200 -0.3532
   31SAPC  H20R 4177   5.743   0.865   7.750  3.2190  1.8726 -1.2581
   31SAPC  H20S 4178   5.909   0.800   7.729 -0.7043  0.9579 -1.3810
   31SAPC  H20T 4179   5.799   0.742   7.855 -4.4234  0.9267 -0.0617
   31SAPC   C33 4180   5.294   1.690   6.959  0.2145 -0.5125  0.6164
   31SAPC   H3X 4181   5.210   1.735   6.902  0.1252 -1.1242  0.2664
   31SAPC   H3Y 4182   5.377   1.763   6.956 -0.7681  0.5679 -0.8739
   31SAPC   C34 4183   5.242   1.673   7.102 -0.2170 -0.1016 -0.0135
   31SAPC   H4X 4184   5.317   1.622   7.165  0.1737  0.7900  0.2507
   31SAPC   H4Y 4185   5.155   1.604   7.091 -0.9013  0.5800  0.9812
   31SAPC   C35 4186   5.195   1.812   7.163 -0.3097 -0.1496  0.0295
   31SAPC   H5X 4187   5.148   1.871   7.081  2.5238  0.8446 -0.9416
   31SAPC   H5Y 4188   5.280   1.877   7.192 -0.9315  0.1727  1.1490
   31SAPC   C36 4189   5.091   1.811   7.276 -0.1215  0.5232  0.3519
   31SAPC   H6X 4190   5.006   1.746   7.244  0.5495  0.4399 -1.3279
   31SAPC   H6Y 4191   5.045   1.912   7.274  2.4975  1.7665  1.2220
   31SAPC   C37 4192   5.149   1.758   7.406  0.7242 -0.0339  0.5581
   31SAPC   H7X 4193   5.248   1.806   7.422  1.3723 -1.4379  0.7546
   31SAPC   H7Y 4194   5.184   1.653   7.397  2.2822  0.3162  2.4337
   31SAPC   C38 4195   5.060   1.773   7.535 -0.3389 -0.5855 -0.1100
   31SAPC   H8X 4196   4.978   1.701   7.516 -1.3737  0.0315  1.8658
   31SAPC   H8Y 4197   5.024   1.877   7.544  1.0599 -0.3290  3.1510
   31SAPC   C39 4198   5.126   1.710   7.659 -1.0317 -0.4581 -0.0250
   31SAPC   H9X 4199   5.204   1.777   7.702 -1.3558 -1.0200  1.4522
   31SAPC   H9Y 4200   5.185   1.624   7.621 -0.4520  1.0651 -2.7715
   31SAPC  C310 4201   5.027   1.667   7.765  0.4147 -0.0271  0.2927
   31SAPC  H10X 4202   4.951   1.597   7.724  0.4671  1.1323 -1.7924
   31SAPC  H10Y 4203   4.979   1.757   7.808  3.0106  1.0634  1.0448
   31SAPC  C311 4204   5.106   1.596   7.874  0.7950  0.6512  0.6006
   31SAPC  H11X 4205   5.171   1.672   7.923  1.4962  0.4253  0.0323
   31SAPC  H11Y 4206   5.176   1.529   7.819 -0.8523 -1.2113  0.7508
   31SAPC  C312 4207   5.028   1.499   7.965 -0.0395 -0.3472  0.5905
   31SAPC  H12X 4208   5.107   1.435   8.010  0.2475 -0.1850  0.3238
   31SAPC  H12Y 4209   4.976   1.432   7.894  0.7131 -0.5107  0.1886
   31SAPC  C313 4210   4.941   1.564   8.072 -0.1336 -0.3933  0.4187
   31SAPC  H13X 4211   4.852   1.614   8.027  2.2590  3.4929 -0.2526
   31SAPC  H13Y 4212   4.992   1.648   8.124 -2.1327  2.1409 -1.5571
   31SAPC  C314 4213   4.884   1.463   8.175 -0.4544 -0.2043 -1.0673
   31SAPC  H14X 4214   4.963   1.423   8.243 -0.3476 -0.7594 -1.5123
   31SAPC  H14Y 4215   4.843   1.379   8.115 -1.7897  1.9118 -3.2074
   31SAPC  C315 4216   4.769   1.522   8.247  0.5001 -0.2602 -0.6563
   31SAPC  H15X 4217   4.689   1.531   8.170  0.6677 -2.0556 -1.0583
   31SAPC  H15Y 4218   4.783   1.630   8.269  2.6836 -0.1590 -2.3871
   31SAPC  C316 4219   4.708   1.438   8.358 -0.9776  0.2465 -0.5508
   31SAPC  H16X 4220   4.783   1.403   8.432 -1.6515  0.2003  0.1203
   31SAPC  H16Y 4221   4.656   1.348   8.319 -2.2997  1.7362 -2.3323
   31SAPC  C317 4222   4.606   1.509   8.450 -0.2021  0.6690 -0.9615
   31SAPC  H17X 4223   4.513   1.518   8.391 -1.5949  0.3277  1.0985
   31SAPC  H17Y 4224   4.640   1.611   8.480  0.2052  0.0655  0.7068
   31SAPC  C318 4225   4.577   1.439   8.585  0.3225 -0.1529  0.5009
   31SAPC  H18X 4226   4.675   1.416   8.632 -0.6226 -2.1897  1.5271
   31SAPC  H18Y 4227   4.521   1.344   8.573  2.1411 -1.4156  1.6739
   31SAPC  H18Z 4228   4.527   1.515   8.649 -0.3457  0.5149 -0.7970
   32SAPC     N 4229   0.183   1.845   5.923 -0.2804 -0.4816  0.3756
   32SAPC   C12 4230   0.309   1.897   5.870 -0.2591 -0.6591 -0.1931
   32SAPC  H12A 4231   0.281   1.989   5.820  2.6566 -0.4424 -1.5563
   32SAPC  H12B 4232   0.342   1.832   5.790 -2.3261 -1.3953 -0.4911
   32SAPC   C13 4233   0.085   1.854   5.814  0.3134  0.2030 -0.4294
   32SAPC  H13A 4234   0.040   1.951   5.800 -3.5883 -1.2779  1.1444
   32SAPC  H13B 4235   0.123   1.800   5.729  0.2690 -1.1310  0.3851
   32SAPC  H13C 4236   0.002   1.795   5.849 -1.6703  1.2930 -3.0832
   32SAPC   C14 4237   0.200   1.705   5.961 -1.0941  0.0394 -0.5597
   32SAPC  H14A 4238   0.103   1.668   5.992 -0.9567  0.8856  0.9142
   32SAPC  H14B 4239   0.239   1.641   5.882  0.4345  0.3269 -0.0323
   32SAPC  H14C 4240   0.263   1.685   6.046  0.0830 -0.9310 -1.6360
   32SAPC   C15 4241   0.157   1.927   6.051  0.3463  0.6056 -0.3156
   32SAPC  H15A 4242   0.241   1.928   6.119  1.4458  0.1855 -1.6322
   32SAPC  H15B 4243   0.148   2.028   6.013 -1.6447  0.3904 -0.4770
   32SAPC  H15C 4244   0.063   1.896   6.093  0.5654  1.8898  1.1692
   32SAPC   C11 4245   0.421   1.938   5.972 -0.2681 -0.1918 -0.2596
   32SAPC  H11A 4246   0.517   1.933   5.917 -0.1679 -2.6640  0.1108
   32SAPC  H11B 4247   0.439   1.875   6.061  1.2071  1.6293  0.7619
   32SAPC     P 4248   0.479   2.143   6.135  0.1332  0.3229  0.3153
   32SAPC   O13 4249   0.573   2.048   6.208  0.4716 -0.6344 -0.3649
   32SAPC   O14 4250   0.545   2.269   6.100 -0.5876 -0.0613 -0.0349
   32SAPC   O12 4251   0.398   2.077   6.009  0.1053  0.4457 -0.3232
   32SAPC   O11 4252   0.356   2.168   6.228  0.4100  1.0123  0.5455
   32SAPC    C1 4253   0.244   2.256   6.200 -0.1592 -0.2256 -0.0756
   32SAPC    HA 4254   0.201   2.254   6.098  0.3267 -0.0952 -0.2883
   32SAPC    HB 4255   0.160   2.220   6.262 -0.0424 -0.3785 -0.0062
   32SAPC    C2 4256   0.267   2.410   6.227  0.5181  0.1032 -0.5579
   32SAPC    HS 4257   0.338   2.439   6.146  2.6042 -1.0537  0.7989
   32SAPC   O21 4258   0.334   2.435   6.354  0.1979 -0.1644 -0.2421
   32SAPC   C21 4259   0.386   2.559   6.362 -0.5801  0.0970  0.1805
   32SAPC   O22 4260   0.389   2.638   6.268 -0.1745  0.0217  0.4132
   32SAPC   C22 4261   0.420   2.610   6.505 -0.8847  0.8464  0.2179
   32SAPC   H2R 4262   0.514   2.669   6.492 -0.4586  0.0263 -0.4852
   32SAPC   H2S 4263   0.338   2.675   6.542 -1.5787 -0.2796  0.6812
   32SAPC    C3 4264   0.130   2.479   6.219 -0.2085 -0.5253  0.1943
   32SAPC    HX 4265   0.086   2.464   6.118  2.9850 -0.2835 -1.3071
   32SAPC    HY 4266   0.154   2.586   6.233  1.8802 -1.0249  0.5833
   32SAPC   O31 4267   0.042   2.424   6.316 -0.1460 -0.2288 -0.2220
   32SAPC   C31 4268   0.026   2.495   6.425  0.8091  0.3946 -0.2825
   32SAPC   O32 4269   0.059   2.611   6.449  0.4692  0.6036 -0.1315
   32SAPC   C32 4270  -0.073   2.432   6.529 -0.7041  0.0794 -0.2108
   32SAPC   H2X 4271  -0.060   2.322   6.543  1.4056  0.2547 -0.5713
   32SAPC   H2Y 4272  -0.166   2.447   6.470  0.0045  0.3499 -1.2898
   32SAPC   C23 4273   0.444   2.490   6.601  0.5621 -0.4587 -0.3641
   32SAPC   H3R 4274   0.522   2.425   6.556  3.0286  0.9670  1.7184
   32SAPC   H3S 4275   0.352   2.428   6.607 -0.0149  0.3665 -0.6726
   32SAPC   C24 4276   0.495   2.521   6.739  0.2101 -0.2059 -0.5044
   32SAPC   H4R 4277   0.489   2.431   6.804  0.6854 -0.5843 -0.9851
   32SAPC   H4S 4278   0.432   2.592   6.796  0.0871 -0.4656 -0.3163
   32SAPC   C25 4279   0.636   2.582   6.722  0.9454  0.1861 -0.5355
   32SAPC   H5R 4280   0.640   2.656   6.641 -0.8087 -0.9923 -1.7426
   32SAPC   C26 4281   0.746   2.561   6.798 -0.1657  0.0182  0.3162
   32SAPC   H6R 4282   0.840   2.614   6.778 -0.0628  0.0984  1.0093
   32SAPC   C27 4283   0.756   2.464   6.914 -0.3292 -0.3302 -0.8554
   32SAPC   H7R 4284   0.857   2.491   6.952  0.9466  0.7801 -4.7641
   32SAPC   H7S 4285   0.754   2.362   6.869 -2.6833  0.4416 -2.6033
   32SAPC   C28 4286   0.655   2.480   7.024 -0.1856 -0.2770  0.7512
   32SAPC   H8R 4287   0.608   2.580   7.027 -0.4356 -0.4137  1.5339
   32SAPC   C29 4288   0.617   2.380   7.105 -0.1048 -0.0834 -0.5960
   32SAPC   H9R 4289   0.557   2.405   7.194 -0.1478  0.3264 -0.7405
   32SAPC  C210 4290   0.669   2.239   7.092  0.3408 -0.7172 -0.1964
   32SAPC  H10R 4291   0.779   2.228   7.098  0.8756  3.1269 -1.7400
   32SAPC  H10S 4292   0.641   2.209   6.989 -1.9695  1.5226 -0.2720
   32SAPC  C211 4293   0.608   2.157   7.201 -0.7388 -0.7559  0.3016
   32SAPC  H11R 4294   0.517   2.099   7.178 -0.5237 -0.7240 -0.6498
   32SAPC  C212 4295   0.654   2.158   7.328  0.0472  0.4371 -0.1870
   32SAPC  H12R 4296   0.593   2.099   7.397  0.2843  1.5067  0.9486
   32SAPC  C213 4297   0.774   2.219   7.408  0.5307 -0.6367  0.2614
   32SAPC  H13R 4298   0.736   2.278   7.494  2.5359 -0.3890  1.0161
   32SAPC  H13S 4299   0.821   2.293   7.338 -0.3262 -1.4788 -1.2344
   32SAPC  C214 4300   0.882   2.119   7.438  0.4558 -0.2324  0.0844
   32SAPC  H14R 4301   0.958   2.110   7.360 -0.9792  1.6583 -1.5774
   32SAPC  C215 4302   0.897   2.037   7.546  0.0094 -0.3320  0.1064
   32SAPC  H15R 4303   0.999   1.995   7.543  1.0841  2.1913 -1.2847
   32SAPC  C216 4304   0.805   2.039   7.667 -0.3456 -0.2590 -1.6814
   32SAPC  H16R 4305   0.778   1.933   7.690 -1.5726  0.4565  0.3208
   32SAPC  H16S 4306   0.716   2.089   7.623  0.8545  1.0561 -2.6621
   32SAPC  C217 4307   0.865   2.092   7.798  0.6593  0.3256  0.7011
   32SAPC  H17R 4308   0.868   2.202   7.784  1.0856  0.3008  0.5939
   32SAPC  H17S 4309   0.962   2.042   7.818  0.3250 -0.2388  0.9068
   32SAPC  C218 4310   0.781   2.074   7.921  0.5878 -0.3876  0.9998
   32SAPC  H18R 4311   0.753   1.968   7.940  1.3106 -0.5251  1.3108
   32SAPC  H18S 4312   0.686   2.130   7.911  0.1229 -1.4761 -1.1563
   32SAPC  C219 4313   0.877   2.114   8.035  0.0064  0.0465 -0.6632
   32SAPC  H19R 4314   0.915   2.215   8.008  0.8076 -0.5637 -1.8247
   32SAPC  H19S 4315   0.960   2.040   8.040  1.1771  1.3662 -0.0518
   32SAPC  C220 4316   0.798   2.119   8.168  0.4066 -0.0075 -0.0994
   32SAPC  H20R 4317   0.699   2.168   8.171 -0.3924 -1.6340  0.6694
   32SAPC  H20S 4318   0.858   2.160   8.252  3.4857 -0.8791 -1.7830
   32SAPC  H20T 4319   0.782   2.009   8.177  1.1568 -0.3686 -2.6156
   32SAPC   C33 4320  -0.080   2.502   6.666 -0.2013 -0.1533 -0.2765
   32SAPC   H3X 4321  -0.083   2.611   6.644  1.8017 -0.3349 -1.5785
   32SAPC   H3Y 4322   0.015   2.488   6.723 -0.1616  1.4903  0.1008
   32SAPC   C34 4323  -0.196   2.447   6.748 -1.1651  0.0253 -0.0031
   32SAPC   H4X 4324  -0.162   2.349   6.788 -2.9643 -0.3079  0.7931
   32SAPC   H4Y 4325  -0.281   2.430   6.679  0.1865  0.4422 -1.8089
   32SAPC   C35 4326  -0.242   2.553   6.849  0.1348  0.1629  0.0019
   32SAPC   H5X 4327  -0.343   2.525   6.886  0.3213 -1.8103 -0.9132
   32SAPC   H5Y 4328  -0.239   2.651   6.796  0.6133  0.7833  1.1672
   32SAPC   C36 4329  -0.140   2.549   6.956  0.1059 -0.0949 -0.6067
   32SAPC   H6X 4330  -0.041   2.564   6.908 -0.0625  1.5551 -0.4595
   32SAPC   H6Y 4331  -0.160   2.453   7.008 -1.9652  0.3288 -0.5870
   32SAPC   C37 4332  -0.169   2.665   7.057  0.0867 -0.0412 -0.2850
   32SAPC   H7X 4333  -0.273   2.648   7.093  0.2796 -1.0506 -0.1726
   32SAPC   H7Y 4334  -0.151   2.763   7.009 -0.3883  0.3571  0.3479
   32SAPC   C38 4335  -0.089   2.629   7.186 -0.2970 -0.1734  0.0714
   32SAPC   H8X 4336   0.014   2.670   7.177  0.5998 -1.5192  3.5602
   32SAPC   H8Y 4337  -0.087   2.519   7.201  0.1122 -0.2451 -0.4904
   32SAPC   C39 4338  -0.157   2.682   7.308 -0.0846 -0.6705  0.1569
   32SAPC   H9X 4339  -0.262   2.644   7.308 -0.0599 -0.7366  0.2835
   32SAPC   H9Y 4340  -0.150   2.792   7.297  0.3804 -0.4342  2.5880
   32SAPC  C310 4341  -0.084   2.639   7.436 -0.8361  0.1560  0.4972
   32SAPC  H10X 4342   0.023   2.667   7.423 -0.9493 -0.0745 -1.0130
   32SAPC  H10Y 4343  -0.080   2.528   7.433 -4.2566 -0.1715  3.6875
   32SAPC  C311 4344  -0.165   2.677   7.565  0.3444  0.4428  0.0501
   32SAPC  H11X 4345  -0.254   2.610   7.570  0.8824 -0.1885  1.3428
   32SAPC  H11Y 4346  -0.213   2.776   7.551  1.1754  0.7804 -0.4181
   32SAPC  C312 4347  -0.082   2.674   7.693 -0.1762  0.6617 -0.0834
   32SAPC  H12X 4348  -0.012   2.759   7.708 -0.7619  0.7301  2.3525
   32SAPC  H12Y 4349  -0.011   2.589   7.685  0.6354  1.4638 -1.9844
   32SAPC  C313 4350  -0.148   2.640   7.829 -0.0097  0.4332 -0.0240
   32SAPC  H13X 4351  -0.220   2.559   7.808 -1.0187  0.7795  1.9806
   32SAPC  H13Y 4352  -0.214   2.720   7.868  1.9497  1.9532  0.2988
   32SAPC  C314 4353  -0.049   2.609   7.937 -0.3463  0.2335  0.0705
   32SAPC  H14X 4354   0.023   2.692   7.954 -1.4555  1.2454 -0.0659
   32SAPC  H14Y 4355   0.009   2.528   7.889  1.5737  0.5968  1.7137
   32SAPC  C315 4356  -0.097   2.546   8.067 -0.6725 -0.4865 -0.0211
   32SAPC  H15X 4357  -0.132   2.441   8.054  2.1128 -1.2156 -1.9850
   32SAPC  H15Y 4358  -0.187   2.600   8.103  0.6569  0.2742  2.3048
   32SAPC  C316 4359   0.008   2.549   8.185  0.2881  0.2561 -0.0261
   32SAPC  H16X 4360  -0.036   2.489   8.268  0.3606  0.6486  0.2955
   32SAPC  H16Y 4361   0.031   2.654   8.211 -0.3557  0.3317  0.2271
   32SAPC  C317 4362   0.146   2.492   8.142  0.0653 -0.1561  0.3925
   32SAPC  H17X 4363   0.216   2.498   8.228  0.4429  0.3587  0.0489
   32SAPC  H17Y 4364   0.180   2.556   8.058  0.5419 -1.3133 -0.3099
   32SAPC  C318 4365   0.140   2.348   8.087  0.0155 -0.2577 -0.3422
   32SAPC  H18X 4366   0.243   2.318   8.057  0.2118 -1.5762  1.5674
   32SAPC  H18Y 4367   0.077   2.330   7.997  0.4589  1.0800 -0.9365
   32SAPC  H18Z 4368   0.115   2.274   8.166 -0.1826 -1.0850 -1.1707
   33POPC     N 4369   4.906   2.946  10.566 -0.2942 -0.2356 -0.4791
   33POPC   C12 4370   5.046   2.879  10.579  0.6038  0.0789 -0.0824
   33POPC  H12A 4371   5.067   2.844  10.679 -0.0023 -1.9533 -0.6420
   33POPC  H12B 4372   5.119   2.955  10.554 -0.7326  1.3920 -0.0316
   33POPC   C13 4373   4.892   3.054  10.672 -0.0081 -0.7963  0.0211
   33POPC  H13A 4374   4.791   3.089  10.664  0.2252  0.8818  3.6125
   33POPC  H13B 4375   4.919   3.015  10.769  1.3568  1.4199  0.5631
   33POPC  H13C 4376   4.956   3.141  10.677  0.3291 -1.0728  0.5950
   33POPC   C14 4377   4.897   3.000  10.432 -0.7442 -0.3387  0.5978
   33POPC  H14A 4378   4.799   3.040  10.408 -2.0338 -3.4106  0.5022
   33POPC  H14B 4379   4.969   3.078  10.410  0.3630 -1.7718 -1.0427
   33POPC  H14C 4380   4.907   2.926  10.354  0.2755  0.5680 -0.1635
   33POPC   C15 4381   4.797   2.846  10.591 -0.6924  0.4491  0.3016
   33POPC  H15A 4382   4.706   2.880  10.543  0.4777  0.6953 -1.8136
   33POPC  H15B 4383   4.779   2.839  10.697 -1.2029  0.6980  0.2352
   33POPC  H15C 4384   4.831   2.753  10.548 -1.9564 -0.5942  1.4971
   33POPC   C11 4385   5.081   2.759  10.487 -0.0238  0.4724  0.5134
   33POPC  H11A 4386   5.192   2.760  10.488  0.0225  0.4534 -2.1301
   33POPC  H11B 4387   5.058   2.789  10.382  0.1304  1.8493  0.8580
   33POPC     P 4388   5.039   2.510  10.451 -0.4225 -0.1888 -0.0466
   33POPC   O13 4389   4.924   2.421  10.481  0.0347 -0.3294  0.3610
   33POPC   O14 4390   5.176   2.462  10.488 -0.8097  0.0332 -0.0567
   33POPC   O12 4391   5.011   2.646  10.532 -0.7359  0.2370  0.2041
   33POPC   O11 4392   5.029   2.559  10.305  0.1138  0.0203 -0.2014
   33POPC    C1 4393   4.902   2.609  10.260  0.5230 -0.1141  0.0539
   33POPC    HA 4394   4.813   2.552  10.292  1.1147 -0.4265  1.1557
   33POPC    HB 4395   4.890   2.711  10.303  1.2439  0.9877 -2.2654
   33POPC    C2 4396   4.898   2.642  10.107 -0.3308  0.4597  0.5143
   33POPC    HS 4397   4.804   2.698  10.087 -1.5933 -2.0159 -0.5872
   33POPC   O21 4398   4.897   2.520  10.030  0.2140 -0.0443  0.0078
   33POPC   C21 4399   4.806   2.423  10.045 -0.5045 -1.0068  0.4972
   33POPC   O22 4400   4.719   2.415  10.130 -0.1865 -0.8057  0.6387
   33POPC   C22 4401   4.835   2.325   9.917  0.5510 -0.3423  0.1392
   33POPC   H2R 4402   4.748   2.255   9.913  0.0216  0.1837  1.6665
   33POPC   H2S 4403   4.930   2.280   9.952 -0.2874  0.2560  3.4178
   33POPC    C3 4404   5.017   2.731  10.065  0.8206  0.0672 -0.5979
   33POPC    HX 4405   5.107   2.667  10.076  0.1075 -0.7138  0.9253
   33POPC    HY 4406   5.024   2.808  10.144  1.5600 -0.9018  0.2898
   33POPC   O31 4407   4.996   2.792   9.933 -0.0657 -0.2297  0.2002
   33POPC   C31 4408   5.056   2.908   9.897  0.2519  0.5026 -0.2897
   33POPC   O32 4409   5.138   2.959   9.973 -0.1299 -0.4180 -0.0696
   33POPC   C32 4410   5.037   2.950   9.749  0.6966  0.5637 -0.2404
   33POPC   H2X 4411   4.989   2.865   9.696  3.1789 -0.1238 -1.4546
   33POPC   H2Y 4412   5.138   2.965   9.704  1.1932 -3.7268 -0.8298
   33POPC   C23 4413   4.848   2.389   9.779  0.0194 -0.3111  0.0861
   33POPC   H3R 4414   4.902   2.486   9.774  0.7338 -0.5448  2.6020
   33POPC   H3S 4415   4.743   2.408   9.748 -0.0192  0.8193  0.8691
   33POPC   C24 4416   4.908   2.306   9.664  0.2232 -0.0298 -0.1973
   33POPC   H4R 4417   4.854   2.209   9.660 -1.7421  1.1275 -2.4331
   33POPC   H4S 4418   5.014   2.280   9.688 -0.1277 -1.2774  0.0581
   33POPC   C25 4419   4.898   2.363   9.521  0.0505 -0.0162  0.4618
   33POPC   H5R 4420   4.949   2.461   9.526  0.4447 -0.1486 -0.8456
   33POPC   H5S 4421   4.792   2.385   9.497  0.5699  2.8071  0.5996
   33POPC   C26 4422   4.958   2.265   9.417  0.1258 -0.1133 -0.2174
   33POPC   H6R 4423   4.897   2.173   9.416 -3.0956  1.9313 -0.5174
   33POPC   H6S 4424   5.061   2.231   9.437 -0.1389 -2.6692 -2.9170
   33POPC   C27 4425   4.965   2.319   9.274 -0.7572  0.1617 -0.1125
   33POPC   H7R 4426   4.993   2.233   9.210  1.8613  3.4324 -3.5236
   33POPC   H7S 4427   5.038   2.401   9.260 -1.8219  1.4270  1.4257
   33POPC   C28 4428   4.833   2.387   9.224 -0.2344  0.2532  1.1980
   33POPC   H8R 4429   4.806   2.467   9.296 -2.1700 -1.6364  2.6332
   33POPC   H8S 4430   4.767   2.298   9.230  1.1671 -1.1315 -2.6912
   33POPC   C29 4431   4.842   2.440   9.088 -0.2504  0.3094 -0.4867
   33POPC   H91 4432   4.840   2.550   9.085  1.0041  0.3496 -0.1146
   33POPC  C210 4433   4.869   2.380   8.968 -0.4533  0.5204  0.0742
   33POPC  H101 4434   4.848   2.436   8.876  1.9192  0.2455 -0.6851
   33POPC  C211 4435   4.877   2.232   8.950  0.2230 -0.1561 -0.0597
   33POPC  H11R 4436   4.890   2.176   9.045  0.5691  3.1540  1.9366
   33POPC  H11S 4437   4.962   2.206   8.884 -1.9008 -0.3724 -2.7901
   33POPC  C212 4438   4.745   2.192   8.887 -0.2963  0.3735 -0.4510
   33POPC  H12R 4439   4.656   2.235   8.938  1.3343  1.7364  1.3085
   33POPC  H12S 4440   4.744   2.081   8.896 -1.0549  0.3744 -0.5141
   33POPC  C213 4441   4.732   2.230   8.739  0.1196  0.5493 -0.2620
   33POPC  H13R 4442   4.824   2.203   8.684  0.6017  1.1489  0.2480
   33POPC  H13S 4443   4.731   2.341   8.733  0.0812  0.5425 -0.3928
   33POPC  C214 4444   4.601   2.186   8.672 -0.3710  0.2049  0.1086
   33POPC  H14R 4445   4.602   2.236   8.573  3.0798  1.5260  0.7278
   33POPC  H14S 4446   4.506   2.213   8.722 -0.7549 -3.2695  1.3902
   33POPC  C215 4447   4.603   2.036   8.636  0.2114  0.5088  0.3215
   33POPC  H15R 4448   4.580   1.984   8.732 -0.9242  0.5905  0.1045
   33POPC  H15S 4449   4.704   2.016   8.595  0.8981 -0.2877  2.3546
   33POPC  C216 4450   4.498   2.003   8.532 -0.2333  0.3633 -0.3545
   33POPC  H16R 4451   4.519   2.062   8.440  0.8109  0.4281 -0.0851
   33POPC  H16S 4452   4.394   2.024   8.564 -0.9616 -2.3251 -0.7639
   33POPC  C217 4453   4.517   1.855   8.494 -0.6614  0.2785  0.1791
   33POPC  H17R 4454   4.593   1.812   8.562  1.2998  0.7640 -1.6452
   33POPC  H17S 4455   4.567   1.855   8.394 -0.6200 -1.5979  0.1811
   33POPC  C218 4456   4.395   1.771   8.482 -0.1745  0.4236 -0.5282
   33POPC  H18R 4457   4.353   1.742   8.581  0.0423 -0.8289 -0.7938
   33POPC  H18S 4458   4.399   1.677   8.425  0.8765 -0.6956  1.3427
   33POPC  H18T 4459   4.317   1.837   8.439 -2.2135 -1.9906 -0.6486
   33POPC   C33 4460   4.965   3.079   9.720  0.0728  0.4074  0.3468
   33POPC   H3X 4461   4.998   3.169   9.775 -0.9433  0.5055  0.8090
   33POPC   H3Y 4462   4.857   3.074   9.746  0.1536 -3.1144  0.2893
   33POPC   C34 4463   4.952   3.138   9.575 -0.3267 -0.6729 -0.2186
   33POPC   H4X 4464   4.947   3.050   9.507  0.0909  0.7561 -2.1323
   33POPC   H4Y 4465   5.048   3.191   9.559  0.0698 -1.5287 -0.7075
   33POPC   C35 4466   4.837   3.236   9.549 -0.2707  0.2435  0.2086
   33POPC   H5X 4467   4.838   3.327   9.612  0.6193 -0.0540  0.6253
   33POPC   H5Y 4468   4.742   3.177   9.552  1.5407 -2.8046 -0.4443
   33POPC   C36 4469   4.840   3.281   9.394  0.4983 -0.2506  0.2245
   33POPC   H6X 4470   4.850   3.193   9.326 -1.5067 -1.8448  1.9348
   33POPC   H6Y 4471   4.932   3.343   9.387 -1.0890  2.3146  1.3948
   33POPC   C37 4472   4.712   3.355   9.351  0.3141 -0.1987  0.6364
   33POPC   H7X 4473   4.730   3.463   9.370  2.0406 -0.4099  0.3442
   33POPC   H7Y 4474   4.630   3.324   9.418 -0.0520 -0.5420  0.0301
   33POPC   C38 4475   4.682   3.333   9.200  0.3125 -0.3278  0.0741
   33POPC   H8X 4476   4.574   3.355   9.189  0.1409 -2.1592 -2.1558
   33POPC   H8Y 4477   4.704   3.231   9.163 -2.7910 -0.9020 -0.2811
   33POPC   C39 4478   4.771   3.428   9.110  0.4737 -0.1718  0.5364
   33POPC   H9X 4479   4.874   3.415   9.148  0.6981  1.9531  0.7038
   33POPC   H9Y 4480   4.743   3.532   9.137 -0.6280 -0.6628  1.3195
   33POPC  C310 4481   4.760   3.400   8.957 -0.1633  0.9723  0.0213
   33POPC  H10X 4482   4.656   3.428   8.929  0.1039  0.7734 -1.1714
   33POPC  H10Y 4483   4.774   3.296   8.922  0.5651  1.3579 -0.8661
   33POPC  C311 4484   4.855   3.480   8.875 -0.9817  0.3360  0.6179
   33POPC  H11X 4485   4.956   3.434   8.878 -0.1514  2.0199 -0.3854
   33POPC  H11Y 4486   4.857   3.587   8.904 -1.2449  0.5624 -0.1924
   33POPC  C312 4487   4.812   3.479   8.725 -0.7030 -0.7245 -0.0893
   33POPC  H12X 4488   4.712   3.528   8.722  0.7633  2.3332 -0.5752
   33POPC  H12Y 4489   4.796   3.373   8.696 -1.3728 -1.0461  1.3853
   33POPC  C313 4490   4.913   3.561   8.639 -0.4701 -0.5578  0.0850
   33POPC  H13X 4491   4.980   3.613   8.711  1.7603 -0.8720 -1.7175
   33POPC  H13Y 4492   4.852   3.635   8.584 -1.2796  0.5743  2.4468
   33POPC  C314 4493   4.983   3.465   8.547 -0.5690  0.1548  0.5514
   33POPC  H14X 4494   4.904   3.405   8.497  1.0115 -1.7592  0.3299
   33POPC  H14Y 4495   5.040   3.389   8.604  0.9127  0.6505 -0.2443
   33POPC  C315 4496   5.048   3.536   8.424 -0.1739 -0.3385 -0.3125
   33POPC  H15X 4497   5.144   3.577   8.462 -0.7473  2.7745 -2.0455
   33POPC  H15Y 4498   4.997   3.623   8.378  0.6683  0.0460 -0.5324
   33POPC  C316 4499   5.083   3.435   8.319  0.3249 -0.2372 -0.6398
   33POPC  H16X 4500   5.096   3.497   8.228  2.2149  0.7863  0.2916
   33POPC  H16Y 4501   4.999   3.367   8.296  0.6575 -0.2309 -1.9071
   33POPC  H16Z 4502   5.173   3.379   8.353  0.2340  1.1749  2.1538
   34POPC     N 4503   4.222   3.456  10.979  0.1100  0.7894 -0.7112
   34POPC   C12 4504   4.289   3.461  10.840 -0.3423  0.0675  0.9513
   34POPC  H12A 4505   4.348   3.371  10.832 -0.9392 -0.3201  0.9553
   34POPC  H12B 4506   4.358   3.545  10.844 -1.4498  0.9638  1.3011
   34POPC   C13 4507   4.328   3.448  11.082  0.2147  0.8169 -0.1522
   34POPC  H13A 4508   4.288   3.442  11.182 -1.6370 -1.4665 -0.9747
   34POPC  H13B 4509   4.395   3.367  11.055 -0.0178  1.1126 -1.6898
   34POPC  H13C 4510   4.394   3.534  11.085  0.0983  0.8542  1.8724
   34POPC   C14 4511   4.146   3.575  11.012  0.7324  0.1736  0.3093
   34POPC  H14A 4512   4.100   3.562  11.109 -1.6376  1.8339 -0.5561
   34POPC  H14B 4513   4.205   3.664  10.994 -0.5160  1.4217  2.1690
   34POPC  H14C 4514   4.057   3.579  10.952  2.7133 -0.9279 -2.8220
   34POPC   C15 4515   4.124   3.342  10.993 -0.0699  0.0722  0.0547
   34POPC  H15A 4516   4.072   3.336  11.087  1.8596 -0.2086  1.1314
   34POPC  H15B 4517   4.164   3.243  10.982  1.0048  0.7538 -2.7609
   34POPC  H15C 4518   4.050   3.354  10.915  1.3582  0.0647 -1.3361
   34POPC   C11 4519   4.204   3.467  10.712  0.3859 -0.5583 -0.2256
   34POPC  H11A 4520   4.272   3.490  10.628  1.0848 -0.3485  0.3934
   34POPC  H11B 4521   4.127   3.546  10.707  1.2366  0.2381 -0.8746
   34POPC     P 4522   4.210   3.220  10.637  0.1967 -0.0915  0.2745
   34POPC   O13 4523   4.113   3.104  10.621 -0.2883 -0.6795 -0.2244
   34POPC   O14 4524   4.324   3.196  10.723 -0.1841 -0.0881 -0.0172
   34POPC   O12 4525   4.130   3.344  10.694  0.0882 -0.5283  0.9835
   34POPC   O11 4526   4.258   3.279  10.496  0.1284 -0.2632 -0.1904
   34POPC    C1 4527   4.152   3.311  10.400 -0.8070  0.3510 -0.0490
   34POPC    HA 4528   4.174   3.412  10.360 -2.3652  0.8568  0.3155
   34POPC    HB 4529   4.046   3.319  10.435 -0.8490  2.2959 -0.6231
   34POPC    C2 4530   4.149   3.215  10.274 -0.0931  0.2546  0.0586
   34POPC    HS 4531   4.148   3.109  10.308  1.6732  0.8099  1.9346
   34POPC   O21 4532   4.263   3.246  10.193  0.4804 -0.3522 -0.0463
   34POPC   C21 4533   4.290   3.150  10.098  0.4521  0.1709 -0.0319
   34POPC   O22 4534   4.236   3.046  10.101  0.1319 -0.1266 -0.3710
   34POPC   C22 4535   4.405   3.188   9.998 -0.1270  0.2938  0.0431
   34POPC   H2R 4536   4.411   3.108   9.920 -0.9648 -0.1407  0.4120
   34POPC   H2S 4537   4.501   3.182  10.053 -0.0235 -1.4961 -0.2919
   34POPC    C3 4538   4.007   3.225  10.200  0.1466 -0.6391 -0.1248
   34POPC    HX 4539   3.933   3.179  10.269 -0.4783  0.5659  0.0376
   34POPC    HY 4540   4.001   3.146  10.123  0.2234  0.6162 -1.4256
   34POPC   O31 4541   3.968   3.365  10.171 -0.1422  0.2108 -0.5015
   34POPC   C31 4542   3.985   3.390  10.044 -0.2413  1.0186 -0.0576
   34POPC   O32 4543   4.026   3.314   9.956 -0.2577 -0.3278 -0.6306
   34POPC   C32 4544   3.955   3.541  10.019  0.0567 -1.1165 -0.3033
   34POPC   H2X 4545   4.044   3.593  10.061 -0.7674 -1.2092  1.6227
   34POPC   H2Y 4546   3.869   3.570  10.083 -0.2742 -0.8215 -0.8763
   34POPC   C23 4547   4.383   3.324   9.922 -0.5526  0.4055 -0.2360
   34POPC   H3R 4548   4.410   3.408   9.989  0.3351  0.4066 -0.5956
   34POPC   H3S 4549   4.276   3.328   9.892 -0.7234 -1.4491  0.0808
   34POPC   C24 4550   4.458   3.330   9.796 -0.4294 -0.4032  1.1448
   34POPC   H4R 4551   4.437   3.241   9.734  0.1360 -0.1730  0.6224
   34POPC   H4S 4552   4.568   3.325   9.816  0.5266  1.0070 -3.2847
   34POPC   C25 4553   4.438   3.463   9.720  0.0706 -0.7592 -0.6642
   34POPC   H5R 4554   4.529   3.467   9.657 -0.1435 -0.1468 -0.9433
   34POPC   H5S 4555   4.433   3.553   9.786 -0.7002 -0.4886 -1.0846
   34POPC   C26 4556   4.321   3.458   9.631 -0.7182 -0.2569  0.0022
   34POPC   H6R 4557   4.227   3.439   9.687  0.6599  1.9474  3.2019
   34POPC   H6S 4558   4.348   3.383   9.554 -2.8633 -1.0701  0.0045
   34POPC   C27 4559   4.298   3.589   9.551  0.9341 -0.4659  0.4448
   34POPC   H7R 4560   4.395   3.643   9.545  0.9545 -0.6159 -0.6893
   34POPC   H7S 4561   4.235   3.654   9.616 -2.5853 -1.9902 -1.2901
   34POPC   C28 4562   4.243   3.572   9.407  0.2540 -0.3700  0.1712
   34POPC   H8R 4563   4.231   3.672   9.361 -3.8726 -0.0880  1.5784
   34POPC   H8S 4564   4.142   3.527   9.420 -0.1134  0.6678  1.0572
   34POPC   C29 4565   4.323   3.494   9.309  0.1381 -0.2746  0.2311
   34POPC   H91 4566   4.430   3.491   9.332  0.6369  3.4110 -1.4364
   34POPC  C210 4567   4.277   3.398   9.221 -0.0372  0.5420 -0.4614
   34POPC  H101 4568   4.355   3.341   9.169  0.0075  0.5381 -0.3888
   34POPC  C211 4569   4.143   3.354   9.181 -1.0147  0.0946  0.4734
   34POPC  H11R 4570   4.069   3.435   9.193 -2.2188 -0.6701 -1.6204
   34POPC  H11S 4571   4.110   3.265   9.240  0.9919 -0.5162  0.7323
   34POPC  C212 4572   4.111   3.308   9.038 -0.0793 -0.3310  0.7666
   34POPC  H12R 4573   4.003   3.282   9.026 -0.4247  1.8000 -1.4147
   34POPC  H12S 4574   4.169   3.222   9.000  1.4060  1.5152 -1.3080
   34POPC  C213 4575   4.137   3.428   8.936  0.0884  0.1111  0.4227
   34POPC  H13R 4576   4.248   3.426   8.925 -0.1830 -0.4514 -2.3079
   34POPC  H13S 4577   4.118   3.531   8.973  1.6552  1.2750 -1.8999
   34POPC  C214 4578   4.063   3.411   8.805  0.0394 -0.1172  0.7031
   34POPC  H14R 4579   3.952   3.415   8.809 -0.1103 -1.9978 -0.8425
   34POPC  H14S 4580   4.082   3.304   8.784 -0.1406 -0.5377  2.5721
   34POPC  C215 4581   4.124   3.489   8.679 -0.0936  0.3269  0.6316
   34POPC  H15R 4582   4.207   3.427   8.638  1.4320  2.1659  0.8730
   34POPC  H15S 4583   4.171   3.579   8.723 -1.2269  0.7506  0.9885
   34POPC  C216 4584   4.021   3.535   8.572  0.0955 -0.5966  0.2116
   34POPC  H16R 4585   4.083   3.580   8.492 -0.1262  3.2182  2.0983
   34POPC  H16S 4586   3.955   3.612   8.616  3.5429  1.8708  1.2797
   34POPC  C217 4587   3.936   3.418   8.515 -0.0999  0.5188 -0.5953
   34POPC  H17R 4588   3.888   3.362   8.598  1.3623 -1.6661 -1.1792
   34POPC  H17S 4589   3.996   3.336   8.470  1.1210  1.8223 -1.3710
   34POPC  C218 4590   3.812   3.445   8.432  1.1714 -0.8354  0.2574
   34POPC  H18R 4591   3.759   3.348   8.422  2.4992 -1.4461 -1.1274
   34POPC  H18S 4592   3.836   3.494   8.335  2.4179 -1.0417  0.4480
   34POPC  H18T 4593   3.756   3.517   8.494  0.0248  0.2006 -1.9309
   34POPC   C33 4594   3.941   3.565   9.871 -0.1185 -0.1726 -0.1482
   34POPC   H3X 4595   4.017   3.510   9.813 -1.8138 -2.1009 -0.6150
   34POPC   H3Y 4596   3.954   3.673   9.853  3.7244 -0.4206  0.8767
   34POPC   C34 4597   3.806   3.520   9.825  0.7246  0.5007 -0.4718
   34POPC   H4X 4598   3.727   3.572   9.884  1.1759 -0.2960  0.8504
   34POPC   H4Y 4599   3.796   3.412   9.846  0.0372  0.8435  1.0396
   34POPC   C35 4600   3.780   3.539   9.671  0.1608  0.8142  0.0912
   34POPC   H5X 4601   3.750   3.637   9.630 -0.7484 -0.8721 -3.5087
   34POPC   H5Y 4602   3.689   3.476   9.657 -0.3860  1.6052  0.0492
   34POPC   C36 4603   3.892   3.487   9.574  0.0027  0.8886  0.2135
   34POPC   H6X 4604   3.928   3.400   9.633  0.2541  0.4073 -0.6432
   34POPC   H6Y 4605   3.968   3.568   9.570 -1.2467  2.0880  0.3858
   34POPC   C37 4606   3.828   3.460   9.438  0.1340 -0.1617 -0.1849
   34POPC   H7X 4607   3.734   3.402   9.451  0.6441 -1.1297 -0.7280
   34POPC   H7Y 4608   3.897   3.400   9.374 -0.4396 -1.1648  0.1137
   34POPC   C38 4609   3.797   3.590   9.359  0.2961 -0.0123 -0.3946
   34POPC   H8X 4610   3.893   3.644   9.349 -1.0460  2.2296 -1.4790
   34POPC   H8Y 4611   3.716   3.643   9.414  0.7291  1.4390 -1.1248
   34POPC   C39 4612   3.731   3.569   9.223 -1.0310 -0.6091 -0.3930
   34POPC   H9X 4613   3.640   3.506   9.227 -0.7770 -1.1106 -2.0377
   34POPC   H9Y 4614   3.807   3.517   9.160 -0.6717  1.2863 -1.5580
   34POPC  C310 4615   3.701   3.697   9.145  0.6246 -0.5133 -0.7298
   34POPC  H10X 4616   3.786   3.767   9.162  1.1770 -1.7551  1.7652
   34POPC  H10Y 4617   3.611   3.744   9.190  0.3173 -2.8027  1.1078
   34POPC  C311 4618   3.679   3.680   8.994 -0.2464 -0.5469  0.3582
   34POPC  H11X 4619   3.627   3.583   8.979  1.9193 -1.5276 -0.9920
   34POPC  H11Y 4620   3.781   3.678   8.949  0.3471 -1.7670  1.7249
   34POPC  C312 4621   3.597   3.789   8.909 -0.5132 -0.7493 -0.0327
   34POPC  H12X 4622   3.500   3.822   8.951  0.8255  1.7987  1.1922
   34POPC  H12Y 4623   3.585   3.752   8.805  0.3220  0.4485 -0.5708
   34POPC  C313 4624   3.682   3.918   8.893 -0.0293 -0.1069 -0.2539
   34POPC  H13X 4625   3.782   3.893   8.852 -0.6407  2.2443 -3.3224
   34POPC  H13Y 4626   3.691   3.958   8.996 -0.9268 -0.1534 -0.1522
   34POPC  C314 4627   3.620   4.027   8.809  0.0799  0.1978 -0.5693
   34POPC  H14X 4628   3.518   4.052   8.847  1.1459 -0.5772  2.9737
   34POPC  H14Y 4629   3.600   3.996   8.704  0.3582  0.6520 -0.7586
   34POPC  C315 4630   3.699   4.153   8.805 -0.0019 -0.3732 -0.0421
   34POPC  H15X 4631   3.805   4.139   8.778 -0.0910  1.1108 -1.2373
   34POPC  H15Y 4632   3.695   4.198   8.907 -1.7394 -1.8354  0.5623
   34POPC  C316 4633   3.637   4.250   8.706 -0.2204 -0.3320  0.2680
   34POPC  H16X 4634   3.631   4.198   8.607 -0.6807 -0.3530  0.3047
   34POPC  H16Y 4635   3.712   4.329   8.689  0.2877 -0.8289  0.1712
   34POPC  H16Z 4636   3.536   4.285   8.737  0.2777  1.6745 -0.3387
   35POPC     N 4637   3.605   0.774  10.969  0.7206 -0.4640  0.6779
   35POPC   C12 4638   3.488   0.824  10.879  0.7955  0.1426  0.6503
   35POPC  H12A 4639   3.398   0.766  10.897  0.8364  0.0214  0.4630
   35POPC  H12B 4640   3.512   0.805  10.776  3.6652  1.9224  0.9325
   35POPC   C13 4641   3.618   0.626  10.955  0.2982  0.1590  0.2025
   35POPC  H13A 4642   3.692   0.586  11.023 -0.6639 -1.1326  0.5182
   35POPC  H13B 4643   3.524   0.577  10.975 -1.1813  1.7603 -2.6687
   35POPC  H13C 4644   3.647   0.605  10.853 -0.4395  0.2803 -0.0347
   35POPC   C14 4645   3.735   0.841  10.919 -0.4074 -0.7616 -0.3898
   35POPC  H14A 4646   3.811   0.819  10.992 -1.8736 -1.8526  0.8424
   35POPC  H14B 4647   3.766   0.811  10.820  1.1374 -1.4246  0.2828
   35POPC  H14C 4648   3.719   0.948  10.919  2.1582 -0.3224 -1.5490
   35POPC   C15 4649   3.582   0.813  11.110 -0.0851 -0.2581 -0.1170
   35POPC  H15A 4650   3.658   0.786  11.182 -0.7837  0.9187  1.0686
   35POPC  H15B 4651   3.482   0.781  11.137 -0.7149  1.8633  0.1727
   35POPC  H15C 4652   3.587   0.919  11.127 -0.9123 -0.3361  0.6432
   35POPC   C11 4653   3.443   0.972  10.882  0.8722  0.0415 -0.0313
   35POPC  H11A 4654   3.384   0.999  10.792 -1.1273 -1.9556  0.6243
   35POPC  H11B 4655   3.524   1.046  10.866 -1.1328  1.8124 -2.2014
   35POPC     P 4656   3.397   1.143  11.073 -0.3680 -0.4557  0.2142
   35POPC   O13 4657   3.515   1.140  11.161  0.0440 -0.1542 -0.3901
   35POPC   O14 4658   3.269   1.186  11.134 -0.0926  0.0751  0.2504
   35POPC   O12 4659   3.382   1.005  11.010 -0.1950 -0.0711  0.6310
   35POPC   O11 4660   3.438   1.229  10.949  0.4808 -0.2244 -0.3365
   35POPC    C1 4661   3.330   1.297  10.872 -0.3059 -0.4274  0.3139
   35POPC    HA 4662   3.321   1.404  10.900 -0.5559  0.1488 -1.9094
   35POPC    HB 4663   3.230   1.251  10.884 -0.0346 -2.4957 -4.2208
   35POPC    C2 4664   3.363   1.319  10.727 -0.0252 -0.0555 -0.1820
   35POPC    HS 4665   3.357   1.216  10.687 -1.1685 -0.8296  1.9208
   35POPC   O21 4666   3.502   1.371  10.718 -0.2649 -0.0029  0.4301
   35POPC   C21 4667   3.572   1.316  10.617  0.5211  0.0120  0.0456
   35POPC   O22 4668   3.541   1.213  10.558  0.0712  0.5145  0.1476
   35POPC   C22 4669   3.708   1.389  10.608  0.3411  1.1241 -0.1517
   35POPC   H2R 4670   3.776   1.351  10.686 -0.8553  0.2598  0.4963
   35POPC   H2S 4671   3.679   1.496  10.623  0.3193  1.2857 -1.3078
   35POPC    C3 4672   3.268   1.423  10.655 -0.0159 -0.4772 -0.1877
   35POPC    HX 4673   3.306   1.525  10.679 -2.8106  0.0278  2.4675
   35POPC    HY 4674   3.161   1.424  10.684 -0.0986  1.8151 -0.4770
   35POPC   O31 4675   3.272   1.413  10.513 -0.0980 -0.3413  0.2518
   35POPC   C31 4676   3.209   1.305  10.469  0.7767 -0.8312  0.3416
   35POPC   O32 4677   3.157   1.224  10.541  0.7158  0.1035 -0.1667
   35POPC   C32 4678   3.191   1.322  10.316 -0.0549  0.2765 -0.2406
   35POPC   H2X 4679   3.128   1.410  10.287 -2.0091 -1.2042 -0.5836
   35POPC   H2Y 4680   3.114   1.246  10.294 -0.9826  0.8702  0.8934
   35POPC   C23 4681   3.780   1.367  10.466 -0.0353  0.0595  0.0120
   35POPC   H3R 4682   3.772   1.258  10.447  1.2998  0.0577 -0.6195
   35POPC   H3S 4683   3.887   1.398  10.468 -0.5968  2.0344  2.0256
   35POPC   C24 4684   3.714   1.441  10.351 -0.3384 -0.1315  0.0338
   35POPC   H4R 4685   3.712   1.552  10.355  0.0869 -0.0537 -1.4877
   35POPC   H4S 4686   3.611   1.407  10.326 -1.5884  3.6049 -0.1739
   35POPC   C25 4687   3.798   1.413  10.225  0.9449  0.1077 -0.0087
   35POPC   H5R 4688   3.765   1.314  10.185 -0.9592  0.5597  0.4017
   35POPC   H5S 4689   3.908   1.412  10.235  1.0025 -1.3566 -0.6429
   35POPC   C26 4690   3.761   1.514  10.115  0.3263 -0.2307  0.0919
   35POPC   H6R 4691   3.788   1.618  10.146 -1.7101  0.4098 -0.2164
   35POPC   H6S 4692   3.654   1.517  10.088  0.6929  2.7194 -1.1914
   35POPC   C27 4693   3.828   1.483   9.981 -0.0340 -1.0246  0.1292
   35POPC   H7R 4694   3.799   1.381   9.947 -0.3465  0.2664 -3.7467
   35POPC   H7S 4695   3.939   1.492   9.988  0.0197 -0.6055 -1.1394
   35POPC   C28 4696   3.775   1.562   9.857  0.2306 -0.3804 -0.0941
   35POPC   H8R 4697   3.789   1.672   9.868 -0.0925 -0.4485  1.0343
   35POPC   H8S 4698   3.666   1.544   9.846  0.0349  1.6224 -1.8996
   35POPC   C29 4699   3.841   1.525   9.727 -0.3039 -0.8672  0.0756
   35POPC   H91 4700   3.932   1.463   9.728  0.4055  0.1325 -1.4770
   35POPC  C210 4701   3.793   1.572   9.611 -0.2613  0.4287  0.1866
   35POPC  H101 4702   3.841   1.539   9.518 -0.3175  0.4249  0.1590
   35POPC  C211 4703   3.679   1.664   9.605 -0.2402 -0.2168  0.1740
   35POPC  H11R 4704   3.696   1.748   9.675  2.3475  0.2646 -0.9952
   35POPC  H11S 4705   3.587   1.615   9.645  0.0459 -2.4519 -1.7706
   35POPC  C212 4706   3.649   1.735   9.472 -0.4331  0.2523  0.0714
   35POPC  H12R 4707   3.745   1.768   9.428  0.5614 -2.5152  0.0681
   35POPC  H12S 4708   3.599   1.831   9.495 -2.2102 -0.7238  0.4307
   35POPC  C213 4709   3.580   1.652   9.360 -0.0351  0.6682  0.2106
   35POPC  H13R 4710   3.507   1.580   9.402  0.1998  0.6436  0.5797
   35POPC  H13S 4711   3.661   1.592   9.312 -0.9848 -1.6406  1.4090
   35POPC  C214 4712   3.502   1.745   9.255 -1.4405  0.0046 -0.1014
   35POPC  H14R 4713   3.570   1.801   9.188 -1.7990 -0.5868 -0.9688
   35POPC  H14S 4714   3.439   1.821   9.307  0.9207  2.3900 -0.6192
   35POPC  C215 4715   3.416   1.657   9.156  0.2169 -0.1110  0.6276
   35POPC  H15R 4716   3.355   1.594   9.224 -0.5057 -1.1270 -0.9221
   35POPC  H15S 4717   3.477   1.581   9.102 -1.2509 -1.3034  0.6250
   35POPC  C216 4718   3.326   1.725   9.049  0.3388  0.4512 -0.8099
   35POPC  H16R 4719   3.264   1.792   9.113  1.0981  1.2301 -0.8748
   35POPC  H16S 4720   3.262   1.651   8.997  0.9674 -0.9790  0.4054
   35POPC  C217 4721   3.402   1.801   8.946  0.3086 -0.3617  0.0456
   35POPC  H17R 4722   3.465   1.729   8.891 -0.5802 -0.0244 -1.4287
   35POPC  H17S 4723   3.475   1.867   8.998  1.6804 -0.6196 -1.5203
   35POPC  C218 4724   3.313   1.882   8.848  0.6011 -0.2176  0.2231
   35POPC  H18R 4725   3.242   1.820   8.789  0.7801 -0.6566  0.4700
   35POPC  H18S 4726   3.391   1.922   8.779  1.4261 -1.2763  0.5345
   35POPC  H18T 4727   3.242   1.956   8.891  0.5518 -0.4141  0.4827
   35POPC   C33 4728   3.315   1.308  10.228  1.1943  0.3713 -0.3207
   35POPC   H3X 4729   3.403   1.357  10.276  1.4361 -0.2744 -0.0926
   35POPC   H3Y 4730   3.294   1.358  10.131  0.3888  0.2876 -0.1891
   35POPC   C34 4731   3.332   1.167  10.191 -0.6576 -0.1868 -0.2676
   35POPC   H4X 4732   3.238   1.132  10.142 -0.5841 -0.5545 -0.1526
   35POPC   H4Y 4733   3.347   1.104  10.281  1.9613  0.5163 -0.1765
   35POPC   C35 4734   3.450   1.144  10.098 -0.0722  0.6307 -0.3530
   35POPC   H5X 4735   3.475   1.037  10.109 -2.3169  0.2360  1.2907
   35POPC   H5Y 4736   3.533   1.206  10.139 -0.4092 -0.0294  1.3742
   35POPC   C36 4737   3.453   1.166   9.945  1.0078 -0.4936 -0.4187
   35POPC   H6X 4738   3.365   1.108   9.910  2.0301 -2.3397  0.0160
   35POPC   H6Y 4739   3.537   1.108   9.901  0.5569 -0.0995 -1.8485
   35POPC   C37 4740   3.446   1.310   9.906  0.1757 -0.0049 -0.4733
   35POPC   H7X 4741   3.539   1.363   9.936  0.5853  0.1331 -1.9460
   35POPC   H7Y 4742   3.348   1.358   9.930 -0.5419 -2.0372  0.8285
   35POPC   C38 4743   3.459   1.320   9.752 -0.2517  0.4958 -0.1752
   35POPC   H8X 4744   3.557   1.274   9.726 -0.6361  0.5230 -1.7128
   35POPC   H8Y 4745   3.459   1.430   9.735 -1.0651  0.4218 -0.6419
   35POPC   C39 4746   3.352   1.241   9.678 -0.1065 -0.3555 -0.6217
   35POPC   H9X 4747   3.256   1.264   9.727  0.4093  1.1941 -0.3092
   35POPC   H9Y 4748   3.364   1.131   9.675  0.2643 -0.3123 -0.8751
   35POPC  C310 4749   3.346   1.294   9.532 -0.3052 -0.0807  0.5182
   35POPC  H10X 4750   3.349   1.403   9.512  2.1972 -0.2426 -0.1503
   35POPC  H10Y 4751   3.252   1.258   9.486  0.5178  0.0333 -1.3089
   35POPC  C311 4752   3.468   1.247   9.448  0.4175  0.3634 -0.2959
   35POPC  H11X 4753   3.477   1.137   9.464  1.3825  0.4168 -0.4740
   35POPC  H11Y 4754   3.558   1.287   9.498  0.9279 -2.3918  1.1189
   35POPC  C312 4755   3.459   1.283   9.300 -0.2307 -0.6691  0.3028
   35POPC  H12X 4756   3.459   1.394   9.299 -1.2532 -0.6669 -1.1487
   35POPC  H12Y 4757   3.360   1.248   9.266  0.1812 -0.6250 -0.9541
   35POPC  C313 4758   3.567   1.238   9.204 -0.3261 -0.1408  0.7240
   35POPC  H13X 4759   3.568   1.128   9.218  0.5068 -0.1195  0.8110
   35POPC  H13Y 4760   3.667   1.286   9.213 -0.6469  0.9913 -1.5635
   35POPC  C314 4761   3.518   1.259   9.056 -0.4556  0.3902 -0.0219
   35POPC  H14X 4762   3.502   1.369   9.051 -0.8512  0.4166  1.7475
   35POPC  H14Y 4763   3.426   1.200   9.039  0.8402 -1.2069 -1.8139
   35POPC  C315 4764   3.620   1.212   8.949  0.0583  0.3376  0.7490
   35POPC  H15X 4765   3.718   1.262   8.965  0.9528  0.0378 -3.2557
   35POPC  H15Y 4766   3.577   1.246   8.852  0.1103 -0.9970  0.2550
   35POPC  C316 4767   3.641   1.059   8.951  0.7207 -0.1044  0.2041
   35POPC  H16X 4768   3.722   1.027   8.882 -0.4608  0.3165 -1.3949
   35POPC  H16Y 4769   3.543   1.018   8.918  0.1878  1.6051 -0.3542
   35POPC  H16Z 4770   3.664   1.026   9.055  0.8881 -0.5038  0.0419
   36POPC     N 4771   3.492   6.172  10.901  0.3239 -0.0959  0.1884
   36POPC   C12 4772   3.495   6.326  10.891  0.1563  0.5569  0.4488
   36POPC  H12A 4773   3.581   6.349  10.831 -0.4099 -0.1505 -0.6374
   36POPC  H12B 4774   3.506   6.379  10.985  0.6739 -1.0902  1.3379
   36POPC   C13 4775   3.485   6.104  10.768  0.2513  0.2070 -0.2102
   36POPC  H13A 4776   3.449   6.002  10.766 -1.8303  0.9348 -0.7541
   36POPC  H13B 4777   3.421   6.162  10.704 -0.6656 -0.4062  0.1406
   36POPC  H13C 4778   3.579   6.106  10.714 -0.0293 -1.5868 -0.8092
   36POPC   C14 4779   3.604   6.113  10.972 -0.3556  0.4459 -0.6238
   36POPC  H14A 4780   3.597   6.006  10.958  2.3845  0.4212 -2.1146
   36POPC  H14B 4781   3.703   6.135  10.934 -0.2992  1.0023 -0.1589
   36POPC  H14C 4782   3.599   6.144  11.075 -3.3098 -0.1352 -0.5628
   36POPC   C15 4783   3.367   6.130  10.982  0.8200 -0.3877 -0.8279
   36POPC  H15A 4784   3.375   6.125  11.090  0.4558 -1.2611 -0.8329
   36POPC  H15B 4785   3.349   6.028  10.951  0.6659  0.4365 -3.5089
   36POPC  H15C 4786   3.283   6.196  10.970 -0.1991 -1.2391  1.2585
   36POPC   C11 4787   3.379   6.396  10.829 -0.1974 -0.5327 -0.2777
   36POPC  H11A 4788   3.343   6.336  10.742  1.1772 -2.8784  0.7485
   36POPC  H11B 4789   3.415   6.490  10.782  0.9937 -0.8286  0.0180
   36POPC     P 4790   3.128   6.427  10.876  0.7531  0.0770  0.2004
   36POPC   O13 4791   3.042   6.490  10.979 -0.1973  0.0409 -0.1127
   36POPC   O14 4792   3.094   6.287  10.841  1.1321 -0.2247 -0.1242
   36POPC   O12 4793   3.277   6.430  10.922  0.0685  0.1391 -0.3527
   36POPC   O11 4794   3.125   6.514  10.739 -0.0629 -0.2564 -0.6275
   36POPC    C1 4795   3.101   6.658  10.748  0.1745  0.7088  0.2956
   36POPC    HA 4796   3.191   6.706  10.706  2.0376 -1.0033  2.2091
   36POPC    HB 4797   3.080   6.687  10.853  2.5964 -0.5460  1.1664
   36POPC    C2 4798   2.967   6.702  10.667 -0.1499 -0.5789  0.5292
   36POPC    HS 4799   2.882   6.651  10.716 -1.0369  0.1684 -0.2065
   36POPC   O21 4800   2.976   6.667  10.525 -0.0813  0.1202  0.3410
   36POPC   C21 4801   2.865   6.618  10.475  0.1809  0.2237  0.0029
   36POPC   O22 4802   2.756   6.612  10.536 -0.1804 -0.5970  0.8076
   36POPC   C22 4803   2.887   6.562  10.335 -0.3432  0.8299 -0.2159
   36POPC   H2R 4804   2.798   6.496  10.324 -1.0327  1.0537  3.4900
   36POPC   H2S 4805   2.983   6.506  10.331 -0.4947  0.6104 -0.8442
   36POPC    C3 4806   2.950   6.856  10.675  0.7386 -0.8480  0.1100
   36POPC    HX 4807   3.043   6.897  10.630  0.1450  1.0207  0.5657
   36POPC    HY 4808   2.950   6.884  10.782  1.5624  1.0845 -0.3732
   36POPC   O31 4809   2.836   6.917  10.602 -0.3063 -0.0081  0.1387
   36POPC   C31 4810   2.717   6.893  10.651  0.0519  0.1585 -0.9358
   36POPC   O32 4811   2.686   6.822  10.745 -0.2833 -0.0131 -0.2434
   36POPC   C32 4812   2.614   6.959  10.556 -0.1949 -0.0950 -0.3215
   36POPC   H2X 4813   2.648   6.956  10.450 -0.2072  0.1885 -0.3346
   36POPC   H2Y 4814   2.601   7.061  10.598  1.2339  0.1213 -0.4078
   36POPC   C23 4815   2.890   6.671  10.225 -0.3454  0.2269  0.1809
   36POPC   H3R 4816   2.967   6.748  10.250 -0.0036 -0.5086  1.4929
   36POPC   H3S 4817   2.785   6.708  10.225 -0.4725 -0.1237 -1.4476
   36POPC   C24 4818   2.910   6.621  10.080 -0.8880  0.1316  0.1358
   36POPC   H4R 4819   2.835   6.543  10.054  0.9919 -0.5679 -3.4346
   36POPC   H4S 4820   3.011   6.578  10.074 -1.5629 -1.3991 -0.4403
   36POPC   C25 4821   2.905   6.729   9.969 -0.1394 -0.0001  0.1816
   36POPC   H5R 4822   2.969   6.814   9.999 -0.0871  1.0447 -2.8102
   36POPC   H5S 4823   2.801   6.757   9.940 -1.1769 -1.6150  2.1368
   36POPC   C26 4824   2.948   6.663   9.833  0.2025 -0.0037 -0.2047
   36POPC   H6R 4825   2.914   6.558   9.822  0.8305 -0.0695 -1.5558
   36POPC   H6S 4826   3.058   6.662   9.819  0.4039  0.5136  1.1832
   36POPC   C27 4827   2.890   6.751   9.716  0.1997  0.2497  0.4330
   36POPC   H7R 4828   2.895   6.858   9.744 -0.5289  0.8041 -1.4653
   36POPC   H7S 4829   2.783   6.729   9.693 -0.2737  4.1214 -1.5234
   36POPC   C28 4830   2.968   6.711   9.593  0.3522 -0.3196 -0.1674
   36POPC   H8R 4831   2.969   6.600   9.582 -1.9867 -0.3068 -0.7751
   36POPC   H8S 4832   3.071   6.748   9.613  0.3830  0.1985 -1.2623
   36POPC   C29 4833   2.934   6.782   9.464 -0.4154  1.0541  0.1922
   36POPC   H91 4834   2.857   6.861   9.464  1.9082  3.5409 -4.1577
   36POPC  C210 4835   2.996   6.776   9.338  0.5236 -0.0384 -0.9345
   36POPC  H101 4836   2.960   6.835   9.252 -1.1277  3.2382  1.9170
   36POPC  C211 4837   3.108   6.678   9.301  1.0014  0.0094 -0.0672
   36POPC  H11R 4838   3.071   6.607   9.224 -1.3456  1.1311 -0.0206
   36POPC  H11S 4839   3.138   6.619   9.390 -1.2362  0.0086  0.7168
   36POPC  C212 4840   3.226   6.749   9.245 -0.1180 -0.0009 -0.5674
   36POPC  H12R 4841   3.279   6.801   9.328 -2.3712  0.2432  0.7486
   36POPC  H12S 4842   3.205   6.820   9.162 -0.5256 -1.8980 -2.1142
   36POPC  C213 4843   3.346   6.659   9.200 -0.3209 -0.2367 -0.1009
   36POPC  H13R 4844   3.305   6.591   9.123 -2.5146  0.9443 -0.0255
   36POPC  H13S 4845   3.383   6.616   9.296 -1.1626  0.6272  0.6290
   36POPC  C214 4846   3.455   6.748   9.122 -0.5375 -0.5097  0.1806
   36POPC  H14R 4847   3.406   6.769   9.025 -0.6132 -0.8983  0.1355
   36POPC  H14S 4848   3.549   6.691   9.110 -0.3330 -0.3388  0.9206
   36POPC  C215 4849   3.499   6.877   9.194 -0.6100  0.1307  0.3459
   36POPC  H15R 4850   3.531   6.842   9.295  0.0117 -1.8065 -0.5085
   36POPC  H15S 4851   3.419   6.951   9.217 -1.5732 -0.6816 -0.3043
   36POPC  C216 4852   3.623   6.944   9.123 -0.3601 -0.0628 -0.2176
   36POPC  H16R 4853   3.704   6.867   9.121  2.0882  2.4135  0.6875
   36POPC  H16S 4854   3.653   7.029   9.187  1.2025  0.2601 -1.3243
   36POPC  C217 4855   3.583   6.992   8.987 -0.4320  0.3975 -0.3648
   36POPC  H17R 4856   3.509   7.074   8.998  1.0237  1.7368 -0.4396
   36POPC  H17S 4857   3.526   6.912   8.934 -1.5087  0.9718 -0.0877
   36POPC  C218 4858   3.705   7.034   8.905  0.2887  0.5339  0.3487
   36POPC  H18R 4859   3.680   7.047   8.798  1.9236  1.7629  0.0772
   36POPC  H18S 4860   3.778   6.950   8.910  0.0408  0.3285  0.4644
   36POPC  H18T 4861   3.742   7.132   8.944 -0.7330  0.4788  1.4716
   36POPC   C33 4862   2.480   6.891  10.567  0.1009 -0.1165 -0.2556
   36POPC   H3X 4863   2.394   6.958  10.542  1.6130  1.7279 -0.5896
   36POPC   H3Y 4864   2.451   6.848  10.665  2.0966  0.2087  0.4891
   36POPC   C34 4865   2.466   6.765  10.469  0.2855 -0.1981 -0.6409
   36POPC   H4X 4866   2.438   6.679  10.534 -1.0759 -0.3000 -1.3351
   36POPC   H4Y 4867   2.563   6.731  10.427  0.1362 -0.6820 -0.5979
   36POPC   C35 4868   2.360   6.780  10.356 -0.3302 -0.1626 -0.5478
   36POPC   H5X 4869   2.376   6.866  10.288 -0.9404 -0.1725 -0.7054
   36POPC   H5Y 4870   2.269   6.784  10.419  0.3508 -0.1873  0.4396
   36POPC   C36 4871   2.360   6.647  10.272  0.5830 -0.5011  0.5161
   36POPC   H6X 4872   2.307   6.572  10.335  0.7809 -1.3613 -0.3329
   36POPC   H6Y 4873   2.463   6.613  10.248  0.2181  0.0880 -1.9793
   36POPC   C37 4874   2.283   6.657  10.138  0.1510 -0.0087 -0.2143
   36POPC   H7X 4875   2.199   6.730  10.143 -0.5986 -1.0112  2.7425
   36POPC   H7Y 4876   2.245   6.556  10.112 -0.4512  0.5740 -1.6855
   36POPC   C38 4877   2.378   6.704  10.030  0.7033 -0.3407  0.8085
   36POPC   H8X 4878   2.470   6.642  10.035  0.6409 -0.3854  1.4442
   36POPC   H8Y 4879   2.406   6.810  10.046 -0.1764  0.6577 -3.5908
   36POPC   C39 4880   2.307   6.704   9.895 -0.4785 -0.2869  0.4807
   36POPC   H9X 4881   2.207   6.753   9.896 -0.2657  0.1191  1.5432
   36POPC   H9Y 4882   2.288   6.600   9.862  1.9608 -0.7911  0.5777
   36POPC  C310 4883   2.388   6.774   9.781  0.2300 -0.4462  0.0984
   36POPC  H10X 4884   2.483   6.718   9.790 -0.5757 -2.0220 -0.9130
   36POPC  H10Y 4885   2.390   6.879   9.817  0.5274 -0.5183  0.2915
   36POPC  C311 4886   2.333   6.758   9.633 -0.1054 -0.0975  0.1768
   36POPC  H11X 4887   2.239   6.816   9.628 -0.1540 -0.0491  1.4246
   36POPC  H11Y 4888   2.306   6.652   9.612 -0.7381  0.0484  0.2602
   36POPC  C312 4889   2.445   6.785   9.529  0.0629 -0.3098  0.1266
   36POPC  H12X 4890   2.529   6.722   9.566 -0.5119  0.2535  2.5124
   36POPC  H12Y 4891   2.483   6.889   9.536 -1.8142  0.4481 -0.7402
   36POPC  C313 4892   2.404   6.745   9.389  0.6991  0.3484  0.2798
   36POPC  H13X 4893   2.358   6.837   9.348  0.3054 -0.4215 -1.0391
   36POPC  H13Y 4894   2.327   6.666   9.399 -1.1893  1.9896 -1.0201
   36POPC  C314 4895   2.512   6.707   9.286 -0.0035 -0.1401  0.2481
   36POPC  H14X 4896   2.469   6.648   9.202 -1.3304 -0.1402  0.9130
   36POPC  H14Y 4897   2.596   6.654   9.336 -0.3411  1.0576  2.1294
   36POPC  C315 4898   2.578   6.825   9.219 -0.6588  0.1165  0.1763
   36POPC  H15X 4899   2.644   6.868   9.298 -0.7473  1.5985 -0.5323
   36POPC  H15Y 4900   2.506   6.906   9.194  1.0184  0.8843 -2.3738
   36POPC  C316 4901   2.661   6.792   9.108 -0.1469 -0.1908  0.2558
   36POPC  H16X 4902   2.752   6.732   9.131  0.9704  0.9717 -1.0381
   36POPC  H16Y 4903   2.700   6.882   9.056 -1.1244 -0.1895 -0.4725
   36POPC  H16Z 4904   2.604   6.727   9.037 -0.2403  0.2821 -0.1012
   37POPC     N 4905   0.851   2.375   6.306 -0.3560 -0.0044 -0.0066
   37POPC   C12 4906   0.910   2.346   6.447 -0.0132  0.8457  0.6459
   37POPC  H12A 4907   0.976   2.261   6.442 -1.6319 -0.3590 -0.7411
   37POPC  H12B 4908   0.831   2.315   6.514  1.1620  1.1262  2.1857
   37POPC   C13 4909   0.710   2.430   6.318 -0.2898  0.7356  0.1462
   37POPC  H13A 4910   0.672   2.445   6.219 -2.4954 -0.9497  0.6822
   37POPC  H13B 4911   0.648   2.372   6.386  0.6643  0.1994  0.5791
   37POPC  H13C 4912   0.711   2.527   6.365 -2.4778  1.0074 -0.3167
   37POPC   C14 4913   0.946   2.443   6.215 -0.5780 -0.2279  0.3626
   37POPC  H14A 4914   0.974   2.539   6.256 -1.2449 -0.8306  2.2973
   37POPC  H14B 4915   1.044   2.398   6.209  0.6880  2.4582  0.1030
   37POPC  H14C 4916   0.907   2.458   6.116  0.6488 -2.5335 -0.4944
   37POPC   C15 4917   0.825   2.244   6.242 -0.4662 -0.1473 -0.1777
   37POPC  H15A 4918   0.783   2.262   6.144  1.6682  0.5539 -0.9872
   37POPC  H15B 4919   0.758   2.183   6.301 -0.5722 -0.4722 -0.6299
   37POPC  H15C 4920   0.912   2.181   6.233 -1.5669 -1.2660 -3.4909
   37POPC   C11 4921   0.983   2.463   6.527  0.4648 -0.0462  0.0744
   37POPC  H11A 4922   0.997   2.435   6.634 -0.4350  1.2056  0.5248
   37POPC  H11B 4923   0.918   2.552   6.540  3.4209  2.0617  0.9854
   37POPC     P 4924   1.235   2.389   6.463  0.2810  0.6951 -0.3247
   37POPC   O13 4925   1.286   2.394   6.324 -0.1383  0.1806  0.0317
   37POPC   O14 4926   1.196   2.257   6.516  0.4955  1.3308 -0.3375
   37POPC   O12 4927   1.111   2.489   6.479 -0.4154  0.5463 -0.0842
   37POPC   O11 4928   1.351   2.450   6.560 -0.1091  0.2032  0.0463
   37POPC    C1 4929   1.347   2.582   6.611 -0.5449 -0.3961  0.5223
   37POPC    HA 4930   1.270   2.638   6.554  1.1903  0.5989 -0.9203
   37POPC    HB 4931   1.442   2.634   6.584 -1.6254  1.4949  0.2648
   37POPC    C2 4932   1.304   2.592   6.760  0.1359 -0.1225  0.0512
   37POPC    HS 4933   1.394   2.565   6.819 -0.4111 -0.6790  0.6390
   37POPC   O21 4934   1.191   2.507   6.794 -0.3705  0.0077  0.1855
   37POPC   C21 4935   1.215   2.402   6.874  0.2930 -0.5552 -0.1973
   37POPC   O22 4936   1.327   2.378   6.920 -0.0440 -1.0099  0.0726
   37POPC   C22 4937   1.089   2.314   6.883 -0.3736  0.2376  0.3657
   37POPC   H2R 4938   1.087   2.255   6.789 -0.0261  1.3550 -0.3501
   37POPC   H2S 4939   1.009   2.389   6.868 -1.2154 -0.5103  0.9940
   37POPC    C3 4940   1.274   2.736   6.811 -0.3639  0.3463 -0.2299
   37POPC    HX 4941   1.183   2.757   6.750 -1.3362 -0.6176  0.8572
   37POPC    HY 4942   1.343   2.819   6.787 -2.4032  2.0584 -0.2893
   37POPC   O31 4943   1.231   2.735   6.948  0.0924  0.3851  0.1866
   37POPC   C31 4944   1.320   2.766   7.037  0.0741  0.3358  0.1270
   37POPC   O32 4945   1.435   2.799   7.019 -0.5540  0.0371  0.4027
   37POPC   C32 4946   1.251   2.754   7.173 -0.0826 -0.1188  0.4155
   37POPC   H2X 4947   1.201   2.656   7.162 -1.0615  0.3212  0.8622
   37POPC   H2Y 4948   1.166   2.825   7.177 -1.9715 -2.3501  0.5178
   37POPC   C23 4949   1.058   2.232   7.018 -0.3256  0.3582 -0.1444
   37POPC   H3R 4950   1.109   2.135   7.032  0.3405  1.0964  3.0479
   37POPC   H3S 4951   0.949   2.212   7.013 -0.5211  1.7994 -2.4315
   37POPC   C24 4952   1.068   2.330   7.139 -0.0788 -0.6228 -0.4294
   37POPC   H4R 4953   0.979   2.301   7.199 -0.1155  1.9011  0.7809
   37POPC   H4S 4954   1.052   2.438   7.120 -4.2266 -1.3890 -1.8274
   37POPC   C25 4955   1.185   2.304   7.229 -0.9051 -0.7838  0.2044
   37POPC   H5R 4956   1.281   2.346   7.190 -1.6805 -0.4198 -1.3662
   37POPC   H5S 4957   1.211   2.198   7.248 -0.4555 -0.4530  1.4806
   37POPC   C26 4958   1.163   2.358   7.373  0.7645 -0.8317 -0.0622
   37POPC   H6R 4959   1.055   2.351   7.399  0.7766 -1.0716 -0.0732
   37POPC   H6S 4960   1.181   2.468   7.373  2.5206 -1.1075  0.9081
   37POPC   C27 4961   1.246   2.277   7.478 -0.1299 -0.9992  0.7023
   37POPC   H7R 4962   1.354   2.303   7.484  0.0241 -0.4737 -3.1238
   37POPC   H7S 4963   1.240   2.170   7.449 -2.1561 -1.3690  2.3571
   37POPC   C28 4964   1.196   2.280   7.622  0.0838 -0.5146  0.1743
   37POPC   H8R 4965   1.273   2.215   7.669  0.0585  1.1376  2.5712
   37POPC   H8S 4966   1.093   2.237   7.626 -1.2058  2.3614 -0.6967
   37POPC   C29 4967   1.189   2.417   7.680  0.3273  0.5287  0.0483
   37POPC   H91 4968   1.188   2.501   7.608  0.5012 -1.1003 -1.8745
   37POPC  C210 4969   1.206   2.443   7.814  0.5022 -0.4881  0.4932
   37POPC  H101 4970   1.191   2.547   7.845 -1.5026 -0.8336  0.7836
   37POPC  C211 4971   1.234   2.334   7.925 -0.2709 -0.4435  0.4050
   37POPC  H11R 4972   1.343   2.326   7.942  0.0274  2.5180  0.0519
   37POPC  H11S 4973   1.189   2.237   7.895 -0.5422 -0.4729  0.8986
   37POPC  C212 4974   1.179   2.369   8.065  0.4502 -0.1891  0.2531
   37POPC  H12R 4975   1.070   2.389   8.057  0.2302 -1.8594 -1.4559
   37POPC  H12S 4976   1.232   2.462   8.094  0.4845 -0.0838 -0.1408
   37POPC  C213 4977   1.209   2.258   8.163  0.0960  0.3587  0.4452
   37POPC  H13R 4978   1.183   2.165   8.108 -0.2337 -0.4723  1.9802
   37POPC  H13S 4979   1.139   2.265   8.249  0.7330 -1.3137  1.1195
   37POPC  C214 4980   1.359   2.252   8.197  0.4154 -0.3817  0.4470
   37POPC  H14R 4981   1.403   2.349   8.230  2.9245 -1.8695  1.6084
   37POPC  H14S 4982   1.422   2.227   8.110 -2.5480  1.8568 -2.4890
   37POPC  C215 4983   1.397   2.163   8.312 -0.7463  0.1207 -0.0304
   37POPC  H15R 4984   1.342   2.067   8.306 -2.4391  1.1518 -1.5916
   37POPC  H15S 4985   1.355   2.201   8.408  0.1161 -1.8039  1.1274
   37POPC  C216 4986   1.547   2.145   8.330 -0.2378 -0.2840  0.2529
   37POPC  H16R 4987   1.596   2.229   8.276 -1.8244  0.1177 -0.5920
   37POPC  H16S 4988   1.572   2.053   8.274  0.4268 -0.3741  0.6824
   37POPC  C217 4989   1.588   2.124   8.469  0.5223  0.0761  0.1357
   37POPC  H17R 4990   1.536   2.035   8.511  2.5224 -1.1839 -0.0189
   37POPC  H17S 4991   1.541   2.211   8.521  0.9397  1.0458 -1.0895
   37POPC  C218 4992   1.740   2.108   8.497 -0.0131  0.2573  0.0529
   37POPC  H18R 4993   1.770   2.008   8.459  2.0321 -0.1001  2.4841
   37POPC  H18S 4994   1.761   2.100   8.605 -0.2983  0.6318  0.1374
   37POPC  H18T 4995   1.799   2.193   8.458 -0.1416 -0.0932 -0.9215
   37POPC   C33 4996   1.348   2.787   7.285  0.4130 -0.3020 -0.1922
   37POPC   H3X 4997   1.382   2.893   7.282 -0.5814  0.1476  2.7021
   37POPC   H3Y 4998   1.432   2.716   7.278  1.5375  0.9661  0.1580
   37POPC   C34 4999   1.286   2.770   7.426 -0.2131 -0.3751  0.0594
   37POPC   H4X 5000   1.257   2.664   7.441 -1.3125 -0.1857 -0.6995
   37POPC   H4Y 5001   1.197   2.836   7.421  0.0264 -0.1703 -1.8904
   37POPC   C35 5002   1.377   2.812   7.541  0.8557 -0.4898  0.6728
   37POPC   H5X 5003   1.415   2.913   7.515  1.8973 -1.2675 -0.8889
   37POPC   H5Y 5004   1.470   2.753   7.555  0.9358 -1.2762 -2.6787
   37POPC   C36 5005   1.299   2.819   7.675  0.0486 -0.0037 -0.0520
   37POPC   H6X 5006   1.293   2.717   7.719  0.5369  0.7135  1.7215
   37POPC   H6Y 5007   1.198   2.863   7.667 -0.5991 -0.9773  2.4365
   37POPC   C37 5008   1.376   2.906   7.774 -0.2817  0.1115 -0.8192
   37POPC   H7X 5009   1.394   3.005   7.727 -1.8732  0.7364 -0.1221
   37POPC   H7Y 5010   1.480   2.868   7.786 -0.1269  0.4175 -1.1740
   37POPC   C38 5011   1.290   2.942   7.898  0.3723  0.4497 -0.4660
   37POPC   H8X 5012   1.249   2.849   7.943 -1.4417  1.0849 -0.7669
   37POPC   H8Y 5013   1.202   3.008   7.878 -0.5278 -0.1753  1.3210
   37POPC   C39 5014   1.365   3.015   8.009  0.5451  0.2377  0.4070
   37POPC   H9X 5015   1.407   3.114   7.981  1.2257  0.2558  1.4317
   37POPC   H9Y 5016   1.451   2.954   8.043  1.6828  0.7272 -1.5411
   37POPC  C310 5017   1.276   3.054   8.135  0.9083 -0.4450  0.3414
   37POPC  H10X 5018   1.199   3.128   8.107  1.1128  0.0114  0.9887
   37POPC  H10Y 5019   1.345   3.110   8.201  1.0117  1.9347 -1.7320
   37POPC  C311 5020   1.210   2.937   8.215 -0.3118  0.0410  0.2383
   37POPC  H11X 5021   1.148   2.876   8.145 -1.4712  0.0435  1.2429
   37POPC  H11Y 5022   1.140   2.977   8.291 -1.6800 -0.1252 -0.9179
   37POPC  C312 5023   1.304   2.837   8.293  0.1635  0.0686 -0.3357
   37POPC  H12X 5024   1.353   2.897   8.373  2.4998 -0.1680 -1.5506
   37POPC  H12Y 5025   1.375   2.794   8.219 -0.5476 -0.2783 -0.8106
   37POPC  C313 5026   1.217   2.722   8.349  0.2493  0.5007 -0.5367
   37POPC  H13X 5027   1.166   2.652   8.279  1.9230 -3.4459  2.0121
   37POPC  H13Y 5028   1.144   2.769   8.418 -0.2671  0.2675 -0.9196
   37POPC  C314 5029   1.291   2.622   8.429 -0.5333  0.7612 -0.5134
   37POPC  H14X 5030   1.353   2.674   8.505  0.3269 -0.7863 -0.1354
   37POPC  H14Y 5031   1.353   2.561   8.361 -0.5108 -1.1307  1.1421
   37POPC  C315 5032   1.201   2.528   8.511  0.2911  0.3199 -0.2459
   37POPC  H15X 5033   1.139   2.474   8.435  0.2934  0.4479 -0.3389
   37POPC  H15Y 5034   1.137   2.603   8.562 -1.3407  0.1217 -1.9378
   37POPC  C316 5035   1.283   2.439   8.607  0.0862  0.2517 -0.5313
   37POPC  H16X 5036   1.339   2.512   8.670 -1.8337  0.1965  1.3174
   37POPC  H16Y 5037   1.356   2.366   8.567 -1.1666 -1.1786 -0.2291
   37POPC  H16Z 5038   1.216   2.390   8.681  1.4782  0.1245  0.6709
   38POPC     N 5039   2.369   6.076   6.457  0.4866 -0.9676 -0.1454
   38POPC   C12 5040   2.452   6.153   6.563  0.4919 -0.2686  0.0005
   38POPC  H12A 5041   2.385   6.162   6.647 -0.3318 -0.6431 -0.6062
   38POPC  H12B 5042   2.478   6.249   6.520  3.4458 -0.8970  0.2393
   38POPC   C13 5043   2.251   6.156   6.400  0.4763  0.2240  0.8276
   38POPC  H13A 5044   2.194   6.092   6.335 -0.0646  1.4375  0.0787
   38POPC  H13B 5045   2.190   6.205   6.474 -1.0377 -1.7888  0.9269
   38POPC  H13C 5046   2.299   6.234   6.342  1.4969  0.4683  1.9768
   38POPC   C14 5047   2.461   6.062   6.335 -0.3117 -0.7799  0.4501
   38POPC  H14A 5048   2.415   6.018   6.248 -1.7679  0.2079  0.6952
   38POPC  H14B 5049   2.496   6.161   6.313  0.8339 -1.0761  0.9180
   38POPC  H14C 5050   2.543   5.995   6.358 -1.3921 -2.2702  0.0497
   38POPC   C15 5051   2.333   5.942   6.509  0.5146  0.4824  0.3118
   38POPC  H15A 5052   2.420   5.888   6.542  0.9156  0.2917 -1.0441
   38POPC  H15B 5053   2.291   5.876   6.434 -0.8025  1.2078  0.3847
   38POPC  H15C 5054   2.262   5.948   6.590  0.9341  0.5183  0.6766
   38POPC   C11 5055   2.588   6.100   6.612  0.1785 -0.2425 -0.4864
   38POPC  H11A 5056   2.569   6.005   6.666  0.4879  0.2314  0.4643
   38POPC  H11B 5057   2.636   6.170   6.683  1.8272 -2.8647  1.0473
   38POPC     P 5058   2.792   6.174   6.463 -0.4214 -0.1163 -0.1015
   38POPC   O13 5059   2.756   6.312   6.489  0.2681  0.5881  0.6673
   38POPC   O14 5060   2.821   6.150   6.321  0.0223  0.2966 -0.0718
   38POPC   O12 5061   2.682   6.077   6.506 -0.3123  0.2501  0.0111
   38POPC   O11 5062   2.921   6.131   6.542 -0.5700 -0.7892  0.1914
   38POPC    C1 5063   3.002   6.016   6.516 -0.2772  0.0129 -0.2372
   38POPC    HA 5064   3.107   6.051   6.525 -0.7244  1.4240 -0.2564
   38POPC    HB 5065   2.992   5.973   6.414 -0.7414  2.7821 -1.4138
   38POPC    C2 5066   2.967   5.901   6.610 -0.5241 -0.4486  0.2774
   38POPC    HS 5067   2.870   5.854   6.581 -0.9165  1.0379 -0.9278
   38POPC   O21 5068   2.972   5.961   6.743 -0.7956 -0.7240 -0.0920
   38POPC   C21 5069   2.914   5.876   6.828  0.2055  0.1211  0.1127
   38POPC   O22 5070   2.851   5.778   6.798 -0.3427  0.2045 -0.2011
   38POPC   C22 5071   2.945   5.933   6.972 -0.1734  0.1483  0.4554
   38POPC   H2R 5072   2.876   6.019   6.986 -1.6389 -0.8169 -0.6691
   38POPC   H2S 5073   3.043   5.985   6.966  0.1168 -0.3850  0.5443
   38POPC    C3 5074   3.076   5.791   6.589 -0.3790 -0.2840  0.0237
   38POPC    HX 5075   3.073   5.758   6.483 -0.6436  0.2323 -0.1308
   38POPC    HY 5076   3.045   5.704   6.650 -0.0685  0.0078  0.6004
   38POPC   O31 5077   3.206   5.847   6.619 -0.7266 -0.3344  0.5483
   38POPC   C31 5078   3.260   5.813   6.737 -0.4012  0.4163  0.2051
   38POPC   O32 5079   3.217   5.729   6.817 -0.1311  0.1109  0.3365
   38POPC   C32 5080   3.396   5.887   6.747  0.4791  0.3788 -0.0081
   38POPC   H2X 5081   3.395   5.970   6.673 -1.3206  0.0335 -0.4041
   38POPC   H2Y 5082   3.478   5.821   6.712  0.2267 -1.4368  2.7021
   38POPC   C23 5083   2.937   5.831   7.080 -0.1838  0.4118  0.2739
   38POPC   H3R 5084   3.021   5.760   7.064 -0.1907  0.0894  1.5744
   38POPC   H3S 5085   2.838   5.782   7.070  0.7495 -1.2072 -1.4121
   38POPC   C24 5086   2.946   5.901   7.222  0.1309  0.4587 -0.5175
   38POPC   H4R 5087   2.862   5.974   7.235  0.1801  0.0944  2.2083
   38POPC   H4S 5088   3.037   5.964   7.226 -0.0622  0.6954  0.4803
   38POPC   C25 5089   2.937   5.802   7.337 -0.0468  0.7171  0.3489
   38POPC   H5R 5090   3.012   5.721   7.326 -1.0350 -0.1236 -0.2052
   38POPC   H5S 5091   2.833   5.761   7.336  0.4709 -0.6066 -0.3627
   38POPC   C26 5092   2.965   5.871   7.474  0.0298 -0.2780  0.6334
   38POPC   H6R 5093   2.881   5.938   7.501 -1.1671 -1.1726 -0.7853
   38POPC   H6S 5094   3.057   5.933   7.472 -1.0191  1.3229 -3.1211
   38POPC   C27 5095   2.968   5.768   7.594 -0.3060 -0.1734  0.0460
   38POPC   H7R 5096   3.062   5.709   7.591  0.0448  0.2125  2.6232
   38POPC   H7S 5097   2.885   5.696   7.582  0.6698 -1.1634 -0.8118
   38POPC   C28 5098   2.950   5.848   7.729  0.5196  0.3616 -0.1707
   38POPC   H8R 5099   2.856   5.906   7.716 -0.9026 -1.5907  1.1274
   38POPC   H8S 5100   3.028   5.927   7.732  0.1556  0.7130  0.2806
   38POPC   C29 5101   2.935   5.760   7.851  0.4930  0.1428  0.0402
   38POPC   H91 5102   3.014   5.683   7.852 -1.0346 -1.5100 -1.9459
   38POPC  C210 5103   2.835   5.743   7.944 -0.4078  0.7546  0.3430
   38POPC  H101 5104   2.850   5.653   8.006  1.4861  1.0827  0.3997
   38POPC  C211 5105   2.700   5.807   7.958 -0.3672 -0.0736 -0.2559
   38POPC  H11R 5106   2.695   5.908   7.913 -1.8342 -1.2356 -2.8486
   38POPC  H11S 5107   2.680   5.823   8.066 -0.0349  1.8749 -0.4619
   38POPC  C212 5108   2.572   5.734   7.896  0.0886  0.1061 -0.3753
   38POPC  H12R 5109   2.487   5.796   7.929  0.5203  0.8458 -0.6570
   38POPC  H12S 5110   2.556   5.633   7.940 -0.3938 -0.1550 -1.1362
   38POPC  C213 5111   2.582   5.705   7.744 -0.4693 -0.4647  0.1727
   38POPC  H13R 5112   2.665   5.631   7.739  1.0918  1.0544  2.8105
   38POPC  H13S 5113   2.622   5.788   7.683  0.8272 -2.1648 -1.3593
   38POPC  C214 5114   2.455   5.639   7.687 -0.3661  0.1119  0.8369
   38POPC  H14R 5115   2.376   5.717   7.693 -0.0888  0.2985  2.2213
   38POPC  H14S 5116   2.426   5.567   7.766  1.6471 -0.0588  1.4510
   38POPC  C215 5117   2.474   5.579   7.546 -0.3192  0.0275 -0.2223
   38POPC  H15R 5118   2.380   5.532   7.510 -1.0706 -0.0472  1.7774
   38POPC  H15S 5119   2.563   5.512   7.542 -1.8699 -2.0827  0.0412
   38POPC  C216 5120   2.511   5.680   7.437  0.7925 -0.2222 -0.6868
   38POPC  H16R 5121   2.586   5.750   7.479  0.2340 -0.0471  0.0321
   38POPC  H16S 5122   2.434   5.751   7.401 -0.0325 -1.3583 -1.2054
   38POPC  C217 5123   2.560   5.616   7.301 -0.2751 -0.2242  0.6177
   38POPC  H17R 5124   2.488   5.536   7.272  1.1593 -1.1413 -0.4612
   38POPC  H17S 5125   2.658   5.565   7.310 -0.2131 -0.0054  1.1808
   38POPC  C218 5126   2.560   5.715   7.186 -0.5167 -0.8087  0.3579
   38POPC  H18R 5127   2.598   5.656   7.100 -1.6636 -1.2271  0.1235
   38POPC  H18S 5128   2.640   5.790   7.200 -2.2250  0.8635  1.3996
   38POPC  H18T 5129   2.461   5.758   7.161 -0.1623 -0.4927 -0.5426
   38POPC   C33 5130   3.431   5.940   6.888  0.4958  0.0944  0.2430
   38POPC   H3X 5131   3.539   5.963   6.889  0.1287  2.1459 -1.6833
   38POPC   H3Y 5132   3.410   5.857   6.958  0.1318 -0.0446 -0.0240
   38POPC   C34 5133   3.349   6.057   6.933  0.0521  0.7547  0.6678
   38POPC   H4X 5134   3.244   6.023   6.944  0.6855 -1.4196  0.4128
   38POPC   H4Y 5135   3.341   6.138   6.858 -2.2142  0.6434  0.7668
   38POPC   C35 5136   3.404   6.121   7.063  0.2026  0.0831 -0.5941
   38POPC   H5X 5137   3.335   6.202   7.094 -0.8215 -1.4585  1.2878
   38POPC   H5Y 5138   3.509   6.155   7.053  0.0038  0.8928  0.0636
   38POPC   C36 5139   3.401   6.012   7.177  0.0749 -0.0303 -0.1783
   38POPC   H6X 5140   3.496   5.956   7.158 -0.1069 -1.1974  2.0901
   38POPC   H6Y 5141   3.318   5.941   7.156  0.2783 -0.4605  0.4465
   38POPC   C37 5142   3.391   6.060   7.327  0.5542  0.5161  0.1410
   38POPC   H7X 5143   3.298   6.121   7.334 -0.9727 -1.6353 -0.6645
   38POPC   H7Y 5144   3.487   6.107   7.356  0.2791  0.8944  0.4456
   38POPC   C38 5145   3.367   5.945   7.434 -0.9142  0.1802  0.7648
   38POPC   H8X 5146   3.449   5.875   7.408 -1.4235  0.4220 -1.6545
   38POPC   H8Y 5147   3.264   5.904   7.425 -0.9330  0.2154  0.8212
   38POPC   C39 5148   3.383   6.002   7.575 -0.4724  0.0511 -0.3496
   38POPC   H9X 5149   3.302   6.078   7.582 -3.8986 -3.3638 -0.8744
   38POPC   H9Y 5150   3.482   6.051   7.579 -0.1674 -0.5288 -0.6456
   38POPC  C310 5151   3.374   5.889   7.677 -0.1403  0.1361  0.6241
   38POPC  H10X 5152   3.455   5.813   7.664 -1.9191 -1.1933 -3.2749
   38POPC  H10Y 5153   3.277   5.838   7.659  0.0333 -0.2836  0.8583
   38POPC  C311 5154   3.370   5.964   7.812  0.1321 -0.1822 -0.0728
   38POPC  H11X 5155   3.278   6.027   7.815 -1.5222 -2.2832 -3.5785
   38POPC  H11Y 5156   3.452   6.038   7.819  0.0262 -0.0856  0.1367
   38POPC  C312 5157   3.373   5.872   7.928  0.0280 -0.7753  0.9738
   38POPC  H12X 5158   3.461   5.805   7.913 -0.4865 -2.1036  3.6053
   38POPC  H12Y 5159   3.275   5.820   7.935 -0.4434  0.0727  0.6802
   38POPC  C313 5160   3.404   5.947   8.063  0.0535 -0.6068  0.3084
   38POPC  H13X 5161   3.322   6.022   8.068  0.7934  0.4603 -2.4178
   38POPC  H13Y 5162   3.499   6.002   8.046 -1.2703  2.3829  2.1382
   38POPC  C314 5163   3.410   5.841   8.176  1.0771  0.2136  0.1722
   38POPC  H14X 5164   3.493   5.774   8.144  1.0045  0.6386 -0.9366
   38POPC  H14Y 5165   3.319   5.779   8.186  0.4302  1.2471  0.7835
   38POPC  C315 5166   3.423   5.896   8.319  0.3570 -0.0674 -0.1889
   38POPC  H15X 5167   3.350   5.979   8.325 -0.7724 -0.7196 -3.6114
   38POPC  H15Y 5168   3.525   5.940   8.316  0.3383 -0.0149 -0.0675
   38POPC  C316 5169   3.412   5.794   8.434 -0.6279  0.0275 -0.0212
   38POPC  H16X 5170   3.501   5.728   8.427  0.2081  1.0201  1.1253
   38POPC  H16Y 5171   3.326   5.725   8.422 -0.5315 -0.4241  1.8067
   38POPC  H16Z 5172   3.411   5.838   8.535  0.6735 -1.5391  0.6962
   39POPC     N 5173   5.994   3.317   6.268 -0.3042  0.2545  0.0758
   39POPC   C12 5174   6.042   3.228   6.379  0.3831 -0.4033  0.1095
   39POPC  H12A 5175   6.045   3.126   6.343 -2.6975 -0.5100  0.0215
   39POPC  H12B 5176   5.966   3.225   6.455  1.3855 -2.4506  1.0715
   39POPC   C13 5177   5.862   3.264   6.215  0.5161 -0.0240  0.3017
   39POPC  H13A 5178   5.828   3.318   6.128 -1.7283 -1.3611  0.3016
   39POPC  H13B 5179   5.872   3.164   6.177 -0.3857 -0.5357  1.3763
   39POPC  H13C 5180   5.775   3.268   6.279  0.8534  0.6402  0.7319
   39POPC   C14 5181   5.967   3.456   6.332  0.1244 -0.1940 -0.3351
   39POPC  H14A 5182   6.055   3.509   6.366 -0.5534  0.3260  0.6217
   39POPC  H14B 5183   5.920   3.524   6.263  0.2511  2.1927  1.8618
   39POPC  H14C 5184   5.907   3.438   6.420  0.1824  0.2219 -0.2097
   39POPC   C15 5185   6.089   3.317   6.157  0.0310 -0.0889 -0.5175
   39POPC  H15A 5186   6.186   3.347   6.194 -1.3902  0.0526  3.3137
   39POPC  H15B 5187   6.065   3.397   6.089  0.9798  0.4270 -0.2569
   39POPC  H15C 5188   6.089   3.218   6.113  1.8123 -0.7051  0.7867
   39POPC   C11 5189   6.181   3.265   6.445 -0.2796  0.5037  0.3701
   39POPC  H11A 5190   6.195   3.215   6.543  0.3064 -1.9748 -0.9124
   39POPC  H11B 5191   6.183   3.375   6.455  1.2168  0.5275 -0.1255
   39POPC     P 5192   6.346   3.097   6.302 -0.0391  0.7097  0.1643
   39POPC   O13 5193   6.447   3.126   6.203  0.7590  0.0002 -0.2852
   39POPC   O14 5194   6.241   3.006   6.256  0.0118 -0.3332 -0.6192
   39POPC   O12 5195   6.291   3.237   6.356 -0.5451  0.1773  0.2203
   39POPC   O11 5196   6.413   3.025   6.426  0.0176 -0.2972  0.3684
   39POPC    C1 5197   6.524   3.097   6.486  0.5999 -0.6545  0.9940
   39POPC    HA 5198   6.545   3.202   6.460  3.0262 -1.2893  0.2772
   39POPC    HB 5199   6.620   3.051   6.455  1.3857  1.0893  0.7839
   39POPC    C2 5200   6.515   3.095   6.637  0.3286 -0.2165 -0.3884
   39POPC    HS 5201   6.457   3.007   6.674  2.1525 -0.7258  1.3783
   39POPC   O21 5202   6.450   3.216   6.671 -0.3548  0.3014 -0.2798
   39POPC   C21 5203   6.388   3.223   6.792  0.0605 -0.0489  0.1091
   39POPC   O22 5204   6.368   3.136   6.870 -0.3028  0.2930 -0.4964
   39POPC   C22 5205   6.321   3.359   6.808  0.4180 -0.3463 -0.1479
   39POPC   H2R 5206   6.212   3.339   6.814  0.0569  1.8981  1.1851
   39POPC   H2S 5207   6.346   3.414   6.715 -0.1317 -0.2283 -0.2298
   39POPC    C3 5208   6.650   3.086   6.709  0.5185 -0.6116 -0.4314
   39POPC    HX 5209   6.637   3.123   6.813  1.3587  0.0701 -0.5590
   39POPC    HY 5210   6.712   3.161   6.655  0.3259 -0.7591 -0.8525
   39POPC   O31 5211   6.718   2.964   6.702 -0.0904 -0.0048 -0.0762
   39POPC   C31 5212   6.833   2.964   6.762  0.3571 -0.0616 -0.4799
   39POPC   O32 5213   6.891   3.061   6.803  0.1972 -0.3730  0.3044
   39POPC   C32 5214   6.879   2.815   6.740  0.2919 -0.1713 -0.3289
   39POPC   H2X 5215   6.808   2.751   6.795  1.2466 -2.6457 -1.8927
   39POPC   H2Y 5216   6.861   2.799   6.631  1.2222  1.3528 -0.7296
   39POPC   C23 5217   6.358   3.426   6.933 -0.9529 -0.4531 -1.5541
   39POPC   H3R 5218   6.466   3.445   6.916 -0.3120 -2.5783 -0.1317
   39POPC   H3S 5219   6.351   3.363   7.025 -0.0258  0.4452 -0.8536
   39POPC   C24 5220   6.286   3.561   6.960 -0.1847  0.0324  0.5430
   39POPC   H4R 5221   6.280   3.612   6.861  2.4563 -0.1291  0.2684
   39POPC   H4S 5222   6.335   3.630   7.032 -1.5192  1.1780  0.3832
   39POPC   C25 5223   6.141   3.537   7.003  0.2570 -0.1547  0.6501
   39POPC   H5R 5224   6.147   3.485   7.101  0.3031 -0.7375  0.3441
   39POPC   H5S 5225   6.099   3.461   6.934  1.7619 -0.9821  0.6046
   39POPC   C26 5226   6.049   3.655   6.996  0.4850  0.0207  0.2937
   39POPC   H6R 5227   6.065   3.707   6.900  1.6465 -0.8549  0.0003
   39POPC   H6S 5228   6.095   3.721   7.073  0.2861  1.2435 -0.6155
   39POPC   C27 5229   5.909   3.616   7.018  0.3436 -0.0441 -0.9789
   39POPC   H7R 5230   5.900   3.592   7.126  1.6496  0.2418 -0.7877
   39POPC   H7S 5231   5.881   3.533   6.951  1.5766 -1.3452  0.0821
   39POPC   C28 5232   5.812   3.728   7.002  0.7619  0.0388 -0.6219
   39POPC   H8R 5233   5.815   3.791   6.910 -2.7142 -0.9877 -1.4968
   39POPC   H8S 5234   5.837   3.787   7.092  0.5126  0.9473 -1.1435
   39POPC   C29 5235   5.674   3.671   7.015 -0.2293 -0.2932  0.7587
   39POPC   H91 5236   5.638   3.640   6.916  0.1078 -0.1675  0.5941
   39POPC  C210 5237   5.596   3.663   7.122 -0.2563  0.7260 -1.1129
   39POPC  H101 5238   5.501   3.608   7.121 -0.6088  1.2217  1.3983
   39POPC  C211 5239   5.623   3.701   7.266  0.8501 -0.3126  0.1568
   39POPC  H11R 5240   5.587   3.804   7.282 -0.8406 -1.0058  0.9175
   39POPC  H11S 5241   5.730   3.706   7.294  0.6662 -1.3727  1.1036
   39POPC  C212 5242   5.556   3.597   7.358  0.3331  0.0113  0.0679
   39POPC  H12R 5243   5.619   3.595   7.450 -0.8014 -0.3733  0.8451
   39POPC  H12S 5244   5.570   3.498   7.310  0.4806  0.2384 -0.3575
   39POPC  C213 5245   5.413   3.629   7.385 -0.0569  0.1212 -0.4035
   39POPC  H13R 5246   5.355   3.599   7.295  2.9409 -2.2426 -1.6296
   39POPC  H13S 5247   5.397   3.737   7.405 -0.3505 -0.1277  0.7579
   39POPC  C214 5248   5.362   3.562   7.509 -0.2231  0.4402 -0.7310
   39POPC  H14R 5249   5.426   3.583   7.598 -1.2453  1.1729 -0.1555
   39POPC  H14S 5250   5.369   3.452   7.500  2.5954  0.3659  1.5014
   39POPC  C215 5251   5.228   3.621   7.561 -0.0865  0.8931  0.0531
   39POPC  H15R 5252   5.155   3.610   7.478  1.1610 -2.2613 -0.6686
   39POPC  H15S 5253   5.225   3.731   7.579  0.3459  0.9310 -0.1167
   39POPC  C216 5254   5.168   3.545   7.678  1.0101  0.3055  0.0756
   39POPC  H16R 5255   5.162   3.436   7.656  1.9451 -0.3643  2.9712
   39POPC  H16S 5256   5.063   3.573   7.700  0.9550 -0.2364  0.5026
   39POPC  C217 5257   5.240   3.561   7.813 -0.0372  0.0851  0.2733
   39POPC  H17R 5258   5.246   3.667   7.847 -0.3428  0.5786 -1.1654
   39POPC  H17S 5259   5.341   3.519   7.794 -0.0686 -0.3709  1.0776
   39POPC  C218 5260   5.188   3.481   7.929 -0.2573 -0.7972  0.2140
   39POPC  H18R 5261   5.237   3.499   8.027 -0.4174 -1.2527  0.3810
   39POPC  H18S 5262   5.192   3.372   7.907  1.3384 -0.6711 -0.1929
   39POPC  H18T 5263   5.079   3.498   7.944 -0.6196 -1.6287 -1.3416
   39POPC   C33 5264   7.021   2.778   6.790 -0.8729 -0.3565 -0.2679
   39POPC   H3X 5265   7.092   2.848   6.740  0.3350  0.5533  2.5895
   39POPC   H3Y 5266   7.041   2.672   6.763  0.6898  0.5102 -2.6889
   39POPC   C34 5267   7.041   2.790   6.942 -0.1763  0.6216  0.0416
   39POPC   H4X 5268   6.968   2.725   6.994 -1.3229 -0.0102 -2.2836
   39POPC   H4Y 5269   7.017   2.894   6.973  3.0054  1.6949 -0.9199
   39POPC   C35 5270   7.176   2.761   7.015 -0.6383 -0.9633  0.7373
   39POPC   H5X 5271   7.263   2.791   6.953 -1.3707 -2.1087 -0.8815
   39POPC   H5Y 5272   7.196   2.652   7.017  1.5348 -0.5756  3.5796
   39POPC   C36 5273   7.170   2.821   7.161  0.3596  0.0574 -0.1894
   39POPC   H6X 5274   7.067   2.821   7.203  0.5547  0.6870  0.2964
   39POPC   H6Y 5275   7.192   2.930   7.154  0.0236  0.2652  1.7869
   39POPC   C37 5276   7.262   2.754   7.267  0.0876 -0.2735  0.1176
   39POPC   H7X 5277   7.368   2.787   7.263  0.3370 -1.2598 -2.0474
   39POPC   H7Y 5278   7.265   2.647   7.235  1.0076 -0.4189  0.6612
   39POPC   C38 5279   7.213   2.753   7.412  0.2795  0.8246 -0.3295
   39POPC   H8X 5280   7.290   2.705   7.475 -0.6042  1.5015  1.3134
   39POPC   H8Y 5281   7.123   2.688   7.420  0.8757  0.1382  0.9233
   39POPC   C39 5282   7.184   2.891   7.461  0.4372  0.5770 -0.0214
   39POPC   H9X 5283   7.099   2.927   7.398 -0.1748 -3.2167 -1.4854
   39POPC   H9Y 5284   7.279   2.948   7.469  0.3941  0.4908  1.2133
   39POPC  C310 5285   7.142   2.913   7.607 -0.2949 -0.0204 -1.0193
   39POPC  H10X 5286   7.057   2.850   7.641  1.9356 -1.3091  2.4437
   39POPC  H10Y 5287   7.107   3.016   7.630 -0.1220 -0.4046  1.0510
   39POPC  C311 5288   7.254   2.875   7.703  0.1352  0.0830  0.6836
   39POPC  H11X 5289   7.344   2.922   7.657 -1.1054 -0.2018 -2.1364
   39POPC  H11Y 5290   7.274   2.766   7.690  0.2355  0.4198 -2.3557
   39POPC  C312 5291   7.219   2.903   7.855 -0.8141 -0.4830 -0.7972
   39POPC  H12X 5292   7.175   3.003   7.876  1.7621  0.5702 -0.2957
   39POPC  H12Y 5293   7.317   2.903   7.906 -0.9489  2.2623 -0.4859
   39POPC  C313 5294   7.118   2.801   7.913 -0.0855 -0.0505 -0.2986
   39POPC  H13X 5295   7.157   2.698   7.899 -0.7795 -0.0130 -2.6506
   39POPC  H13Y 5296   7.016   2.800   7.870  0.2143 -2.7879 -1.0367
   39POPC  C314 5297   7.106   2.815   8.070 -0.0153  0.1340  0.3859
   39POPC  H14X 5298   7.010   2.774   8.111  1.4558 -1.5828  2.2203
   39POPC  H14Y 5299   7.105   2.921   8.104  0.6074  0.4542 -0.5878
   39POPC  C315 5300   7.228   2.755   8.142  0.3628 -0.3067 -0.1029
   39POPC  H15X 5301   7.318   2.788   8.085  0.2462 -0.1661 -0.2039
   39POPC  H15Y 5302   7.220   2.646   8.119  0.5286 -0.7080  1.6279
   39POPC  C316 5303   7.234   2.778   8.290  0.3408  0.0188  0.2047
   39POPC  H16X 5304   7.209   2.884   8.311 -1.0683 -0.2081 -0.2798
   39POPC  H16Y 5305   7.337   2.757   8.327 -0.2700 -2.3381  0.6689
   39POPC  H16Z 5306   7.161   2.717   8.348 -0.3123  1.0307  0.4685
   40POPC     N 5307   5.389   0.159   6.347  0.0405 -0.0484 -0.0188
   40POPC   C12 5308   5.435   0.301   6.319  0.1944 -0.0230  0.1013
   40POPC  H12A 5309   5.530   0.296   6.268 -1.3095  3.3009 -3.3346
   40POPC  H12B 5310   5.449   0.341   6.418  2.5443  0.6908 -0.4771
   40POPC   C13 5311   5.351   0.083   6.217 -0.5428  0.1134 -0.2226
   40POPC  H13A 5312   5.313  -0.015   6.241 -0.4150  0.3334  0.8753
   40POPC  H13B 5313   5.273   0.128   6.157 -1.1929  0.4784  0.8940
   40POPC  H13C 5314   5.440   0.076   6.156  0.8599  4.1482  1.1646
   40POPC   C14 5315   5.490   0.088   6.413  0.7605  0.4181  0.3990
   40POPC  H14A 5316   5.534   0.155   6.485 -1.1044  0.9976  1.0448
   40POPC  H14B 5317   5.460   0.000   6.467  0.7121 -0.6757 -1.3575
   40POPC  H14C 5318   5.571   0.057   6.349 -0.4695  0.4660 -1.2090
   40POPC   C15 5319   5.269   0.153   6.435 -0.3565 -1.2086 -0.3194
   40POPC  H15A 5320   5.281   0.190   6.536  0.3266 -0.3778 -0.6918
   40POPC  H15B 5321   5.240   0.050   6.434 -0.1289 -1.3577  2.6791
   40POPC  H15C 5322   5.187   0.212   6.397  2.0837  2.7708  0.2409
   40POPC   C11 5323   5.334   0.389   6.238  0.6072  0.7602 -0.2234
   40POPC  H11A 5324   5.319   0.328   6.147  2.2728 -0.2317  0.1554
   40POPC  H11B 5325   5.382   0.487   6.218  0.2759  0.3920 -2.9646
   40POPC     P 5326   5.108   0.520   6.278  0.4504  0.0548 -0.0983
   40POPC   O13 5327   4.974   0.498   6.328  0.2277 -0.1546 -0.5392
   40POPC   O14 5328   5.122   0.554   6.135  0.4207 -0.6515 -0.3349
   40POPC   O12 5329   5.213   0.400   6.314  0.4673 -0.1660  0.0672
   40POPC   O11 5330   5.185   0.637   6.352 -0.0479 -0.1150 -0.2656
   40POPC    C1 5331   5.291   0.625   6.450 -0.6621 -0.5435 -0.2947
   40POPC    HA 5332   5.317   0.731   6.470 -0.3856 -0.4100 -1.3345
   40POPC    HB 5333   5.375   0.558   6.421 -2.8717 -3.0336 -1.1804
   40POPC    C2 5334   5.228   0.577   6.589  1.0467 -0.4141  0.8702
   40POPC    HS 5335   5.205   0.470   6.576  0.1996 -0.1622  0.2651
   40POPC   O21 5336   5.112   0.665   6.620  0.0051  0.4007 -0.6349
   40POPC   C21 5337   5.012   0.596   6.678 -0.8611  0.3591 -0.0311
   40POPC   O22 5338   4.992   0.478   6.672  0.1004  0.1894 -0.3152
   40POPC   C22 5339   4.923   0.692   6.767  0.4808  1.0912 -0.0525
   40POPC   H2R 5340   4.885   0.767   6.695  2.4632  2.4817  0.3265
   40POPC   H2S 5341   4.985   0.731   6.849  1.0560 -0.7372  0.4151
   40POPC    C3 5342   5.332   0.583   6.704 -0.3908 -0.0183 -0.3654
   40POPC    HX 5343   5.376   0.685   6.703 -0.6157  0.0772 -0.5653
   40POPC    HY 5344   5.409   0.508   6.674 -0.4318 -0.8862  1.6361
   40POPC   O31 5345   5.284   0.555   6.836 -0.1910 -0.5100 -0.2156
   40POPC   C31 5346   5.262   0.421   6.853  0.2862  0.6018 -0.3711
   40POPC   O32 5347   5.300   0.331   6.782  0.6387 -0.4850  0.3265
   40POPC   C32 5348   5.188   0.399   6.988  0.0756 -0.3930 -1.1375
   40POPC   H2X 5349   5.079   0.414   6.973  0.0622 -0.3514 -0.9996
   40POPC   H2Y 5350   5.230   0.472   7.061 -0.6130  0.4623 -1.5954
   40POPC   C23 5351   4.798   0.623   6.832  0.6197 -0.2418  0.6825
   40POPC   H3R 5352   4.749   0.562   6.753  1.2510 -0.7782  0.7029
   40POPC   H3S 5353   4.727   0.702   6.866  2.3088  0.2517  3.2467
   40POPC   C24 5354   4.827   0.539   6.957  0.5483 -0.5898  0.6027
   40POPC   H4R 5355   4.884   0.448   6.926 -0.7773 -1.6206  1.1260
   40POPC   H4S 5356   4.732   0.506   7.004  0.7081 -1.8048  0.1087
   40POPC   C25 5357   4.894   0.615   7.079 -0.3684  0.3908  0.2389
   40POPC   H5R 5358   4.840   0.713   7.078  2.0834  1.7796 -1.1108
   40POPC   H5S 5359   5.000   0.640   7.057  0.8716 -3.7172  1.1306
   40POPC   C26 5360   4.886   0.535   7.200  0.4869  0.1665  0.3615
   40POPC   H6R 5361   4.950   0.445   7.184 -0.9784 -1.0031  0.9757
   40POPC   H6S 5362   4.779   0.508   7.213  0.1546  0.9114 -0.7430
   40POPC   C27 5363   4.922   0.601   7.330  0.7985  0.4587 -0.8837
   40POPC   H7R 5364   4.901   0.527   7.410  0.2018  1.5823  0.0020
   40POPC   H7S 5365   4.849   0.683   7.349 -0.9157 -0.9472 -1.2071
   40POPC   C28 5366   5.067   0.656   7.339  0.0212 -0.0841 -0.2567
   40POPC   H8R 5367   5.089   0.717   7.249  1.8262 -0.2589  0.0529
   40POPC   H8S 5368   5.147   0.580   7.334  1.2155  0.9773  2.0774
   40POPC   C29 5369   5.096   0.740   7.465  0.0098  0.1259  0.3951
   40POPC   H91 5370   5.073   0.847   7.455  0.1297  0.1777  0.6535
   40POPC  C210 5371   5.146   0.697   7.584  0.4181  0.0521 -0.2437
   40POPC  H101 5372   5.169   0.763   7.669  0.5071  2.8655 -2.3629
   40POPC  C211 5373   5.175   0.559   7.611  0.1899 -0.0459 -0.0732
   40POPC  H11R 5374   5.283   0.550   7.636 -0.0709  0.3011  1.2269
   40POPC  H11S 5375   5.146   0.493   7.527 -0.1197  0.3332 -0.2669
   40POPC  C212 5376   5.106   0.495   7.735  0.0343 -0.0288 -0.0113
   40POPC  H12R 5377   5.150   0.396   7.757 -0.5387 -0.3335 -0.2318
   40POPC  H12S 5378   4.999   0.493   7.704 -0.4114 -1.9501  1.5667
   40POPC  C213 5379   5.121   0.569   7.871  0.3977  0.4258 -0.0337
   40POPC  H13R 5380   5.049   0.523   7.941  1.4285  0.6496  1.1956
   40POPC  H13S 5381   5.097   0.677   7.870  1.2399  0.6524  1.5000
   40POPC  C214 5382   5.261   0.560   7.929 -0.9080  0.0501  0.2614
   40POPC  H14R 5383   5.327   0.617   7.860  1.6144 -2.2828  0.6252
   40POPC  H14S 5384   5.291   0.457   7.898  2.4443  0.7652  0.9617
   40POPC  C215 5385   5.281   0.594   8.075 -0.0318  0.3043 -0.1778
   40POPC  H15R 5386   5.238   0.511   8.135 -1.4524  0.5382 -0.8515
   40POPC  H15S 5387   5.224   0.687   8.099  1.4465  1.0030  0.7316
   40POPC  C216 5388   5.426   0.613   8.119 -0.1748 -0.6898  0.1890
   40POPC  H16R 5389   5.476   0.517   8.092  1.6196 -0.0377  1.2001
   40POPC  H16S 5390   5.430   0.615   8.230 -1.4508  0.9442  0.2273
   40POPC  C217 5391   5.488   0.738   8.061 -0.5710 -0.7487 -0.4343
   40POPC  H17R 5392   5.439   0.830   8.097 -1.4718 -1.3600 -0.0894
   40POPC  H17S 5393   5.485   0.717   7.951 -2.4453 -0.4544 -0.4596
   40POPC  C218 5394   5.631   0.777   8.101  0.6141  0.2836  0.2199
   40POPC  H18R 5395   5.625   0.814   8.206 -0.5501 -0.8212  0.5459
   40POPC  H18S 5396   5.673   0.859   8.039 -0.3704  1.9088  1.6479
   40POPC  H18T 5397   5.688   0.682   8.090 -0.6050 -0.2627 -1.5685
   40POPC   C33 5398   5.200   0.256   7.046 -0.2832 -0.1004  0.5040
   40POPC   H3X 5399   5.186   0.183   6.963  1.2297 -1.3067  1.2556
   40POPC   H3Y 5400   5.127   0.231   7.127  1.5119  0.7212  2.4407
   40POPC   C34 5401   5.341   0.237   7.117 -0.1231  0.7587 -0.2624
   40POPC   H4X 5402   5.372   0.337   7.152 -1.3925  0.2129  2.5244
   40POPC   H4Y 5403   5.406   0.188   7.041 -0.3090 -2.0045  1.2893
   40POPC   C35 5404   5.330   0.134   7.232 -0.5461 -0.4078 -0.2076
   40POPC   H5X 5405   5.246   0.171   7.293  0.6282  0.3702  0.9580
   40POPC   H5Y 5406   5.425   0.133   7.290 -1.0939 -0.7227  0.6799
   40POPC   C36 5407   5.314  -0.011   7.180 -0.2449 -0.6340  0.0644
   40POPC   H6X 5408   5.407  -0.032   7.123 -1.0759 -0.3141 -1.4399
   40POPC   H6Y 5409   5.233  -0.007   7.104 -2.5197 -1.0263  2.4279
   40POPC   C37 5410   5.307  -0.106   7.301 -0.2656 -0.0440 -0.0955
   40POPC   H7X 5411   5.205  -0.101   7.343  0.2570  0.2105  1.1608
   40POPC   H7Y 5412   5.376  -0.067   7.378  0.7090 -0.8906 -0.5224
   40POPC   C38 5413   5.355  -0.245   7.262 -0.9246  0.1095  0.1908
   40POPC   H8X 5414   5.466  -0.244   7.259 -0.9093 -1.7449 -0.4671
   40POPC   H8Y 5415   5.307  -0.258   7.162 -0.3458  0.6180 -0.1543
   40POPC   C39 5416   5.312  -0.353   7.363 -0.8634 -0.9403 -0.0148
   40POPC   H9X 5417   5.312  -0.459   7.330 -1.2276 -0.5865 -1.1893
   40POPC   H9Y 5418   5.204  -0.329   7.378 -0.6063 -1.0119  2.1393
   40POPC  C310 5419   5.381  -0.351   7.500  0.2535 -0.3345 -0.2567
   40POPC  H10X 5420   5.433  -0.254   7.512 -2.0097  0.6153  2.5667
   40POPC  H10Y 5421   5.460  -0.429   7.493  2.0139  1.4393 -0.5610
   40POPC  C311 5422   5.285  -0.372   7.621 -0.0021  0.1577  0.2203
   40POPC  H11X 5423   5.233  -0.469   7.606  0.3902 -0.3952  2.2684
   40POPC  H11Y 5424   5.209  -0.291   7.611 -1.3385 -1.3132 -1.8937
   40POPC  C312 5425   5.348  -0.372   7.756  0.2109  0.5413  0.5404
   40POPC  H12X 5426   5.428  -0.295   7.763  0.7587 -0.0510  0.8011
   40POPC  H12Y 5427   5.400  -0.469   7.769  0.1208  0.3745 -0.3360
   40POPC  C313 5428   5.251  -0.356   7.872 -0.6277 -0.3439 -0.6251
   40POPC  H13X 5429   5.178  -0.440   7.873 -0.6471 -0.3551 -1.9819
   40POPC  H13Y 5430   5.180  -0.271   7.858 -3.2438 -2.3161  0.2594
   40POPC  C314 5431   5.311  -0.342   8.012  0.6923 -0.3487 -0.0904
   40POPC  H14X 5432   5.235  -0.355   8.092 -0.7351  0.5495 -1.2929
   40POPC  H14Y 5433   5.359  -0.245   8.034  0.6170 -0.0080 -1.4435
   40POPC  C315 5434   5.420  -0.444   8.040 -0.0796  0.6971  0.0970
   40POPC  H15X 5435   5.511  -0.431   7.977  2.2968 -1.0247  3.0465
   40POPC  H15Y 5436   5.388  -0.544   8.003  0.5165  0.5393 -0.0064
   40POPC  C316 5437   5.471  -0.446   8.187 -0.0449  0.4111  0.9937
   40POPC  H16X 5438   5.533  -0.538   8.198  1.6394  1.3918 -0.0593
   40POPC  H16Y 5439   5.392  -0.436   8.264 -0.0473  0.8167  0.9393
   40POPC  H16Z 5440   5.551  -0.371   8.207  0.1642  0.6231 -0.6273
   41CHL1    C3 5441   5.253   4.081  10.112  0.2787  0.0994  0.1002
   41CHL1    H3 5442   5.176   4.003  10.091  1.6364 -1.7306  1.7532
   41CHL1    O3 5443   5.266   4.080  10.253 -0.4417  0.3264 -0.6229
   41CHL1   H3' 5444   5.187   4.032  10.277 -1.2748  0.8902 -2.1675
   41CHL1    C4 5445   5.395   4.056  10.057  0.7014  0.2707  0.2367
   41CHL1   H4A 5446   5.468   4.131  10.094  0.7183  0.0364  0.6834
   41CHL1   H4B 5447   5.444   3.962  10.092  2.5315  0.8615 -0.6804
   41CHL1    C5 5448   5.396   4.051   9.908 -0.0372 -0.0134 -0.5974
   41CHL1    C6 5449   5.447   3.950   9.839 -0.1625  0.6965 -0.4829
   41CHL1    H6 5450   5.472   3.857   9.893 -0.4531 -0.0919 -1.6940
   41CHL1    C7 5451   5.458   3.949   9.691 -0.1405 -0.0567 -0.6430
   41CHL1   H7A 5452   5.556   3.903   9.665 -0.1104 -0.6090  0.4443
   41CHL1   H7B 5453   5.374   3.883   9.659 -0.5905 -0.3632  1.1113
   41CHL1    C8 5454   5.440   4.092   9.623  0.2381  0.2592  0.0705
   41CHL1    H8 5455   5.541   4.135   9.640  0.8698 -2.2758  3.1386
   41CHL1   C14 5456   5.418   4.080   9.478 -0.3054 -0.4951  0.0822
   41CHL1   H14 5457   5.314   4.040   9.471  0.2719 -1.6651 -2.2928
   41CHL1   C15 5458   5.513   3.998   9.399 -0.9668 -0.8303 -0.7634
   41CHL1  H15A 5459   5.617   4.028   9.423 -0.2170 -1.5795 -2.9268
   41CHL1  H15B 5460   5.476   3.897   9.427 -1.7302  0.4164  2.8979
   41CHL1   C16 5461   5.472   4.033   9.252 -0.0977  0.3489 -0.0992
   41CHL1  H16A 5462   5.568   4.063   9.205 -0.3323  0.5682 -0.4370
   41CHL1  H16B 5463   5.426   3.942   9.208 -3.2357  0.6159  2.4295
   41CHL1   C17 5464   5.383   4.156   9.248  0.0322  0.2661 -0.4557
   41CHL1   H17 5465   5.281   4.114   9.236  0.2356  0.2088 -2.0312
   41CHL1   C13 5466   5.395   4.214   9.394  0.0746 -0.0271  0.2538
   41CHL1   C18 5467   5.527   4.301   9.402 -0.2606 -0.5340 -0.1313
   41CHL1  H18A 5468   5.512   4.405   9.367 -0.4746  0.0034  1.5141
   41CHL1  H18B 5469   5.548   4.304   9.511 -2.6569  0.9376  0.3396
   41CHL1  H18C 5470   5.610   4.241   9.359 -1.3061 -2.0962 -0.0223
   41CHL1   C12 5471   5.273   4.284   9.458 -0.1612 -0.2094  0.7116
   41CHL1  H12A 5472   5.263   4.386   9.414  3.9146  0.5048  1.2583
   41CHL1  H12B 5473   5.179   4.225   9.455 -0.4267 -0.0118  3.4849
   41CHL1   C11 5474   5.295   4.305   9.614  0.3602  0.1269  0.1437
   41CHL1  H11A 5475   5.380   4.375   9.627 -1.9192  2.9363  0.3915
   41CHL1  H11B 5476   5.203   4.355   9.650 -0.5857 -0.2787 -1.6478
   41CHL1    C9 5477   5.328   4.174   9.692 -0.2208 -0.6615  0.0085
   41CHL1    H9 5478   5.235   4.113   9.683  0.4751 -2.1522  2.4870
   41CHL1   C10 5479   5.347   4.186   9.847 -0.0937 -0.2151  0.2639
   41CHL1   C19 5480   5.448   4.302   9.871 -0.7941  0.5191 -0.3799
   41CHL1  H19A 5481   5.487   4.310   9.975  1.7569 -0.6981 -1.1899
   41CHL1  H19B 5482   5.544   4.282   9.818 -1.8177 -2.2681 -1.2867
   41CHL1  H19C 5483   5.397   4.397   9.847 -0.3273  0.5996 -1.0512
   41CHL1    C1 5484   5.214   4.216   9.913 -0.5863  0.0949 -0.4246
   41CHL1   H1A 5485   5.174   4.309   9.869 -2.7538 -1.3908 -1.6615
   41CHL1   H1B 5486   5.143   4.138   9.878  1.7753 -2.4175  0.1619
   41CHL1    C2 5487   5.207   4.222  10.058 -0.3945  0.2587  0.7421
   41CHL1   H2A 5488   5.109   4.257  10.096 -0.5778  1.3915 -0.7269
   41CHL1   H2B 5489   5.296   4.284  10.085  1.0328  0.3379 -3.6985
   41CHL1   C20 5490   5.409   4.252   9.137 -0.5008 -0.1716  0.0090
   41CHL1   H20 5491   5.504   4.306   9.154  0.1107 -1.1669 -0.2148
   41CHL1   C21 5492   5.300   4.358   9.130  0.8493  0.0117  0.4588
   41CHL1  H21A 5493   5.202   4.307   9.116  1.6262 -1.5056  0.4004
   41CHL1  H21B 5494   5.319   4.422   9.042  0.4706  1.1880  1.2265
   41CHL1  H21C 5495   5.296   4.429   9.215 -1.2380 -1.7097  1.8699
   41CHL1   C22 5496   5.420   4.178   9.007 -0.0065  0.4057  0.5963
   41CHL1  H22A 5497   5.485   4.088   9.004  0.6082  0.8646 -0.2384
   41CHL1  H22B 5498   5.323   4.138   8.971  0.2980 -1.1464  1.4990
   41CHL1   C23 5499   5.472   4.258   8.886  0.4244 -0.6797 -0.6019
   41CHL1  H23A 5500   5.424   4.356   8.867  1.4578 -0.1147 -0.3848
   41CHL1  H23B 5501   5.576   4.289   8.913  0.1005  0.1212 -0.2384
   41CHL1   C24 5502   5.468   4.184   8.746 -0.1739 -0.0890 -0.0266
   41CHL1  H24A 5503   5.516   4.088   8.776  1.3186  0.7649  0.3455
   41CHL1  H24B 5504   5.363   4.152   8.729  0.2173 -1.8906  0.7581
   41CHL1   C25 5505   5.548   4.254   8.638  0.6257 -0.7552 -0.4215
   41CHL1   H25 5506   5.658   4.244   8.650  0.8930 -1.2094 -3.0289
   41CHL1   C26 5507   5.548   4.177   8.513 -0.3007  0.0294  0.2415
   41CHL1  H26A 5508   5.605   4.082   8.516 -0.0855  0.1726  0.7316
   41CHL1  H26B 5509   5.446   4.146   8.484  0.2509 -2.6554  1.0645
   41CHL1  H26C 5510   5.597   4.229   8.429 -0.8653 -3.7520 -2.5420
   41CHL1   C27 5511   5.494   4.397   8.621  0.1838  0.1540 -0.4494
   41CHL1  H27A 5512   5.526   4.458   8.708 -0.6453  1.1520 -0.8419
   41CHL1  H27B 5513   5.547   4.452   8.540  0.2013  0.4725 -0.2208
   41CHL1  H27C 5514   5.387   4.420   8.603  0.7773  1.6486 -2.1514
   42CHL1    C3 5515   5.155   3.702   9.901  0.0901 -0.0910  0.4887
   42CHL1    H3 5516   5.246   3.764   9.885 -0.3820  0.8079  1.2877
   42CHL1    O3 5517   5.148   3.682  10.040  0.3779 -0.2670  0.0353
   42CHL1   H3' 5518   5.154   3.769  10.080 -0.0314  0.5719 -1.7042
   42CHL1    C4 5519   5.026   3.779   9.861  0.6099 -0.0642 -0.1475
   42CHL1   H4A 5520   4.942   3.709   9.879 -0.6479  1.6387  0.8471
   42CHL1   H4B 5521   5.010   3.863   9.932 -4.0216  0.1601 -1.2844
   42CHL1    C5 5522   5.027   3.807   9.712 -0.1149 -0.6273 -1.0019
   42CHL1    C6 5523   4.998   3.937   9.678 -0.8940 -0.8585  0.1759
   42CHL1    H6 5524   4.982   4.016   9.753 -0.0147 -0.5148 -0.0026
   42CHL1    C7 5525   4.995   3.970   9.530  0.1246  0.2769 -0.4683
   42CHL1   H7A 5526   4.895   4.013   9.504 -0.4649 -1.7444 -1.6871
   42CHL1   H7B 5527   5.069   4.051   9.510 -0.8230  1.3440  0.2498
   42CHL1    C8 5528   5.018   3.856   9.425  0.2222  0.2763  0.3992
   42CHL1    H8 5529   4.919   3.805   9.416  0.2134  0.0884  1.5234
   42CHL1   C14 5530   5.063   3.904   9.290  0.5153  0.6966  0.5359
   42CHL1   H14 5531   5.161   3.950   9.314 -0.2274  1.0451  3.1161
   42CHL1   C15 5532   4.979   4.010   9.215  0.8587  0.1015  0.1256
   42CHL1  H15A 5533   4.872   3.988   9.195  1.1074  0.9420 -2.3210
   42CHL1  H15B 5534   4.994   4.102   9.276 -0.6337 -1.1855  2.5264
   42CHL1   C16 5535   5.050   4.009   9.078 -0.6240  0.7485 -0.2217
   42CHL1  H16A 5536   4.969   4.034   9.005  0.2229  0.3709 -1.3105
   42CHL1  H16B 5537   5.130   4.086   9.083  0.2047 -0.1731  0.7949
   42CHL1   C17 5538   5.125   3.880   9.058 -0.2673  0.7495  0.5905
   42CHL1   H17 5539   5.234   3.904   9.062 -0.2210  0.4434  1.3908
   42CHL1   C13 5540   5.086   3.801   9.182  0.9866 -0.4037 -0.7120
   42CHL1   C18 5541   4.959   3.717   9.157 -0.4814  0.3052  0.3847
   42CHL1  H18A 5542   4.880   3.759   9.090 -0.2920 -0.8062 -0.5629
   42CHL1  H18B 5543   4.994   3.631   9.095 -1.0947 -1.2238  2.1171
   42CHL1  H18C 5544   4.907   3.668   9.242  0.5095 -0.9268  0.2903
   42CHL1   C12 5545   5.190   3.705   9.242  0.5090  0.3519 -0.0760
   42CHL1  H12A 5546   5.204   3.628   9.163  0.6073  0.6546 -0.3582
   42CHL1  H12B 5547   5.282   3.761   9.271 -0.5257  0.7949  2.4123
   42CHL1   C11 5548   5.147   3.639   9.374 -0.1408  0.3280  0.3846
   42CHL1  H11A 5549   5.065   3.565   9.358  0.3966 -0.2301  0.1888
   42CHL1  H11B 5550   5.227   3.564   9.392  2.2518  2.2381 -1.9852
   42CHL1    C9 5551   5.112   3.750   9.485  0.4992 -0.6760  0.8142
   42CHL1    H9 5552   5.213   3.791   9.503  0.6322 -0.6597  0.0511
   42CHL1   C10 5553   5.068   3.691   9.620  0.0352  0.4949  0.1308
   42CHL1   C19 5554   4.945   3.602   9.592  0.0778  0.2525  0.0970
   42CHL1  H19A 5555   4.861   3.662   9.550  0.5671  0.3375 -0.7727
   42CHL1  H19B 5556   4.972   3.518   9.525  0.9080  1.5802 -1.2537
   42CHL1  H19C 5557   4.914   3.557   9.689  2.0905 -0.8692  0.2504
   42CHL1    C1 5558   5.184   3.607   9.682 -0.3224  0.9623  0.3479
   42CHL1   H1A 5559   5.181   3.517   9.617  1.0813 -0.6643  2.4657
   42CHL1   H1B 5560   5.281   3.660   9.675 -0.4132  0.9956 -0.6531
   42CHL1    C2 5561   5.163   3.565   9.824 -0.0805  0.3702  0.1275
   42CHL1   H2A 5562   5.252   3.508   9.859 -0.4770 -0.8339 -0.8047
   42CHL1   H2B 5563   5.076   3.500   9.849 -0.1027  0.7019  0.9429
   42CHL1   C20 5564   5.111   3.822   8.918  0.1619  0.1731  0.3430
   42CHL1   H20 5565   5.006   3.788   8.907 -0.4906  2.4122 -0.6859
   42CHL1   C21 5566   5.225   3.717   8.899 -0.0697 -0.5208 -0.3666
   42CHL1  H21A 5567   5.223   3.630   8.968  0.2358 -1.0558 -1.0249
   42CHL1  H21B 5568   5.317   3.772   8.928 -0.4273 -0.8130  1.3762
   42CHL1  H21C 5569   5.238   3.679   8.795 -0.1143 -2.8255  0.4502
   42CHL1   C22 5570   5.138   3.927   8.799  0.0862  0.1715  0.0996
   42CHL1  H22A 5571   5.073   4.015   8.823  0.8277  1.1045 -1.2554
   42CHL1  H22B 5572   5.243   3.963   8.803 -0.0527  0.6420 -0.3090
   42CHL1   C23 5573   5.105   3.874   8.655 -0.3490  1.2371 -0.7661
   42CHL1  H23A 5574   5.173   3.794   8.620 -1.0157  0.0399  0.6229
   42CHL1  H23B 5575   5.002   3.831   8.656  0.3246 -0.3859 -0.4942
   42CHL1   C24 5576   5.112   3.991   8.549  0.1033  0.2983 -0.0309
   42CHL1  H24A 5577   5.032   4.061   8.580 -1.1912 -1.4690  0.6203
   42CHL1  H24B 5578   5.205   4.048   8.570 -0.2187  1.0271 -0.5609
   42CHL1   C25 5579   5.098   3.950   8.394  0.4950 -0.1075 -0.4186
   42CHL1   H25 5580   5.023   3.869   8.389 -2.1019  2.3246 -3.1266
   42CHL1   C26 5581   5.051   4.067   8.306 -0.1821 -0.1832 -0.3265
   42CHL1  H26A 5582   5.065   4.046   8.198 -2.7416 -0.8966 -0.5490
   42CHL1  H26B 5583   4.942   4.083   8.323 -0.2382 -0.0656 -0.7921
   42CHL1  H26C 5584   5.101   4.166   8.314 -0.1200 -0.2250 -0.2064
   42CHL1   C27 5585   5.233   3.892   8.349  0.7173  0.0674  0.0042
   42CHL1  H27A 5586   5.217   3.816   8.270  0.5162  1.7240 -1.5795
   42CHL1  H27B 5587   5.308   3.969   8.322  0.1939  0.5676 -0.0446
   42CHL1  H27C 5588   5.270   3.829   8.432 -1.2065 -2.4294 -0.9537
   43CHL1    C3 5589   5.713   3.610   9.906 -0.0987  0.7129 -0.3534
   43CHL1    H3 5590   5.743   3.709   9.867  1.1603 -0.3279 -2.0817
   43CHL1    O3 5591   5.681   3.607  10.043 -0.3092  0.2572 -0.6175
   43CHL1   H3' 5592   5.749   3.547  10.077 -2.8143 -2.2022  0.2464
   43CHL1    C4 5593   5.593   3.559   9.831  0.3251  0.0855 -0.1223
   43CHL1   H4A 5594   5.565   3.464   9.882  1.7221  0.9355  2.3187
   43CHL1   H4B 5595   5.510   3.631   9.846 -1.2241 -0.7641 -4.0068
   43CHL1    C5 5596   5.625   3.544   9.686  0.2638  0.0493 -0.2209
   43CHL1    C6 5597   5.560   3.605   9.586 -0.9045 -0.8975  0.4459
   43CHL1    H6 5598   5.476   3.670   9.614 -1.1535 -0.7591 -0.5961
   43CHL1    C7 5599   5.569   3.579   9.445  0.1802  0.0030  0.5429
   43CHL1   H7A 5600   5.470   3.556   9.402 -0.5005  0.7447  1.6900
   43CHL1   H7B 5601   5.609   3.673   9.400  0.1657 -1.2730 -2.2851
   43CHL1    C8 5602   5.663   3.462   9.406 -0.2523  0.0417  0.0911
   43CHL1    H8 5603   5.604   3.368   9.415  0.7374 -0.7022 -1.1245
   43CHL1   C14 5604   5.712   3.476   9.264  0.1946  0.5248  0.0296
   43CHL1   H14 5605   5.777   3.565   9.255  1.3858 -0.4785 -1.4578
   43CHL1   C15 5606   5.602   3.492   9.155  0.7529 -0.3597  0.0540
   43CHL1  H15A 5607   5.515   3.427   9.180  0.1868  1.1752  2.2560
   43CHL1  H15B 5608   5.578   3.600   9.150  1.1989 -0.3419 -2.2386
   43CHL1   C16 5609   5.673   3.444   9.025 -0.2522  0.2728  0.5657
   43CHL1  H16A 5610   5.603   3.371   8.978 -1.9508  1.8526  0.5921
   43CHL1  H16B 5611   5.697   3.528   8.956  0.0304  0.3793  0.7945
   43CHL1   C17 5612   5.814   3.384   9.065  0.1972  0.3785  0.0946
   43CHL1   H17 5613   5.888   3.466   9.059  0.7775 -0.2220 -1.1154
   43CHL1   C13 5614   5.797   3.352   9.214 -0.3617  0.3465  0.4941
   43CHL1   C18 5615   5.709   3.223   9.222 -0.7447 -0.5082 -0.3798
   43CHL1  H18A 5616   5.683   3.198   9.327 -2.6321 -1.2888 -1.0166
   43CHL1  H18B 5617   5.619   3.231   9.158  0.7184  0.2636 -2.3728
   43CHL1  H18C 5618   5.766   3.140   9.174 -0.9948 -0.4091 -0.8505
   43CHL1   C12 5619   5.917   3.343   9.307  0.0784  0.2966  0.0113
   43CHL1  H12A 5620   5.970   3.247   9.289  0.3093  0.7594 -1.9259
   43CHL1  H12B 5621   5.986   3.427   9.282  2.0403  0.2132  4.6621
   43CHL1   C11 5622   5.889   3.349   9.456  0.3500 -0.0692  0.4084
   43CHL1  H11A 5623   5.843   3.251   9.480  0.1218 -0.6555 -2.2751
   43CHL1  H11B 5624   5.986   3.367   9.507  0.4713 -0.0846  0.1838
   43CHL1    C9 5625   5.783   3.459   9.497 -0.2075  0.0795 -0.2231
   43CHL1    H9 5626   5.837   3.556   9.486  0.0367 -0.0537 -0.2056
   43CHL1   C10 5627   5.736   3.451   9.651  0.2714  0.3883  0.4562
   43CHL1   C19 5628   5.694   3.304   9.695  0.3095 -0.9401 -0.0509
   43CHL1  H19A 5629   5.781   3.237   9.680  1.5039  0.5005  0.3618
   43CHL1  H19B 5630   5.662   3.297   9.801 -0.6360  1.8574 -0.1072
   43CHL1  H19C 5631   5.610   3.278   9.628  0.0437  2.5263 -1.1374
   43CHL1    C1 5632   5.860   3.496   9.734  0.2450 -0.0450 -0.1960
   43CHL1   H1A 5633   5.952   3.434   9.730 -1.3762 -2.7509  2.3543
   43CHL1   H1B 5634   5.885   3.593   9.687 -2.5962  1.1993  0.7357
   43CHL1    C2 5635   5.836   3.514   9.881  0.4013  0.4739 -0.2038
   43CHL1   H2A 5636   5.927   3.557   9.929  1.0133 -1.7564  0.6912
   43CHL1   H2B 5637   5.813   3.417   9.931 -0.6598  1.2757  0.8862
   43CHL1   C20 5638   5.872   3.283   8.958  0.4481  0.7306 -0.9287
   43CHL1   H20 5639   5.791   3.206   8.950 -0.0270  1.1367 -0.0904
   43CHL1   C21 5640   6.006   3.233   9.014  0.3126 -0.0095  0.4617
   43CHL1  H21A 5641   6.073   3.178   8.945 -0.1952 -0.0461 -0.0023
   43CHL1  H21B 5642   5.978   3.169   9.101 -0.1080 -1.6660 -0.8770
   43CHL1  H21C 5643   6.069   3.323   9.036 -1.2752  1.2260  0.0151
   43CHL1   C22 5644   5.886   3.329   8.812 -0.4885 -0.4882  0.0668
   43CHL1  H22A 5645   5.785   3.373   8.795 -1.0640 -0.7778  2.5827
   43CHL1  H22B 5646   5.964   3.408   8.813 -1.9129  0.9244  1.5356
   43CHL1   C23 5647   5.912   3.215   8.711 -0.2176 -0.3436  0.5089
   43CHL1  H23A 5648   6.010   3.164   8.726  1.3527  2.6673  0.8419
   43CHL1  H23B 5649   5.825   3.149   8.730 -0.3145 -0.5384 -0.5892
   43CHL1   C24 5650   5.904   3.255   8.560 -0.3279 -0.1540 -0.1201
   43CHL1  H24A 5651   5.809   3.311   8.547 -1.4689 -2.3911 -1.7780
   43CHL1  H24B 5652   5.999   3.308   8.533  0.9876 -2.4199 -0.0910
   43CHL1   C25 5653   5.902   3.135   8.463 -0.7688 -0.0180 -0.1557
   43CHL1   H25 5654   5.832   3.056   8.497  1.2147 -1.9043 -0.3071
   43CHL1   C26 5655   5.851   3.184   8.329 -0.9364  0.0425  0.0027
   43CHL1  H26A 5656   5.854   3.100   8.257 -1.2941  0.8143 -0.9284
   43CHL1  H26B 5657   5.745   3.210   8.345 -1.2336 -1.0096 -0.2580
   43CHL1  H26C 5658   5.911   3.275   8.304 -3.9810  1.8052 -1.0984
   43CHL1   C27 5659   6.029   3.054   8.438  0.6895 -0.2413 -0.1323
   43CHL1  H27A 5660   6.063   3.012   8.535 -1.1637 -0.0225  0.6369
   43CHL1  H27B 5661   6.003   2.969   8.372 -2.9108  1.8576 -1.6095
   43CHL1  H27C 5662   6.097   3.125   8.387 -0.9934  1.1580 -0.5103
   44CHL1    C3 5663   5.907   4.034   9.940  0.0252  0.6944  0.0144
   44CHL1    H3 5664   5.825   3.960   9.929 -0.6530  1.2522  1.2266
   44CHL1    O3 5665   5.920   4.060  10.079  0.2225  0.4990 -0.6753
   44CHL1   H3' 5666   5.859   4.000  10.123 -0.4719  0.1265 -2.1163
   44CHL1    C4 5667   6.037   3.985   9.873  0.5145 -0.3718 -0.3316
   44CHL1   H4A 5668   6.121   4.057   9.882 -0.8429  0.8997  2.9570
   44CHL1   H4B 5669   6.066   3.892   9.926 -0.5101  0.6704  2.0913
   44CHL1    C5 5670   6.028   3.962   9.725 -0.3765 -0.1959  0.5911
   44CHL1    C6 5671   6.056   3.839   9.677  0.4427 -0.2219  0.5567
   44CHL1    H6 5672   6.087   3.762   9.750  0.3853 -0.3948  0.3988
   44CHL1    C7 5673   6.051   3.805   9.527 -0.0613 -0.6068 -0.5425
   44CHL1   H7A 5674   6.140   3.744   9.498  1.4667  1.3481 -0.0289
   44CHL1   H7B 5675   5.958   3.750   9.502  0.6542 -2.3218  0.5220
   44CHL1    C8 5676   6.054   3.931   9.437 -0.1332  0.1246  0.6257
   44CHL1    H8 5677   6.151   3.985   9.443  0.4897 -1.0449  1.3105
   44CHL1   C14 5678   6.019   3.886   9.293 -0.2178 -0.1310  0.7720
   44CHL1   H14 5679   5.920   3.835   9.303  0.3481 -1.1432  1.2687
   44CHL1   C15 5680   6.117   3.784   9.229 -0.6400  0.0770  0.2122
   44CHL1  H15A 5681   6.216   3.833   9.245 -0.9819  1.1506 -0.8614
   44CHL1  H15B 5682   6.123   3.684   9.277 -0.2046  0.2520  0.5241
   44CHL1   C16 5683   6.077   3.798   9.077  0.8748 -0.1598 -0.3398
   44CHL1  H16A 5684   6.167   3.805   9.012  0.8962 -1.6473 -0.4792
   44CHL1  H16B 5685   6.021   3.705   9.053 -0.1840 -0.1658  2.0053
   44CHL1   C17 5686   5.977   3.923   9.057  0.8958  0.0639  0.5033
   44CHL1   H17 5687   5.878   3.872   9.049 -0.6196  2.7474  1.5106
   44CHL1   C13 5688   5.995   3.998   9.192  0.2677 -0.2658 -0.2493
   44CHL1   C18 5689   6.128   4.086   9.183 -0.0903  0.9546  0.1765
   44CHL1  H18A 5690   6.167   4.109   9.284 -0.9998 -2.0153  1.2558
   44CHL1  H18B 5691   6.211   4.034   9.129  0.4286  0.5284  1.3746
   44CHL1  H18C 5692   6.116   4.181   9.127 -0.8126  1.1020  0.5829
   44CHL1   C12 5693   5.878   4.079   9.247 -0.0621  0.6251 -0.0402
   44CHL1  H12A 5694   5.857   4.164   9.178 -0.6729  0.6396  0.1699
   44CHL1  H12B 5695   5.788   4.015   9.248 -0.3283  0.9651  4.1292
   44CHL1   C11 5696   5.909   4.133   9.388  0.3924 -0.6338  0.4363
   44CHL1  H11A 5697   5.987   4.213   9.391  0.9747 -1.1904  0.2659
   44CHL1  H11B 5698   5.823   4.187   9.434  0.9615  0.9140 -0.2671
   44CHL1    C9 5699   5.948   4.024   9.490  1.0627  0.5169 -0.7699
   44CHL1    H9 5700   5.856   3.963   9.502  1.1654 -0.2841 -3.5131
   44CHL1   C10 5701   5.980   4.078   9.636 -0.5158 -0.0309  0.2735
   44CHL1   C19 5702   6.078   4.204   9.626  0.3637  0.4834 -0.4319
   44CHL1  H19A 5703   6.167   4.178   9.565 -0.5590 -0.6194 -1.3257
   44CHL1  H19B 5704   6.028   4.286   9.572  2.0344  1.1552 -0.9686
   44CHL1  H19C 5705   6.112   4.235   9.727  1.1353 -0.3233 -0.4324
   44CHL1    C1 5706   5.847   4.133   9.707  0.4440  0.1416 -0.1152
   44CHL1   H1A 5707   5.806   4.226   9.662  0.2072 -0.2068 -0.6219
   44CHL1   H1B 5708   5.770   4.056   9.686  2.0191 -1.3146 -0.7700
   44CHL1    C2 5709   5.860   4.154   9.863 -0.3397 -0.4394  0.4850
   44CHL1   H2A 5710   5.762   4.184   9.906 -1.4978 -1.5304 -1.3183
   44CHL1   H2B 5711   5.923   4.245   9.876 -1.4533  0.3619  0.3347
   44CHL1   C20 5712   5.993   3.995   8.925 -0.0983 -0.4800  0.4816
   44CHL1   H20 5713   6.099   4.026   8.911 -0.1915  0.6745  2.1448
   44CHL1   C21 5714   5.910   4.128   8.906 -0.6409  0.6969 -0.1893
   44CHL1  H21A 5715   5.893   4.146   8.798 -1.3112  1.6246  0.0612
   44CHL1  H21B 5716   5.978   4.206   8.946  3.9145 -2.0759 -2.1904
   44CHL1  H21C 5717   5.816   4.123   8.965 -1.4796 -0.8172 -1.6044
   44CHL1   C22 5718   5.968   3.901   8.802  0.4459 -0.5143 -0.3740
   44CHL1  H22A 5719   6.009   3.949   8.711 -0.5969  0.8097 -0.1735
   44CHL1  H22B 5720   6.017   3.802   8.805 -0.2841 -0.8968 -1.0524
   44CHL1   C23 5721   5.812   3.866   8.773  0.2227 -0.5179 -0.1259
   44CHL1  H23A 5722   5.775   3.818   8.866  0.1502 -2.0529 -0.9179
   44CHL1  H23B 5723   5.761   3.963   8.763  0.9921  0.1205  1.8402
   44CHL1   C24 5724   5.797   3.792   8.644  0.3840 -0.0158  0.0828
   44CHL1  H24A 5725   5.840   3.843   8.556  0.3309  0.0738  0.1099
   44CHL1  H24B 5726   5.855   3.698   8.638  0.0347 -0.2151 -0.1828
   44CHL1   C25 5727   5.645   3.766   8.604  0.1917  0.3734  0.7459
   44CHL1   H25 5728   5.596   3.861   8.637 -0.9997  0.2486 -0.6148
   44CHL1   C26 5729   5.626   3.744   8.456  0.7205  0.6738 -0.0534
   44CHL1  H26A 5730   5.664   3.830   8.396  0.5439  0.8615  0.1020
   44CHL1  H26B 5731   5.674   3.652   8.416 -1.0785 -0.3087  0.0234
   44CHL1  H26C 5732   5.518   3.732   8.437  0.7548 -0.4468  0.4062
   44CHL1   C27 5733   5.589   3.645   8.681 -0.5364 -0.2356 -0.4603
   44CHL1  H27A 5734   5.481   3.623   8.664 -1.0365  2.4249 -1.0563
   44CHL1  H27B 5735   5.648   3.563   8.638 -1.1744 -0.8627 -0.1570
   44CHL1  H27C 5736   5.623   3.658   8.786  0.7702  0.3178 -0.9403
   45CHL1    C3 5737   2.291   2.429  10.320  0.0179 -0.4743  0.3043
   45CHL1    H3 5738   2.181   2.425  10.330  0.0590  0.8600  1.3528
   45CHL1    O3 5739   2.349   2.427  10.449  0.2215 -0.1092  1.2041
   45CHL1   H3' 5740   2.425   2.485  10.451 -1.9314  2.8228  2.6313
   45CHL1    C4 5741   2.333   2.315  10.228 -0.5008 -0.2690  0.9057
   45CHL1   H4A 5742   2.443   2.323  10.223 -0.5413  1.6996  2.7503
   45CHL1   H4B 5743   2.305   2.214  10.265 -1.0897 -0.8254 -0.9758
   45CHL1    C5 5744   2.278   2.345  10.080 -0.4308  0.2389 -0.3609
   45CHL1    C6 5745   2.183   2.261  10.023  0.6760  0.5161 -0.1141
   45CHL1    H6 5746   2.150   2.170  10.075 -0.7993 -0.0266 -1.9251
   45CHL1    C7 5747   2.117   2.284   9.888 -0.2776 -0.0464  0.2665
   45CHL1   H7A 5748   2.105   2.187   9.837  0.8669 -0.5521  0.9242
   45CHL1   H7B 5749   2.019   2.328   9.914  1.5294  3.1136  2.0991
   45CHL1    C8 5750   2.203   2.380   9.793  0.5715  0.0716 -0.5479
   45CHL1    H8 5751   2.137   2.422   9.714 -1.5325  0.7953  1.5307
   45CHL1   C14 5752   2.320   2.308   9.711  0.0617  0.1536  0.8485
   45CHL1   H14 5753   2.379   2.253   9.788  0.1594  1.1025  1.4594
   45CHL1   C15 5754   2.257   2.220   9.604  0.3385  0.0576  0.3936
   45CHL1  H15A 5755   2.332   2.145   9.573  1.0542 -0.3096  2.8574
   45CHL1  H15B 5756   2.161   2.173   9.636  0.2890  0.4550  0.8397
   45CHL1   C16 5757   2.223   2.305   9.482 -0.4600 -0.0578  0.5682
   45CHL1  H16A 5758   2.240   2.251   9.387 -1.4019 -0.6637  0.7336
   45CHL1  H16B 5759   2.114   2.328   9.480 -0.3521  0.4123 -1.1949
   45CHL1   C17 5760   2.304   2.433   9.501  0.0936 -0.0735 -0.2133
   45CHL1   H17 5761   2.227   2.504   9.537  1.1298  0.9886 -0.0684
   45CHL1   C13 5762   2.397   2.407   9.627 -0.2832 -0.3812 -0.4273
   45CHL1   C18 5763   2.528   2.342   9.590 -0.0504  0.3997  0.1790
   45CHL1  H18A 5764   2.577   2.293   9.677 -1.8412 -2.1332 -0.1568
   45CHL1  H18B 5765   2.503   2.253   9.528 -0.3874  0.5728  0.0690
   45CHL1  H18C 5766   2.598   2.413   9.542  0.4305  0.7911  1.4254
   45CHL1   C12 5767   2.425   2.543   9.701  1.1743 -0.3528 -0.0784
   45CHL1  H12A 5768   2.520   2.536   9.757  1.6716  0.1421 -0.8387
   45CHL1  H12B 5769   2.452   2.618   9.623 -0.3108 -0.6389 -0.8892
   45CHL1   C11 5770   2.315   2.606   9.782  0.7745 -0.5569  0.1713
   45CHL1  H11A 5771   2.354   2.691   9.841  0.4154 -0.0252 -0.3536
   45CHL1  H11B 5772   2.253   2.652   9.702 -0.3831  0.2371  1.5045
   45CHL1    C9 5773   2.248   2.502   9.870 -0.7759 -0.5572  0.3979
   45CHL1    H9 5774   2.160   2.559   9.906 -0.4881  0.2587 -0.1813
   45CHL1   C10 5775   2.316   2.475  10.008 -0.3458  0.3224 -0.0127
   45CHL1   C19 5776   2.466   2.484   9.997 -0.2926  0.0890  0.4084
   45CHL1  H19A 5777   2.496   2.591   9.996 -1.4310  0.4103 -0.6139
   45CHL1  H19B 5778   2.528   2.439  10.077 -0.9959 -0.6161  0.5646
   45CHL1  H19C 5779   2.492   2.417   9.913 -1.7919  0.5495 -0.4390
   45CHL1    C1 5780   2.266   2.576  10.111  0.1126 -0.1574  0.7245
   45CHL1   H1A 5781   2.292   2.676  10.070  1.6446 -1.9192 -2.8165
   45CHL1   H1B 5782   2.155   2.572  10.120  0.0198  0.3823 -0.1231
   45CHL1    C2 5783   2.328   2.564  10.247 -0.8083  0.7492 -0.3299
   45CHL1   H2A 5784   2.313   2.653  10.311  3.3032  0.5798  0.9857
   45CHL1   H2B 5785   2.438   2.561  10.233 -0.6164 -0.0463  1.2028
   45CHL1   C20 5786   2.363   2.492   9.375 -0.1375  0.0269  0.0733
   45CHL1   H20 5787   2.427   2.577   9.407  2.3444 -1.8697  0.3311
   45CHL1   C21 5788   2.251   2.557   9.287  0.2548  0.1951  0.6844
   45CHL1  H21A 5789   2.165   2.598   9.343 -0.1036  1.1698 -0.5552
   45CHL1  H21B 5790   2.213   2.480   9.217  1.4823  0.2928 -0.1076
   45CHL1  H21C 5791   2.292   2.637   9.221  1.0320  1.2942  2.4491
   45CHL1   C22 5792   2.445   2.392   9.280 -0.3336  0.4716 -0.6743
   45CHL1  H22A 5793   2.512   2.320   9.333 -1.3117 -0.1423 -0.2676
   45CHL1  H22B 5794   2.367   2.331   9.231 -0.2198 -0.3448  0.1369
   45CHL1   C23 5795   2.521   2.467   9.175 -0.0983 -0.1315 -0.0502
   45CHL1  H23A 5796   2.465   2.543   9.117  0.8653  1.2561  0.7856
   45CHL1  H23B 5797   2.604   2.518   9.228  0.0047  0.6529 -0.9583
   45CHL1   C24 5798   2.574   2.372   9.066 -0.2823 -0.6326 -0.0871
   45CHL1  H24A 5799   2.642   2.296   9.109  1.6067  0.0663 -1.7836
   45CHL1  H24B 5800   2.489   2.312   9.026 -0.7997  0.7286 -1.0816
   45CHL1   C25 5801   2.651   2.429   8.941  0.1609  0.8714 -0.3411
   45CHL1   H25 5802   2.731   2.493   8.985 -0.1403  1.0436 -0.0438
   45CHL1   C26 5803   2.712   2.308   8.865  0.1274 -0.6559  0.2068
   45CHL1  H26A 5804   2.789   2.259   8.927 -0.3971  0.5757  1.8443
   45CHL1  H26B 5805   2.633   2.231   8.849 -0.9013  0.3630  0.2768
   45CHL1  H26C 5806   2.760   2.338   8.769 -0.8959  0.6614  0.0952
   45CHL1   C27 5807   2.566   2.519   8.855  0.3781  0.0574  0.3839
   45CHL1  H27A 5808   2.621   2.572   8.775  2.2973 -0.6451  1.2024
   45CHL1  H27B 5809   2.480   2.464   8.811  0.4752 -0.9236  1.3958
   45CHL1  H27C 5810   2.524   2.600   8.919  1.3519 -2.2360  4.1311
   46CHL1    C3 5811   5.713   0.104   9.991 -1.0334  0.5937 -1.0335
   46CHL1    H3 5812   5.758   0.005   9.970  3.2668  2.7875 -2.7912
   46CHL1    O3 5813   5.702   0.127  10.132  0.2366  0.0932  0.3813
   46CHL1   H3' 5814   5.756   0.061  10.175  1.0472 -0.9678 -2.1455
   46CHL1    C4 5815   5.790   0.212   9.915 -0.8857 -1.5546  0.4350
   46CHL1   H4A 5816   5.740   0.310   9.932 -1.2759 -1.6957  0.0979
   46CHL1   H4B 5817   5.894   0.217   9.954 -0.9266  1.4409  0.2668
   46CHL1    C5 5818   5.800   0.190   9.766  0.4570  0.2424 -0.8027
   46CHL1    C6 5819   5.913   0.188   9.695 -0.3455  0.1038  0.3091
   46CHL1    H6 5820   6.010   0.213   9.741 -0.1456 -1.6304  0.8541
   46CHL1    C7 5821   5.929   0.158   9.545  0.2093 -0.4298  0.8119
   46CHL1   H7A 5822   6.003   0.235   9.514  1.3191 -0.6000  2.9577
   46CHL1   H7B 5823   5.980   0.059   9.536  2.3161  0.5360  1.9807
   46CHL1    C8 5824   5.792   0.155   9.472  0.4887 -0.1978 -0.0765
   46CHL1    H8 5825   5.761   0.261   9.469  0.3270 -0.1791  1.5390
   46CHL1   C14 5826   5.802   0.084   9.340 -0.3348  0.6804 -0.3595
   46CHL1   H14 5827   5.819  -0.024   9.360  1.5603  0.6409 -2.0184
   46CHL1   C15 5828   5.910   0.121   9.244  0.0008  0.3760 -0.5564
   46CHL1  H15A 5829   5.898   0.232   9.244 -3.0112  0.0849 -0.9456
   46CHL1  H15B 5830   6.009   0.083   9.275 -0.1590  2.4346  2.7363
   46CHL1   C16 5831   5.866   0.064   9.112 -0.2737 -0.1376 -0.4099
   46CHL1  H16A 5832   5.878   0.152   9.045  0.4532 -2.1683 -3.0370
   46CHL1  H16B 5833   5.935  -0.015   9.075 -0.4337  1.1090 -3.4980
   46CHL1   C17 5834   5.719   0.013   9.127 -0.4724 -0.3091  0.0097
   46CHL1   H17 5835   5.717  -0.095   9.153 -0.1242 -1.2116 -3.4744
   46CHL1   C13 5836   5.667   0.081   9.254 -0.0678 -0.4554 -0.0608
   46CHL1   C18 5837   5.622   0.233   9.214  0.2138 -0.9462  0.3906
   46CHL1  H18A 5838   5.684   0.273   9.132 -2.1174  1.1785 -0.3804
   46CHL1  H18B 5839   5.515   0.235   9.182  0.9812 -1.0460 -2.2470
   46CHL1  H18C 5840   5.634   0.304   9.299 -0.2734  0.9600 -1.1106
   46CHL1   C12 5841   5.560   0.008   9.344 -0.0035 -0.4502  0.1982
   46CHL1  H12A 5842   5.460   0.024   9.297  0.5111  0.2709 -0.6638
   46CHL1  H12B 5843   5.584  -0.100   9.343  2.4803  0.0658  0.6195
   46CHL1   C11 5844   5.550   0.063   9.488 -0.6448 -0.0464 -0.8855
   46CHL1  H11A 5845   5.487   0.155   9.482 -0.4694  0.0034 -2.0471
   46CHL1  H11B 5846   5.502  -0.022   9.540  0.6543 -0.2228  0.0512
   46CHL1    C9 5847   5.687   0.092   9.561 -0.5544  0.0213  0.8860
   46CHL1    H9 5848   5.722  -0.009   9.590  0.8544  0.6943  1.5981
   46CHL1   C10 5849   5.664   0.160   9.701 -0.5416 -0.0615 -0.4833
   46CHL1   C19 5850   5.597   0.297   9.696  0.5666  0.3861 -0.0092
   46CHL1  H19A 5851   5.670   0.356   9.636  0.0906  1.2790  0.2783
   46CHL1  H19B 5852   5.499   0.284   9.643  0.4724 -0.8282  0.4609
   46CHL1  H19C 5853   5.592   0.337   9.799 -1.4642 -1.6164  0.7154
   46CHL1    C1 5854   5.581   0.058   9.787  0.5855 -0.3207  0.2375
   46CHL1   H1A 5855   5.476   0.055   9.752  0.6750  2.1305 -0.2765
   46CHL1   H1B 5856   5.603  -0.049   9.764  0.4939 -0.3129  0.1188
   46CHL1    C2 5857   5.570   0.084   9.937  0.7334  1.1486  0.1669
   46CHL1   H2A 5858   5.517  -0.003   9.980  1.5996  1.6420  2.3137
   46CHL1   H2B 5859   5.508   0.176   9.944 -1.1075  0.0784 -1.5753
   46CHL1   C20 5860   5.640   0.023   9.001  0.0161 -0.3070  0.4958
   46CHL1   H20 5861   5.651   0.126   8.962  2.2308 -1.4685 -2.1671
   46CHL1   C21 5862   5.489  -0.004   9.023 -0.5229  0.4537 -0.1196
   46CHL1  H21A 5863   5.437   0.079   9.075 -1.5421 -0.7745  0.8605
   46CHL1  H21B 5864   5.469  -0.098   9.079  1.1105  0.2301  0.1183
   46CHL1  H21C 5865   5.451  -0.017   8.920  1.8498  2.4863 -1.3255
   46CHL1   C22 5866   5.696  -0.067   8.882  0.5512 -0.1208 -0.3240
   46CHL1  H22A 5867   5.807  -0.069   8.878  0.6044 -2.1418  1.5065
   46CHL1  H22B 5868   5.663  -0.172   8.899 -1.3098  0.3469 -0.9127
   46CHL1   C23 5869   5.654  -0.027   8.741 -0.2114 -0.3266 -0.3314
   46CHL1  H23A 5870   5.548   0.007   8.735 -0.5954 -1.2342  1.1107
   46CHL1  H23B 5871   5.712   0.064   8.714 -1.8731  0.1519 -2.4197
   46CHL1   C24 5872   5.688  -0.128   8.628  0.2649  0.4647 -0.2135
   46CHL1  H24A 5873   5.799  -0.138   8.620  0.1799 -0.8159  0.1416
   46CHL1  H24B 5874   5.642  -0.225   8.654  0.7136 -0.0436 -1.2796
   46CHL1   C25 5875   5.646  -0.094   8.477 -0.3852  0.6444  0.6576
   46CHL1   H25 5876   5.667   0.015   8.475  0.8279  0.4070 -0.4113
   46CHL1   C26 5877   5.746  -0.150   8.372 -0.0316  0.2204 -0.6730
   46CHL1  H26A 5878   5.744  -0.261   8.374 -0.4083  0.2308  1.4731
   46CHL1  H26B 5879   5.710  -0.123   8.270  0.0780 -0.8742 -0.9990
   46CHL1  H26C 5880   5.851  -0.118   8.387  0.4224 -1.0964 -1.0655
   46CHL1   C27 5881   5.502  -0.135   8.454  0.0123 -0.6221 -0.2067
   46CHL1  H27A 5882   5.497  -0.244   8.434  1.3694 -0.9175  0.9902
   46CHL1  H27B 5883   5.435  -0.091   8.532 -0.2302 -2.7648  0.8381
   46CHL1  H27C 5884   5.464  -0.079   8.366  2.4907  0.9506 -0.3305
   47CHL1    C3 5885   6.634   3.936  10.091  0.0055 -0.5607  0.1593
   47CHL1    H3 5886   6.692   4.025  10.060 -2.2074 -0.1378 -3.0288
   47CHL1    O3 5887   6.610   3.954  10.234  0.1319  0.0434  0.2363
   47CHL1   H3' 5888   6.579   3.872  10.271  1.9901 -0.5893  0.4507
   47CHL1    C4 5889   6.500   3.945  10.012  0.9920  0.3535 -0.6879
   47CHL1   H4A 5890   6.429   3.875  10.061 -1.5946  1.3283 -2.9504
   47CHL1   H4B 5891   6.460   4.046  10.038  2.3158  0.6277  0.3559
   47CHL1    C5 5892   6.514   3.935   9.865  0.3089 -0.4293  0.5791
   47CHL1    C6 5893   6.472   4.034   9.784  0.6022  0.5697  0.1034
   47CHL1    H6 5894   6.426   4.124   9.827 -0.0558 -0.4175  1.5055
   47CHL1    C7 5895   6.479   4.028   9.638 -0.1958  0.2797 -0.0911
   47CHL1   H7A 5896   6.380   4.050   9.591 -0.0906 -0.9094 -0.8995
   47CHL1   H7B 5897   6.552   4.106   9.609  1.2752 -1.5386 -1.4023
   47CHL1    C8 5898   6.507   3.884   9.592  0.3638  0.8027 -0.5309
   47CHL1    H8 5899   6.421   3.813   9.590  1.4650 -0.5460 -1.8466
   47CHL1   C14 5900   6.552   3.899   9.447 -0.6286  0.2506  0.2589
   47CHL1   H14 5901   6.637   3.969   9.465 -1.3738  0.8439  1.5307
   47CHL1   C15 5902   6.470   3.968   9.341 -0.1046  0.3248  0.0880
   47CHL1  H15A 5903   6.373   3.914   9.342 -0.2696  0.6215  0.0188
   47CHL1  H15B 5904   6.454   4.077   9.355  2.2352  1.0475 -2.3157
   47CHL1   C16 5905   6.558   3.947   9.212 -0.1079  0.5865 -0.8258
   47CHL1  H16A 5906   6.489   3.914   9.131 -1.6822 -0.8727  1.0507
   47CHL1  H16B 5907   6.622   4.033   9.182 -2.1740  1.4591 -2.8737
   47CHL1   C17 5908   6.656   3.828   9.245 -0.5292 -0.0758 -0.4771
   47CHL1   H17 5909   6.752   3.879   9.270  0.0182 -0.8157 -1.0409
   47CHL1   C13 5910   6.603   3.771   9.380 -0.2830  0.5667  0.4155
   47CHL1   C18 5911   6.483   3.677   9.364 -0.3581  0.1707  0.1105
   47CHL1  H18A 5912   6.419   3.716   9.281 -1.4585 -0.4646  0.6534
   47CHL1  H18B 5913   6.512   3.579   9.320 -1.9258 -0.9331  1.4786
   47CHL1  H18C 5914   6.428   3.646   9.455 -0.2883 -1.2604 -0.3341
   47CHL1   C12 5915   6.713   3.700   9.464 -0.8529  0.5585  0.1879
   47CHL1  H12A 5916   6.741   3.597   9.433  0.2138  0.1633  2.3422
   47CHL1  H12B 5917   6.801   3.767   9.473 -0.3106 -0.0054 -0.8132
   47CHL1   C11 5918   6.664   3.683   9.611  0.1072  0.3082 -0.6863
   47CHL1  H11A 5919   6.581   3.609   9.611  1.2667 -1.0317  0.8886
   47CHL1  H11B 5920   6.754   3.647   9.665  1.0015  0.6888 -1.9130
   47CHL1    C9 5921   6.623   3.820   9.668  0.1761  0.2995 -0.6726
   47CHL1    H9 5922   6.707   3.892   9.665  0.0182  0.6123  1.5097
   47CHL1   C10 5923   6.590   3.811   9.814  0.2508  0.0465 -0.4497
   47CHL1   C19 5924   6.489   3.699   9.842  1.3941  0.8086  1.3747
   47CHL1  H19A 5925   6.533   3.600   9.816 -0.9643  0.7709 -2.7817
   47CHL1  H19B 5926   6.459   3.687   9.948 -2.7917 -2.2898 -0.0575
   47CHL1  H19C 5927   6.397   3.712   9.782  0.4680 -0.2777  2.5391
   47CHL1    C1 5928   6.719   3.794   9.896 -0.4233 -0.5798  0.2885
   47CHL1   H1A 5929   6.753   3.689   9.881  1.7469  0.0339  0.8477
   47CHL1   H1B 5930   6.800   3.859   9.856  0.6823 -0.0193  3.3192
   47CHL1    C2 5931   6.711   3.813  10.050  0.1386 -0.8764 -0.2595
   47CHL1   H2A 5932   6.810   3.804  10.099 -0.2065 -1.6624  0.2942
   47CHL1   H2B 5933   6.663   3.733  10.109  1.1111 -1.0613  0.2900
   47CHL1   C20 5934   6.685   3.726   9.124 -0.2132 -0.6663  0.7586
   47CHL1   H20 5935   6.591   3.669   9.111 -0.7053  0.1482  0.7291
   47CHL1   C21 5936   6.795   3.622   9.169 -0.7313 -0.0371  0.0454
   47CHL1  H21A 5937   6.832   3.571   9.077  0.3745 -0.4370  0.7046
   47CHL1  H21B 5938   6.759   3.538   9.232 -0.7923  0.8280  1.1788
   47CHL1  H21C 5939   6.885   3.672   9.210 -0.5892 -0.8322  0.7174
   47CHL1   C22 5940   6.724   3.785   8.980  0.2712  0.2458 -0.2704
   47CHL1  H22A 5941   6.741   3.698   8.913  5.2531  0.2252  0.8545
   47CHL1  H22B 5942   6.632   3.844   8.957 -1.1901 -0.8260  2.6561
   47CHL1   C23 5943   6.846   3.876   8.994 -0.1631  0.1013 -0.1315
   47CHL1  H23A 5944   6.840   3.954   9.073 -1.6048  0.4565 -0.5846
   47CHL1  H23B 5945   6.936   3.816   9.021 -0.1283 -0.5983 -1.7510
   47CHL1   C24 5946   6.876   3.931   8.861  0.2892 -0.3909  0.3554
   47CHL1  H24A 5947   6.910   3.846   8.798  1.0165 -0.3442  0.6764
   47CHL1  H24B 5948   6.784   3.974   8.817 -0.0014 -0.6750  0.6812
   47CHL1   C25 5949   6.980   4.050   8.862 -0.4722  0.5344 -0.0626
   47CHL1   H25 5950   6.948   4.124   8.938  1.1854 -0.3569  1.5825
   47CHL1   C26 5951   7.124   4.013   8.900 -0.0897 -0.1740  0.7344
   47CHL1  H26A 5952   7.193   4.100   8.903  2.0757 -1.6438 -2.4288
   47CHL1  H26B 5953   7.159   3.923   8.845 -1.5101  0.5159 -1.3710
   47CHL1  H26C 5954   7.126   3.985   9.007 -0.4977 -1.7103  0.3673
   47CHL1   C27 5955   6.976   4.128   8.725  0.1100  0.0785  0.1631
   47CHL1  H27A 5956   7.033   4.223   8.731 -0.8847  0.7928 -1.2343
   47CHL1  H27B 5957   7.016   4.072   8.638 -0.5845 -3.0013  1.7912
   47CHL1  H27C 5958   6.868   4.151   8.712 -0.2319 -1.0625  0.9796
   48CHL1    C3 5959   0.268   4.179  10.076 -0.1706 -0.1805 -0.5329
   48CHL1    H3 5960   0.200   4.266  10.091 -1.0027 -0.9730  0.3729
   48CHL1    O3 5961   0.289   4.133  10.208  0.6270  0.2503  0.8949
   48CHL1   H3' 5962   0.382   4.108  10.206  0.6996  0.5135 -3.6169
   48CHL1    C4 5963   0.205   4.065   9.997  0.0338 -0.0291  0.0878
   48CHL1   H4A 5964   0.278   3.982   9.990  1.9752  1.6023  0.7084
   48CHL1   H4B 5965   0.109   4.022  10.033  0.4078 -1.0964 -0.1625
   48CHL1    C5 5966   0.181   4.127   9.863  0.9164 -0.5436  0.4594
   48CHL1    C6 5967   0.050   4.128   9.810  0.0330 -0.0144  0.3716
   48CHL1    H6 5968  -0.033   4.074   9.858  0.2580 -2.2691 -1.7154
   48CHL1    C7 5969   0.019   4.184   9.672  0.1239 -0.2319  0.3891
   48CHL1   H7A 5970  -0.054   4.111   9.631  1.4308 -1.8870  0.9629
   48CHL1   H7B 5971  -0.040   4.277   9.685 -0.9772 -0.7340 -0.8976
   48CHL1    C8 5972   0.135   4.194   9.572  0.2401 -0.6082 -0.3749
   48CHL1    H8 5973   0.156   4.093   9.531 -0.5417 -0.7970 -0.3218
   48CHL1   C14 5974   0.100   4.286   9.456 -0.2336 -0.0084 -0.3542
   48CHL1   H14 5975   0.102   4.388   9.499  1.1047  0.3439 -1.2035
   48CHL1   C15 5976  -0.021   4.258   9.374  0.7330 -0.0950 -0.4819
   48CHL1  H15A 5977  -0.032   4.151   9.348  1.6528 -0.1807 -0.5256
   48CHL1  H15B 5978  -0.122   4.277   9.418  0.1076 -2.2017 -0.9458
   48CHL1   C16 5979  -0.004   4.336   9.245  0.4674 -0.0412 -0.6116
   48CHL1  H16A 5980   0.000   4.252   9.172  1.9115 -0.6529  0.1565
   48CHL1  H16B 5981  -0.076   4.415   9.217  0.2821 -0.1490 -0.4375
   48CHL1   C17 5982   0.138   4.386   9.245  0.3188 -0.6355  0.3747
   48CHL1   H17 5983   0.129   4.491   9.282  2.3967 -0.3889  0.2075
   48CHL1   C13 5984   0.214   4.299   9.352  0.2310 -0.0442 -0.0389
   48CHL1   C18 5985   0.242   4.154   9.292 -0.0021 -0.1110  0.2198
   48CHL1  H18A 5986   0.314   4.163   9.208 -0.3588  2.4115  0.1277
   48CHL1  H18B 5987   0.302   4.085   9.356 -1.7084 -0.9304  0.9522
   48CHL1  H18C 5988   0.151   4.103   9.254 -0.1595  1.0363 -0.9735
   48CHL1   C12 5989   0.328   4.369   9.425  0.0564 -0.5362  0.1649
   48CHL1  H12A 5990   0.418   4.381   9.361  1.9665  1.2658  3.1310
   48CHL1  H12B 5991   0.312   4.464   9.479  1.0658 -0.4802  0.3708
   48CHL1   C11 5992   0.375   4.284   9.544  0.3348  0.1544  0.7288
   48CHL1  H11A 5993   0.414   4.185   9.510 -0.4188 -0.5674  1.9310
   48CHL1  H11B 5994   0.462   4.336   9.592  1.3250  0.1337 -1.0046
   48CHL1    C9 5995   0.262   4.256   9.645 -0.2205  0.2368 -0.9259
   48CHL1    H9 5996   0.239   4.360   9.675 -0.1083  0.4483 -1.5725
   48CHL1   C10 5997   0.299   4.179   9.776 -0.0163 -0.2830 -0.1881
   48CHL1   C19 5998   0.396   4.064   9.735 -0.6352 -0.1043  0.3318
   48CHL1  H19A 5999   0.404   3.987   9.814 -0.5340 -1.2080 -0.7283
   48CHL1  H19B 6000   0.351   4.003   9.653  0.9631 -0.4183 -0.3310
   48CHL1  H19C 6001   0.501   4.095   9.720 -0.3962 -1.5440 -1.1807
   48CHL1    C1 6002   0.377   4.276   9.867 -0.3455  0.5377 -0.7916
   48CHL1   H1A 6003   0.463   4.316   9.810  0.1823 -0.9199 -1.0382
   48CHL1   H1B 6004   0.308   4.362   9.880 -0.8399  0.6418 -3.7446
   48CHL1    C2 6005   0.410   4.212  10.007  0.5736  0.0670  0.5220
   48CHL1   H2A 6006   0.456   4.299  10.057 -0.3501  0.3149  0.9325
   48CHL1   H2B 6007   0.470   4.118  10.012  1.1839  0.4444  0.3865
   48CHL1   C20 6008   0.201   4.399   9.104 -0.1541  0.3427 -0.3787
   48CHL1   H20 6009   0.213   4.299   9.057  2.8555  0.3265  0.3107
   48CHL1   C21 6010   0.343   4.461   9.109  0.3130 -0.3128  0.2241
   48CHL1  H21A 6011   0.374   4.495   9.008  0.7708  0.1710  0.5297
   48CHL1  H21B 6012   0.413   4.379   9.138 -0.4191 -0.3628  1.9112
   48CHL1  H21C 6013   0.347   4.551   9.173 -2.5665 -0.4226  0.6260
   48CHL1   C22 6014   0.116   4.483   9.000 -0.1139 -0.1439 -0.4342
   48CHL1  H22A 6015   0.178   4.464   8.909  2.1395  1.0921  0.8177
   48CHL1  H22B 6016   0.011   4.447   8.992  0.1743 -1.0640 -0.2463
   48CHL1   C23 6017   0.102   4.636   9.021  0.6562 -0.0319 -0.2277
   48CHL1  H23A 6018   0.045   4.652   9.115  0.5265 -4.0618  0.4763
   48CHL1  H23B 6019   0.197   4.694   9.027 -1.1490  2.8485  1.7274
   48CHL1   C24 6020   0.022   4.711   8.910  0.3348  1.2889 -0.2474
   48CHL1  H24A 6021   0.018   4.814   8.950 -2.5117  1.4348 -0.7602
   48CHL1  H24B 6022   0.075   4.701   8.813  0.0865 -3.1176 -0.0540
   48CHL1   C25 6023  -0.127   4.660   8.887  0.1528  0.2675 -0.2796
   48CHL1   H25 6024  -0.118   4.549   8.883 -0.0559  0.2258  0.3552
   48CHL1   C26 6025  -0.215   4.698   9.005  0.8365  0.1969  0.1069
   48CHL1  H26A 6026  -0.185   4.648   9.100 -0.9422 -1.1602 -0.0281
   48CHL1  H26B 6027  -0.207   4.807   9.026 -0.3573  0.4316 -0.6646
   48CHL1  H26C 6028  -0.322   4.675   8.987  0.7159  0.9595 -0.1705
   48CHL1   C27 6029  -0.185   4.720   8.758 -0.2596 -0.4900  0.0075
   48CHL1  H27A 6030  -0.291   4.696   8.737 -0.5593  1.4697 -0.8416
   48CHL1  H27B 6031  -0.187   4.830   8.775  1.0380 -0.6238  1.1265
   48CHL1  H27C 6032  -0.110   4.694   8.680 -3.2938  0.1922 -3.2047
   49CHL1    C3 6033   4.835   6.544  10.226  0.2972 -0.1371 -0.7376
   49CHL1    H3 6034   4.773   6.462  10.269 -0.7063  0.4851 -0.9606
   49CHL1    O3 6035   4.865   6.641  10.328 -0.0989 -0.4209  0.7319
   49CHL1   H3' 6036   4.793   6.703  10.344 -2.4483 -2.6900 -0.5716
   49CHL1    C4 6037   4.967   6.491  10.175 -0.0277  0.0164  0.4153
   49CHL1   H4A 6038   5.021   6.578  10.133 -0.7187  0.4590  0.4201
   49CHL1   H4B 6039   5.028   6.440  10.251 -0.3773 -0.1490  0.5876
   49CHL1    C5 6040   4.932   6.392  10.059 -0.7397 -0.9646  0.2442
   49CHL1    C6 6041   4.969   6.265  10.068  0.3785 -0.4621 -0.7510
   49CHL1    H6 6042   5.023   6.240  10.161  0.7628 -0.8712 -1.0820
   49CHL1    C7 6043   4.950   6.149   9.971  0.5318 -0.3396  0.2983
   49CHL1   H7A 6044   5.050   6.103   9.957  0.8155  0.3535  0.0380
   49CHL1   H7B 6045   4.891   6.066  10.016  1.3536 -2.0503 -1.6454
   49CHL1    C8 6046   4.897   6.207   9.834  0.1423 -0.2814  0.0366
   49CHL1    H8 6047   4.983   6.244   9.775 -0.1486 -1.1556 -0.9436
   49CHL1   C14 6048   4.831   6.103   9.755  0.4183  0.7721  0.4792
   49CHL1   H14 6049   4.738   6.076   9.809 -0.2423 -1.0546 -1.5327
   49CHL1   C15 6050   4.895   5.962   9.753 -0.1069  0.9031  0.0706
   49CHL1  H15A 6051   5.004   5.961   9.734  0.3037 -2.7250  2.2238
   49CHL1  H15B 6052   4.868   5.898   9.839 -0.6965  0.2184 -0.6097
   49CHL1   C16 6053   4.822   5.895   9.632  0.1130 -0.0288 -0.3094
   49CHL1  H16A 6054   4.898   5.859   9.559  1.2618 -2.3788  1.9931
   49CHL1  H16B 6055   4.769   5.804   9.667  0.0952  0.5048  1.0707
   49CHL1   C17 6056   4.732   6.007   9.566  0.3982 -0.2528 -0.7024
   49CHL1   H17 6057   4.631   5.995   9.612 -0.0302  2.4719 -0.8523
   49CHL1   C13 6058   4.785   6.144   9.612 -0.1641 -0.0404  0.5553
   49CHL1   C18 6059   4.908   6.189   9.522  0.1146  0.2796  0.2378
   49CHL1  H18A 6060   4.951   6.285   9.559 -2.7248  1.5278  0.4355
   49CHL1  H18B 6061   4.981   6.107   9.511 -0.4935 -0.2650  0.1963
   49CHL1  H18C 6062   4.874   6.221   9.421 -2.9533  1.3318  1.5343
   49CHL1   C12 6063   4.678   6.257   9.625  0.1823  0.5407  0.5205
   49CHL1  H12A 6064   4.644   6.302   9.530  0.1058 -0.7079 -0.0518
   49CHL1  H12B 6065   4.589   6.211   9.674  0.5439 -1.2312 -0.4340
   49CHL1   C11 6066   4.728   6.370   9.717  1.5207 -0.2752  0.5735
   49CHL1  H11A 6067   4.799   6.439   9.665 -0.9631  1.1126 -1.0908
   49CHL1  H11B 6068   4.635   6.428   9.735  1.2605  0.0477 -1.5710
   49CHL1    C9 6069   4.794   6.322   9.858  0.3896 -0.2303 -0.3941
   49CHL1    H9 6070   4.713   6.264   9.907  0.5432  0.6418  0.9000
   49CHL1   C10 6071   4.840   6.441   9.949  0.4575  0.9885 -0.2694
   49CHL1   C19 6072   4.935   6.537   9.865  0.8150 -0.2963  0.8851
   49CHL1  H19A 6073   4.876   6.589   9.787  1.6511 -0.6779 -0.0074
   49CHL1  H19B 6074   4.983   6.612   9.932  2.3073 -0.8971  0.5230
   49CHL1  H19C 6075   5.015   6.476   9.818 -1.7012 -0.7095 -3.1024
   49CHL1    C1 6076   4.716   6.519  10.008  0.4573 -0.0736 -0.0179
   49CHL1   H1A 6077   4.655   6.557   9.923  0.6271 -0.6045 -0.3767
   49CHL1   H1B 6078   4.657   6.442  10.062  0.3665 -0.1968 -0.2926
   49CHL1    C2 6079   4.755   6.620  10.116 -0.0678  0.4340 -0.4367
   49CHL1   H2A 6080   4.662   6.664  10.160 -0.3556 -0.8646  0.2873
   49CHL1   H2B 6081   4.827   6.694  10.076  1.8866 -0.6850  0.9154
   49CHL1   C20 6082   4.711   5.995   9.413 -1.0220 -0.4683  0.1564
   49CHL1   H20 6083   4.794   6.029   9.348 -1.1791  0.4522  0.4226
   49CHL1   C21 6084   4.589   6.082   9.370 -0.7151  0.5940  0.1659
   49CHL1  H21A 6085   4.503   6.071   9.439 -0.9578 -0.6530 -0.3258
   49CHL1  H21B 6086   4.551   6.065   9.267 -2.0601  3.7962  0.0881
   49CHL1  H21C 6087   4.620   6.188   9.360  0.0039  0.2077 -1.9014
   49CHL1   C22 6088   4.681   5.844   9.368  0.3298  0.7291 -0.4228
   49CHL1  H22A 6089   4.763   5.777   9.400  0.2078  0.4029 -0.7905
   49CHL1  H22B 6090   4.589   5.821   9.426  0.6380  0.2825 -0.1079
   49CHL1   C23 6091   4.664   5.824   9.218  0.4359  0.3900  0.1074
   49CHL1  H23A 6092   4.577   5.877   9.173  0.6032  0.9361  0.4163
   49CHL1  H23B 6093   4.753   5.870   9.169  0.4629  0.2763  0.0496
   49CHL1   C24 6094   4.662   5.674   9.172  0.3136  0.6029  0.3721
   49CHL1  H24A 6095   4.760   5.638   9.209 -1.1769 -0.2968  3.6667
   49CHL1  H24B 6096   4.574   5.619   9.213  0.0810  1.0066  0.4171
   49CHL1   C25 6097   4.664   5.654   9.024  0.0154  0.5445  0.5540
   49CHL1   H25 6098   4.765   5.689   8.992  0.6827 -1.0810  0.8440
   49CHL1   C26 6099   4.660   5.505   8.989 -0.3287  0.1312 -0.1678
   49CHL1  H26A 6100   4.741   5.449   9.039  0.9815  1.7075 -0.4624
   49CHL1  H26B 6101   4.566   5.460   9.026 -0.5774  1.6107  1.0657
   49CHL1  H26C 6102   4.667   5.493   8.879  2.8654 -0.1404  0.0020
   49CHL1   C27 6103   4.556   5.722   8.943  0.2343  0.5207  0.2887
   49CHL1  H27A 6104   4.457   5.714   8.992  0.0724  2.0940  0.2484
   49CHL1  H27B 6105   4.578   5.829   8.919  1.3827  0.2211 -0.0531
   49CHL1  H27C 6106   4.562   5.670   8.845  2.0242  1.0117  0.1158
   50CHL1    C3 6107   1.965   0.893  10.035  0.4507 -0.0738  0.5362
   50CHL1    H3 6108   2.063   0.859   9.995  1.1809  1.9229  0.5459
   50CHL1    O3 6109   1.973   0.972  10.154 -0.7501 -0.3164  0.1906
   50CHL1   H3' 6110   2.043   0.930  10.204  0.5059  2.3306  0.7472
   50CHL1    C4 6111   1.884   0.955   9.923 -0.1463 -0.2297 -0.2310
   50CHL1   H4A 6112   1.788   1.001   9.955  0.2052  0.9248 -0.7996
   50CHL1   H4B 6113   1.954   1.037   9.897 -0.5230  0.2965  0.3875
   50CHL1    C5 6114   1.838   0.859   9.814  0.5395  0.2268 -0.0574
   50CHL1    C6 6115   1.847   0.901   9.690  0.1520  0.1881  0.6493
   50CHL1    H6 6116   1.885   1.002   9.671  2.0777 -0.1783  2.4103
   50CHL1    C7 6117   1.793   0.818   9.577 -0.1686 -0.1091  1.3818
   50CHL1   H7A 6118   1.750   0.885   9.500  0.3360 -1.5134 -0.1467
   50CHL1   H7B 6119   1.878   0.776   9.518 -0.9861  1.3275 -0.8671
   50CHL1    C8 6120   1.693   0.702   9.622  0.0216 -0.4025 -0.6650
   50CHL1    H8 6121   1.601   0.759   9.647 -0.2737 -1.4850  0.7971
   50CHL1   C14 6122   1.668   0.608   9.508  0.4379 -0.3386  0.6205
   50CHL1   H14 6123   1.771   0.570   9.493  0.5527  0.8242 -1.8831
   50CHL1   C15 6124   1.624   0.664   9.372  0.7312  0.3293 -0.2850
   50CHL1  H15A 6125   1.533   0.725   9.393  0.1746  0.2355 -2.2975
   50CHL1  H15B 6126   1.696   0.727   9.316 -1.2740  3.9749  1.0611
   50CHL1   C16 6127   1.585   0.538   9.292 -0.7059  0.3794 -0.0378
   50CHL1  H16A 6128   1.484   0.559   9.252 -0.6972  1.7896  0.6699
   50CHL1  H16B 6129   1.651   0.517   9.205 -0.8635  3.6301 -1.0184
   50CHL1   C17 6130   1.588   0.428   9.398 -0.3580 -0.3267  0.2943
   50CHL1   H17 6131   1.682   0.369   9.402 -0.0101 -0.1803 -3.7884
   50CHL1   C13 6132   1.577   0.496   9.535 -0.2503 -0.1152 -0.2681
   50CHL1   C18 6133   1.439   0.539   9.570  0.1379  0.4201  0.3179
   50CHL1  H18A 6134   1.387   0.448   9.607  0.1152  0.2841 -0.0511
   50CHL1  H18B 6135   1.431   0.609   9.657 -2.2032 -0.9520  1.2449
   50CHL1  H18C 6136   1.385   0.571   9.479  1.3020 -1.0938 -0.9350
   50CHL1   C12 6137   1.638   0.415   9.649 -0.2472 -0.5007 -0.1148
   50CHL1  H12A 6138   1.561   0.337   9.668 -0.2801 -0.2291  0.8688
   50CHL1  H12B 6139   1.731   0.368   9.610 -1.1781 -2.0081 -0.5731
   50CHL1   C11 6140   1.666   0.499   9.776  0.4822  0.0571 -0.8845
   50CHL1  H11A 6141   1.573   0.524   9.831  1.4298 -0.9189  1.1953
   50CHL1  H11B 6142   1.723   0.435   9.847 -2.1651 -0.6350  0.7023
   50CHL1    C9 6143   1.743   0.624   9.742 -0.0435  0.1788  0.2681
   50CHL1    H9 6144   1.843   0.597   9.703  0.8686  0.4702  2.3488
   50CHL1   C10 6145   1.769   0.725   9.859  0.0800  0.0967  0.0120
   50CHL1   C19 6146   1.634   0.753   9.934  0.3380  0.4579  0.1950
   50CHL1  H19A 6147   1.583   0.664   9.977 -1.0949 -0.8073 -3.9064
   50CHL1  H19B 6148   1.648   0.829  10.013 -1.5086 -1.5958  2.6009
   50CHL1  H19C 6149   1.561   0.789   9.859  0.5260 -0.5386 -0.4751
   50CHL1    C1 6150   1.868   0.661   9.964 -0.2922 -0.0240  0.4713
   50CHL1   H1A 6151   1.824   0.564   9.993 -2.6188  0.5115 -1.1354
   50CHL1   H1B 6152   1.963   0.651   9.907  1.0149  0.6031  2.4418
   50CHL1    C2 6153   1.903   0.755  10.075  0.5219  0.0652  0.0412
   50CHL1   H2A 6154   1.976   0.706  10.143  0.6902 -0.5756 -0.5994
   50CHL1   H2B 6155   1.814   0.770  10.140  0.4822  1.1254 -0.2513
   50CHL1   C20 6156   1.488   0.310   9.376  0.3405 -0.3207 -0.2851
   50CHL1   H20 6157   1.479   0.255   9.472 -0.5006  0.3868  0.0468
   50CHL1   C21 6158   1.556   0.218   9.278 -0.2158  0.0114 -0.3804
   50CHL1  H21A 6159   1.490   0.141   9.234  0.2789  0.1693 -1.4098
   50CHL1  H21B 6160   1.638   0.159   9.325 -0.9907  1.3271  2.7438
   50CHL1  H21C 6161   1.597   0.269   9.188 -1.6119 -0.7627 -1.4604
   50CHL1   C22 6162   1.347   0.349   9.317 -0.3911  0.2974 -0.4477
   50CHL1  H22A 6163   1.293   0.428   9.374 -1.1518 -0.0981 -0.6092
   50CHL1  H22B 6164   1.348   0.386   9.212 -0.7828  0.8863 -0.2429
   50CHL1   C23 6165   1.248   0.227   9.320 -0.6243  0.3853  0.1055
   50CHL1  H23A 6166   1.286   0.146   9.253 -0.2627  0.6799 -0.0438
   50CHL1  H23B 6167   1.237   0.203   9.428  1.6645  0.6797  0.4324
   50CHL1   C24 6168   1.111   0.265   9.254  0.0097  0.1089  0.0936
   50CHL1  H24A 6169   1.070   0.346   9.319 -2.9899 -0.8859 -0.4978
   50CHL1  H24B 6170   1.135   0.293   9.150 -0.7180 -0.7113 -0.2979
   50CHL1   C25 6171   0.993   0.160   9.244 -0.2414  0.0114 -0.4906
   50CHL1   H25 6172   0.977   0.113   9.343  1.5168  1.9271  0.7507
   50CHL1   C26 6173   0.857   0.223   9.204 -0.4487  0.8472  0.0316
   50CHL1  H26A 6174   0.790   0.135   9.191  1.6551 -1.0625  1.5660
   50CHL1  H26B 6175   0.813   0.295   9.276 -1.2989 -0.5656  0.9459
   50CHL1  H26C 6176   0.871   0.272   9.106 -2.5102 -0.1218 -0.7689
   50CHL1   C27 6177   1.033   0.054   9.137 -0.0245 -0.2258  0.4088
   50CHL1  H27A 6178   0.953  -0.023   9.129  0.5244 -0.6809 -0.9799
   50CHL1  H27B 6179   1.041   0.102   9.037  0.2908  0.0977  0.5896
   50CHL1  H27C 6180   1.132   0.005   9.147 -0.7284 -1.8506 -0.3513
   51CHL1    C3 6181   2.972   3.886  10.169 -0.6774  0.4259  0.4176
   51CHL1    H3 6182   2.911   3.799  10.138 -1.4907  1.0960  0.1181
   51CHL1    O3 6183   2.956   3.925  10.305 -0.3495 -0.3759  0.1142
   51CHL1   H3' 6184   2.866   3.955  10.320  0.2402  2.2041 -1.2136
   51CHL1    C4 6185   3.116   3.841  10.148  0.0773 -0.4037  0.2734
   51CHL1   H4A 6186   3.183   3.927  10.172 -0.9934  0.9024 -1.3301
   51CHL1   H4B 6187   3.149   3.759  10.216 -0.9897 -2.0756 -1.1756
   51CHL1    C5 6188   3.133   3.803  10.002  0.3132  0.0234  0.5370
   51CHL1    C6 6189   3.161   3.677   9.973  0.4457  0.3611 -0.4398
   51CHL1    H6 6190   3.183   3.607  10.055 -1.5990 -0.2130 -0.3654
   51CHL1    C7 6191   3.183   3.625   9.833  0.4435  0.0019 -0.1244
   51CHL1   H7A 6192   3.279   3.569   9.836  0.2041 -0.3417  3.4727
   51CHL1   H7B 6193   3.096   3.563   9.802 -0.7985  0.1972  2.8318
   51CHL1    C8 6194   3.204   3.749   9.735  0.7718 -0.1495 -1.2671
   51CHL1    H8 6195   3.303   3.796   9.754  0.1400  0.6163  0.1783
   51CHL1   C14 6196   3.189   3.697   9.589  0.2160  0.1594 -0.3213
   51CHL1   H14 6197   3.086   3.657   9.594  0.8257 -1.3853  0.1942
   51CHL1   C15 6198   3.298   3.594   9.550  0.3898 -0.7321 -1.0121
   51CHL1  H15A 6199   3.395   3.640   9.576 -0.5029  0.6831 -0.1388
   51CHL1  H15B 6200   3.291   3.495   9.600 -1.1472 -0.6697 -1.0904
   51CHL1   C16 6201   3.272   3.584   9.404 -0.1717  0.2881 -0.1248
   51CHL1  H16A 6202   3.373   3.591   9.358  0.6390 -2.5039  1.1094
   51CHL1  H16B 6203   3.205   3.500   9.374  0.2053 -0.3989  0.9475
   51CHL1   C17 6204   3.183   3.708   9.358 -0.2988  0.4842 -0.3615
   51CHL1   H17 6205   3.079   3.673   9.339 -0.5685  0.6752  0.7478
   51CHL1   C13 6206   3.190   3.798   9.483  0.2229  0.2092 -0.4215
   51CHL1   C18 6207   3.317   3.883   9.482 -0.3353  0.1591  1.0034
   51CHL1  H18A 6208   3.410   3.832   9.449 -0.0256  0.8726  0.7577
   51CHL1  H18B 6209   3.301   3.972   9.417 -1.1982 -0.9277 -0.3084
   51CHL1  H18C 6210   3.344   3.928   9.580  0.2600  1.6795  0.1660
   51CHL1   C12 6211   3.071   3.889   9.510  1.3845  1.1343  0.6192
   51CHL1  H12A 6212   3.066   3.968   9.432  1.6477 -0.0819 -0.6403
   51CHL1  H12B 6213   2.985   3.819   9.504  2.8053 -0.7677  1.8639
   51CHL1   C11 6214   3.070   3.951   9.649 -0.5401  0.2414 -0.2983
   51CHL1  H11A 6215   3.150   4.028   9.652  0.7651 -1.1537  1.1334
   51CHL1  H11B 6216   2.980   4.016   9.658  0.4486  1.7983 -1.2604
   51CHL1    C9 6217   3.095   3.853   9.758  0.1249  0.2862 -0.0873
   51CHL1    H9 6218   2.999   3.797   9.749 -0.3490  0.9315  0.9096
   51CHL1   C10 6219   3.109   3.914   9.900 -0.3375 -0.8168  0.2615
   51CHL1   C19 6220   3.228   4.008   9.910  0.4117 -0.1302  0.3098
   51CHL1  H19A 6221   3.221   4.075   9.822 -1.9007 -0.0807  0.5048
   51CHL1  H19B 6222   3.230   4.067  10.004 -0.0545  1.3559 -0.5876
   51CHL1  H19C 6223   3.322   3.951   9.895 -1.1689 -3.3355  2.1801
   51CHL1    C1 6224   2.981   3.988   9.933  0.7231 -1.0900 -0.5198
   51CHL1   H1A 6225   2.977   4.092   9.895 -1.4950 -0.7027  0.7190
   51CHL1   H1B 6226   2.893   3.933   9.892 -0.0864  0.9579 -1.6052
   51CHL1    C2 6227   2.951   4.012  10.084  0.0706 -0.5375 -0.1845
   51CHL1   H2A 6228   2.847   4.046  10.101 -0.4793 -1.2866 -2.0024
   51CHL1   H2B 6229   3.024   4.088  10.121 -1.3182  1.2440 -1.0373
   51CHL1   C20 6230   3.227   3.756   9.224 -0.1616 -0.8140  0.3969
   51CHL1   H20 6231   3.319   3.817   9.236  0.4260 -1.5452 -0.3715
   51CHL1   C21 6232   3.115   3.852   9.175 -0.1367  0.0328  0.2740
   51CHL1  H21A 6233   3.133   3.881   9.069  1.7777 -1.1960  0.2415
   51CHL1  H21B 6234   3.106   3.949   9.228 -0.2389 -0.5835  1.4034
   51CHL1  H21C 6235   3.015   3.803   9.168  0.5291 -1.0489 -2.0506
   51CHL1   C22 6236   3.250   3.639   9.116  0.1642  0.3074  0.3795
   51CHL1  H22A 6237   3.306   3.684   9.031  0.3540 -0.4261  0.1146
   51CHL1  H22B 6238   3.326   3.565   9.150  1.3880  1.1071 -0.5469
   51CHL1   C23 6239   3.121   3.573   9.067 -0.2890 -0.5810 -0.7272
   51CHL1  H23A 6240   3.069   3.534   9.157  0.0801 -0.9640 -0.6741
   51CHL1  H23B 6241   3.057   3.644   9.010 -0.2484  0.5534  0.6044
   51CHL1   C24 6242   3.158   3.457   8.980 -0.8310 -0.4098  0.4089
   51CHL1  H24A 6243   3.228   3.495   8.902  0.1790 -2.2243  0.3977
   51CHL1  H24B 6244   3.229   3.391   9.035  2.5478  2.4919 -0.2478
   51CHL1   C25 6245   3.040   3.368   8.921  0.0065 -0.2907 -0.3070
   51CHL1   H25 6246   3.083   3.299   8.846  2.3829 -0.7232  1.4001
   51CHL1   C26 6247   2.967   3.279   9.020 -0.0950 -0.6832  0.0121
   51CHL1  H26A 6248   2.873   3.232   8.986 -0.0423 -1.5793  1.0730
   51CHL1  H26B 6249   3.035   3.208   9.071  0.8740 -0.7575 -1.3548
   51CHL1  H26C 6250   2.926   3.340   9.104  0.7192  1.9343 -1.4182
   51CHL1   C27 6251   2.933   3.446   8.841 -0.4926  0.0780  0.2329
   51CHL1  H27A 6252   2.852   3.475   8.911  0.6420 -0.4073  1.7702
   51CHL1  H27B 6253   2.981   3.533   8.792  2.0436 -1.1301  0.4715
   51CHL1  H27C 6254   2.889   3.379   8.764 -0.1165  1.1161 -0.8982
   52CHL1    C3 6255   6.575   3.399  10.074 -0.2183  0.1342  0.7688
   52CHL1    H3 6256   6.567   3.505  10.045 -0.7219 -0.2769 -0.6087
   52CHL1    O3 6257   6.588   3.409  10.221 -0.1108 -0.1013  0.4349
   52CHL1   H3' 6258   6.665   3.461  10.245  1.0137 -0.1725 -2.7394
   52CHL1    C4 6259   6.456   3.316  10.029 -0.1454  1.0136  1.1095
   52CHL1   H4A 6260   6.454   3.213  10.071 -0.2177  0.0948 -1.0398
   52CHL1   H4B 6261   6.365   3.352  10.082 -2.3371 -2.0951 -0.3742
   52CHL1    C5 6262   6.439   3.309   9.881 -0.5432 -0.1328  0.7803
   52CHL1    C6 6263   6.324   3.346   9.815 -0.1188 -0.0048 -0.0414
   52CHL1    H6 6264   6.237   3.384   9.870 -1.4528 -1.6083 -0.9952
   52CHL1    C7 6265   6.299   3.337   9.665  0.6287  0.9794  0.4088
   52CHL1   H7A 6266   6.200   3.286   9.660  0.0691  1.9734  1.0991
   52CHL1   H7B 6267   6.273   3.437   9.624  0.6150  0.1620 -1.6492
   52CHL1    C8 6268   6.402   3.254   9.591  0.4644  1.2465  0.0120
   52CHL1    H8 6269   6.379   3.146   9.605 -1.9383  1.6743 -0.4289
   52CHL1   C14 6270   6.403   3.291   9.444  0.7014  0.3042 -1.0427
   52CHL1   H14 6271   6.419   3.401   9.445 -0.4053  0.4760 -0.8034
   52CHL1   C15 6272   6.259   3.277   9.370  0.5568  0.5150 -0.0850
   52CHL1  H15A 6273   6.221   3.175   9.389  0.7476  0.8933  2.5350
   52CHL1  H15B 6274   6.194   3.355   9.415  3.4034  1.5465  2.4520
   52CHL1   C16 6275   6.289   3.276   9.220 -0.6212 -0.2625  0.3947
   52CHL1  H16A 6276   6.268   3.175   9.178  0.3044  0.2282 -1.3083
   52CHL1  H16B 6277   6.246   3.365   9.171  2.4268  0.6902 -0.7211
   52CHL1   C17 6278   6.450   3.286   9.218  1.1977 -0.4104  0.4921
   52CHL1   H17 6279   6.462   3.397   9.226  1.7876 -0.4939  0.7410
   52CHL1   C13 6280   6.510   3.235   9.353 -0.2161 -0.0174 -0.1495
   52CHL1   C18 6281   6.490   3.083   9.353 -0.2411  0.5356  0.2664
   52CHL1  H18A 6282   6.387   3.062   9.315  0.1770  0.3449 -0.7960
   52CHL1  H18B 6283   6.571   3.030   9.298 -3.4813 -2.6119 -1.7418
   52CHL1  H18C 6284   6.500   3.044   9.456  2.0871  1.1542  0.2994
   52CHL1   C12 6285   6.651   3.276   9.410  0.0575  0.3859 -0.3387
   52CHL1  H12A 6286   6.731   3.227   9.350 -1.0145 -1.5519 -0.2391
   52CHL1  H12B 6287   6.678   3.384   9.407  0.9134  0.1248 -3.2453
   52CHL1   C11 6288   6.656   3.232   9.566 -0.1634 -0.2819  0.4377
   52CHL1  H11A 6289   6.661   3.122   9.558 -0.0234 -0.1785 -1.0524
   52CHL1  H11B 6290   6.747   3.279   9.608 -1.4093  2.0000  0.6983
   52CHL1    C9 6291   6.540   3.290   9.649  0.4127 -0.4786  0.5996
   52CHL1    H9 6292   6.547   3.401   9.649  1.1705 -0.4820 -2.6562
   52CHL1   C10 6293   6.558   3.265   9.804 -0.3797 -0.3139 -0.4967
   52CHL1   C19 6294   6.577   3.108   9.829  0.6587 -0.4766 -0.1066
   52CHL1  H19A 6295   6.583   3.074   9.934  0.0708 -0.6850 -0.1377
   52CHL1  H19B 6296   6.491   3.052   9.786  0.3740 -0.5361  0.5349
   52CHL1  H19C 6297   6.675   3.082   9.783 -0.1914 -1.1002 -1.6114
   52CHL1    C1 6298   6.681   3.345   9.858 -0.1883  0.3851 -0.0032
   52CHL1   H1A 6299   6.775   3.305   9.815  0.7959  0.6195  1.8816
   52CHL1   H1B 6300   6.663   3.452   9.836 -0.9135 -0.2433 -2.5443
   52CHL1    C2 6301   6.694   3.336  10.011  0.7849  0.0903 -0.1943
   52CHL1   H2A 6302   6.786   3.393  10.034  1.7709 -1.1794 -0.8831
   52CHL1   H2B 6303   6.701   3.231  10.048 -0.1924  0.6908  1.7344
   52CHL1   C20 6304   6.514   3.245   9.088  0.3935 -0.8661  0.6268
   52CHL1   H20 6305   6.517   3.134   9.093 -3.2421 -0.9619  2.3783
   52CHL1   C21 6306   6.659   3.306   9.072  0.5514  0.1156  0.1222
   52CHL1  H21A 6307   6.656   3.417   9.064 -0.0877 -0.0140 -1.7719
   52CHL1  H21B 6308   6.704   3.272   8.977 -1.9532  4.3230 -2.7272
   52CHL1  H21C 6309   6.727   3.274   9.154  1.7010 -0.5196 -1.0714
   52CHL1   C22 6310   6.434   3.286   8.960 -0.1981 -0.4392  0.4148
   52CHL1  H22A 6311   6.500   3.258   8.876 -0.8406  3.7016 -1.6109
   52CHL1  H22B 6312   6.340   3.226   8.960 -0.2395 -0.4317  2.4215
   52CHL1   C23 6313   6.398   3.432   8.936 -0.5043 -0.4929 -0.0152
   52CHL1  H23A 6314   6.361   3.491   9.022 -2.1207 -1.1137 -0.2760
   52CHL1  H23B 6315   6.492   3.476   8.896 -0.8646 -2.4001 -3.1070
   52CHL1   C24 6316   6.293   3.434   8.819 -0.1500  0.3993  0.7799
   52CHL1  H24A 6317   6.292   3.344   8.753 -1.9063  0.4672  0.6852
   52CHL1  H24B 6318   6.202   3.424   8.882  1.0521  2.2467  2.8673
   52CHL1   C25 6319   6.285   3.562   8.732 -0.8223  0.2443  0.2444
   52CHL1   H25 6320   6.297   3.651   8.798 -0.0907  0.3637 -0.0495
   52CHL1   C26 6321   6.401   3.566   8.639  0.2589  0.0306  0.0986
   52CHL1  H26A 6322   6.495   3.598   8.690 -1.5677  1.0141  2.9700
   52CHL1  H26B 6323   6.404   3.479   8.569  0.9415  0.5205 -0.4917
   52CHL1  H26C 6324   6.386   3.658   8.580  0.0239  0.0465  0.1860
   52CHL1   C27 6325   6.156   3.582   8.649  1.5614  0.0532 -0.1025
   52CHL1  H27A 6326   6.064   3.592   8.711 -0.1417 -1.4874 -2.2952
   52CHL1  H27B 6327   6.163   3.665   8.575 -0.6906 -0.3199 -0.7919
   52CHL1  H27C 6328   6.144   3.481   8.604  0.2567  0.0769  0.1702
   53CHL1    C3 6329   0.867   2.846  10.211  0.0827 -0.0178  0.8387
   53CHL1    H3 6330   0.789   2.922  10.233 -0.1303 -0.1991  0.7103
   53CHL1    O3 6331   0.933   2.827  10.335 -0.0154 -0.0563  0.1653
   53CHL1   H3' 6332   0.969   2.739  10.327 -0.4104 -0.5095  2.8620
   53CHL1    C4 6333   0.786   2.721  10.172 -0.3252  0.1038  0.0361
   53CHL1   H4A 6334   0.857   2.636  10.182  0.5559  0.9198  0.8570
   53CHL1   H4B 6335   0.709   2.705  10.250  0.9822  0.8157  1.5243
   53CHL1    C5 6336   0.724   2.728  10.030 -0.9729 -0.4066 -0.0481
   53CHL1    C6 6337   0.590   2.711  10.012 -0.0133  0.4728 -0.1433
   53CHL1    H6 6338   0.536   2.680  10.102 -0.2566 -0.0748 -0.4750
   53CHL1    C7 6339   0.529   2.715   9.872 -0.7891  0.3124  0.2427
   53CHL1   H7A 6340   0.462   2.627   9.859 -0.8164  0.4711 -0.7711
   53CHL1   H7B 6341   0.477   2.813   9.866  0.0038  0.7388  0.4357
   53CHL1    C8 6342   0.630   2.706   9.751  0.4655  0.1004 -0.0597
   53CHL1    H8 6343   0.675   2.605   9.753  0.4667  0.0819 -0.6951
   53CHL1   C14 6344   0.574   2.738   9.613  0.2516 -0.5710 -0.4984
   53CHL1   H14 6345   0.524   2.837   9.621 -0.3896 -1.1074  2.6863
   53CHL1   C15 6346   0.465   2.639   9.577 -0.1851 -0.3361  0.0216
   53CHL1  H15A 6347   0.483   2.534   9.607  0.0119  0.2040  1.8450
   53CHL1  H15B 6348   0.371   2.670   9.627 -0.5618 -1.2320 -0.1229
   53CHL1   C16 6349   0.454   2.662   9.419  0.3090  0.6741  0.0945
   53CHL1  H16A 6350   0.443   2.571   9.357 -0.3715  1.3749 -0.8372
   53CHL1  H16B 6351   0.364   2.726   9.406 -0.8153 -0.6880  1.1473
   53CHL1   C17 6352   0.584   2.743   9.380  0.0776 -0.1530  1.1821
   53CHL1   H17 6353   0.562   2.852   9.379  0.6320 -0.0162 -2.5092
   53CHL1   C13 6354   0.677   2.735   9.500 -0.3545 -0.0394  0.0795
   53CHL1   C18 6355   0.742   2.593   9.491 -0.0455  0.6129  0.0121
   53CHL1  H18A 6356   0.825   2.586   9.417 -2.0696 -0.1053 -2.2459
   53CHL1  H18B 6357   0.776   2.572   9.595  0.1695 -0.7272 -0.3233
   53CHL1  H18C 6358   0.672   2.508   9.478  1.3930 -0.8061  1.3325
   53CHL1   C12 6359   0.778   2.843   9.534 -0.2106  0.2554  0.2103
   53CHL1  H12A 6360   0.842   2.857   9.444 -0.5999 -0.0817 -0.1202
   53CHL1  H12B 6361   0.730   2.942   9.549  0.5219  0.6632 -0.0844
   53CHL1   C11 6362   0.853   2.824   9.662  0.8200  0.1110 -1.0020
   53CHL1  H11A 6363   0.927   2.743   9.645  2.4779  1.4002 -0.0646
   53CHL1  H11B 6364   0.918   2.913   9.672  1.0125 -0.1116 -0.2330
   53CHL1    C9 6365   0.754   2.802   9.780  0.5313  0.0776  0.2041
   53CHL1    H9 6366   0.704   2.899   9.801 -1.0728 -0.4637 -1.0124
   53CHL1   C10 6367   0.820   2.770   9.919  0.1693 -0.5485  0.6214
   53CHL1   C19 6368   0.925   2.655   9.897  0.3628 -0.7383 -0.5288
   53CHL1  H19A 6369   1.005   2.694   9.830 -0.3348 -1.1246 -1.6086
   53CHL1  H19B 6370   0.973   2.621   9.991 -0.5627 -1.2826 -0.2478
   53CHL1  H19C 6371   0.883   2.574   9.834 -0.1712 -0.9008  0.0317
   53CHL1    C1 6372   0.891   2.907   9.970 -0.1851  0.1547 -0.2034
   53CHL1   H1A 6373   0.968   2.937   9.896 -0.8842  0.8011 -0.6702
   53CHL1   H1B 6374   0.815   2.987   9.976 -0.3332  0.0669 -0.8404
   53CHL1    C2 6375   0.966   2.896  10.100  0.1813 -0.3092  0.3213
   53CHL1   H2A 6376   1.017   2.991  10.125 -0.4240 -0.4881  2.3823
   53CHL1   H2B 6377   1.043   2.819  10.082  0.5684  0.3470 -0.8582
   53CHL1   C20 6378   0.641   2.710   9.242  0.4234  0.2409 -0.1442
   53CHL1   H20 6379   0.660   2.601   9.237 -2.2184 -0.2389 -0.3021
   53CHL1   C21 6380   0.773   2.790   9.219 -0.5311  0.9192  0.1091
   53CHL1  H21A 6381   0.848   2.739   9.284 -0.1935 -0.4353 -1.2991
   53CHL1  H21B 6382   0.762   2.896   9.248 -1.9599  1.1327 -1.2040
   53CHL1  H21C 6383   0.805   2.781   9.113 -2.1665 -2.5587 -0.1827
   53CHL1   C22 6384   0.543   2.737   9.124 -0.5737 -0.2230 -0.3041
   53CHL1  H22A 6385   0.472   2.820   9.145 -0.6535 -0.4156  0.1935
   53CHL1  H22B 6386   0.601   2.783   9.041  1.4976 -0.0686  1.2054
   53CHL1   C23 6387   0.450   2.620   9.078  0.4198 -0.3569  0.1296
   53CHL1  H23A 6388   0.512   2.537   9.038  2.5802  0.9064  0.7765
   53CHL1  H23B 6389   0.386   2.579   9.159  3.3282 -1.3651  2.0148
   53CHL1   C24 6390   0.347   2.670   8.963 -0.1127  0.5393  0.5897
   53CHL1  H24A 6391   0.294   2.751   9.017 -1.6152  0.7730 -1.1865
   53CHL1  H24B 6392   0.415   2.704   8.881 -0.4726 -0.2260 -0.0323
   53CHL1   C25 6393   0.253   2.565   8.900 -0.4425  0.7533 -0.9764
   53CHL1   H25 6394   0.178   2.529   8.973  1.5797 -2.2031 -0.3163
   53CHL1   C26 6395   0.173   2.626   8.784 -0.3910  0.4719  0.3808
   53CHL1  H26A 6396   0.234   2.686   8.713 -1.8595  1.3915 -0.1467
   53CHL1  H26B 6397   0.114   2.550   8.729  1.5601 -0.9154  0.1905
   53CHL1  H26C 6398   0.095   2.695   8.824  3.1396  2.6667  3.8017
   53CHL1   C27 6399   0.324   2.439   8.846  0.1812 -0.3687  0.4686
   53CHL1  H27A 6400   0.360   2.455   8.742  1.4972  0.5856  1.0525
   53CHL1  H27B 6401   0.405   2.397   8.909  0.9239 -0.8570 -0.7946
   53CHL1  H27C 6402   0.247   2.359   8.842  1.8845 -2.2835  3.7260
   54CHL1    C3 6403   0.935   3.891  10.272  0.5429 -0.4443  0.3393
   54CHL1    H3 6404   0.909   3.992  10.235 -0.0444  0.0064  1.9886
   54CHL1    O3 6405   0.934   3.893  10.408  0.5661  0.6228  0.5081
   54CHL1   H3' 6406   0.966   3.810  10.443 -2.7908 -0.3823  1.3450
   54CHL1    C4 6407   0.828   3.787  10.229 -0.2557 -0.0326  0.1541
   54CHL1   H4A 6408   0.847   3.686  10.272  2.5093  0.3255 -0.0951
   54CHL1   H4B 6409   0.733   3.835  10.259  0.7117  2.6939 -1.0117
   54CHL1    C5 6410   0.829   3.782  10.076 -0.3014  0.1461  0.0475
   54CHL1    C6 6411   0.735   3.820   9.996  1.6417  0.4073  0.2605
   54CHL1    H6 6412   0.633   3.836  10.036  0.8593 -0.0088 -1.5197
   54CHL1    C7 6413   0.733   3.823   9.850  0.6945 -0.3438  0.0404
   54CHL1   H7A 6414   0.640   3.779   9.807  0.4910 -0.2034  0.3352
   54CHL1   H7B 6415   0.747   3.929   9.820  0.9272 -1.1955 -3.1131
   54CHL1    C8 6416   0.845   3.726   9.797  0.3755 -0.0221  0.0834
   54CHL1    H8 6417   0.810   3.625   9.828 -0.4784  0.1191 -0.4073
   54CHL1   C14 6418   0.862   3.746   9.643  0.1519  0.1316 -0.2614
   54CHL1   H14 6419   0.889   3.854   9.637  1.2251  0.0540  2.6516
   54CHL1   C15 6420   0.733   3.733   9.559 -0.5139 -0.2362 -0.0554
   54CHL1  H15A 6421   0.687   3.636   9.588 -0.5321  0.2745  1.6488
   54CHL1  H15B 6422   0.663   3.818   9.575 -2.3944 -2.2802  3.1522
   54CHL1   C16 6423   0.775   3.730   9.411 -0.7407  0.5316 -0.3044
   54CHL1  H16A 6424   0.736   3.629   9.385 -1.8460  0.9747 -0.4154
   54CHL1  H16B 6425   0.722   3.799   9.343  0.0707 -0.1422 -1.6328
   54CHL1   C17 6426   0.929   3.710   9.420  0.6643  0.2311 -0.0524
   54CHL1   H17 6427   0.973   3.811   9.419  0.6648  0.2581  1.5488
   54CHL1   C13 6428   0.963   3.666   9.570 -0.3796  0.5987 -0.2597
   54CHL1   C18 6429   0.936   3.516   9.575 -0.2428  0.5456 -0.0446
   54CHL1  H18A 6430   1.020   3.455   9.535  2.1640  2.2337  2.2648
   54CHL1  H18B 6431   0.929   3.475   9.678  3.0294 -3.7580 -1.4209
   54CHL1  H18C 6432   0.840   3.480   9.532  0.2837  0.4935 -1.1897
   54CHL1   C12 6433   1.102   3.698   9.637  0.3149  0.5093 -0.3068
   54CHL1  H12A 6434   1.180   3.623   9.614  1.0378  0.2291  2.8398
   54CHL1  H12B 6435   1.142   3.799   9.611 -0.9356  1.3791  1.0990
   54CHL1   C11 6436   1.095   3.686   9.794  0.6735 -0.3097 -0.5484
   54CHL1  H11A 6437   1.074   3.578   9.814 -1.6640  0.2742  0.2305
   54CHL1  H11B 6438   1.195   3.723   9.827  1.0174 -0.0404 -1.8473
   54CHL1    C9 6439   0.978   3.759   9.863 -0.1323 -0.0783 -0.2594
   54CHL1    H9 6440   0.998   3.864   9.836 -0.2476 -0.2124 -0.8584
   54CHL1   C10 6441   0.972   3.758  10.019 -0.0302 -0.5327 -0.1199
   54CHL1   C19 6442   1.018   3.617  10.060  0.3408 -0.0334  0.0558
   54CHL1  H19A 6443   0.999   3.600  10.168 -3.1734 -1.5572 -0.7283
   54CHL1  H19B 6444   0.973   3.534  10.002  3.6601 -2.3651  0.6969
   54CHL1  H19C 6445   1.128   3.609  10.058  0.3326 -0.9656  2.2421
   54CHL1    C1 6446   1.077   3.860  10.066  0.3078 -0.6438 -0.1854
   54CHL1   H1A 6447   1.179   3.829  10.034  0.8304  0.6895  0.1795
   54CHL1   H1B 6448   1.060   3.961  10.025  1.2789  0.3382  1.7494
   54CHL1    C2 6449   1.077   3.865  10.219 -0.2776  0.0684 -0.2696
   54CHL1   H2A 6450   1.151   3.937  10.258  0.0215  0.3863 -1.3972
   54CHL1   H2B 6451   1.102   3.764  10.257 -2.7457 -0.3684  0.2783
   54CHL1   C20 6452   0.995   3.636   9.303 -0.3620  0.7172 -0.9875
   54CHL1   H20 6453   0.965   3.529   9.299 -0.7659  0.8322 -1.0230
   54CHL1   C21 6454   1.151   3.647   9.316  0.0140  1.1712  0.8753
   54CHL1  H21A 6455   1.190   3.597   9.407  1.0247  0.9934  0.3496
   54CHL1  H21B 6456   1.172   3.755   9.333  1.0037  1.2422 -0.6589
   54CHL1  H21C 6457   1.202   3.606   9.227 -3.9467 -0.3216 -0.8090
   54CHL1   C22 6458   0.962   3.701   9.165 -0.7985  0.7640 -0.5041
   54CHL1  H22A 6459   0.878   3.773   9.172 -1.2215  0.1449  0.9770
   54CHL1  H22B 6460   1.052   3.760   9.138 -0.3146 -0.5023 -1.7512
   54CHL1   C23 6461   0.944   3.587   9.064  0.1711  0.2235 -0.9996
   54CHL1  H23A 6462   1.042   3.536   9.049  0.3274  0.5724 -1.1718
   54CHL1  H23B 6463   0.859   3.520   9.089 -0.7911  1.0027 -2.1861
   54CHL1   C24 6464   0.917   3.643   8.923 -0.2828 -0.2882 -0.4815
   54CHL1  H24A 6465   0.831   3.712   8.937  0.9800  1.1200  0.3858
   54CHL1  H24B 6466   1.003   3.706   8.893  0.3679 -0.7990  0.2871
   54CHL1   C25 6467   0.888   3.534   8.821  0.1175  0.7263 -1.3189
   54CHL1   H25 6468   0.823   3.454   8.860  2.4445  0.0659  1.3169
   54CHL1   C26 6469   0.834   3.592   8.688  0.2427  0.7175 -0.0510
   54CHL1  H26A 6470   0.746   3.659   8.697  1.0057  2.1649 -2.7296
   54CHL1  H26B 6471   0.916   3.652   8.642  0.3937 -1.3072 -2.5618
   54CHL1  H26C 6472   0.800   3.516   8.613 -0.6716 -0.0599  1.1339
   54CHL1   C27 6473   1.014   3.450   8.806 -0.2588 -0.5548  0.0471
   54CHL1  H27A 6474   1.086   3.519   8.756  0.3046 -0.4702  0.9634
   54CHL1  H27B 6475   1.064   3.403   8.893 -0.1644 -0.5417 -0.0003
   54CHL1  H27C 6476   0.985   3.375   8.729  1.9858 -1.8392  0.4086
   55CHL1    C3 6477   0.905   1.337  10.182 -0.0635 -0.3494 -0.0413
   55CHL1    H3 6478   0.794   1.339  10.190 -0.0045  0.4890  0.6253
   55CHL1    O3 6479   0.957   1.353  10.316  0.3903  0.2576 -0.2797
   55CHL1   H3' 6480   0.950   1.271  10.365  0.1316 -0.9003 -2.1922
   55CHL1    C4 6481   0.950   1.195  10.130 -0.0657  0.0742  1.2935
   55CHL1   H4A 6482   1.061   1.192  10.134  0.0890 -1.1364 -2.0009
   55CHL1   H4B 6483   0.911   1.117  10.199 -0.4890  0.3999  1.4221
   55CHL1    C5 6484   0.899   1.179   9.989 -0.8890  0.4289 -0.2266
   55CHL1    C6 6485   0.808   1.085   9.958  0.2194 -0.6588 -0.2082
   55CHL1    H6 6486   0.766   1.029  10.043  2.6073 -2.3969 -0.1178
   55CHL1    C7 6487   0.760   1.057   9.815  0.2837  0.0626 -0.0212
   55CHL1   H7A 6488   0.772   0.948   9.797 -2.6586 -0.4414  0.7777
   55CHL1   H7B 6489   0.652   1.080   9.809  0.3918  0.4304 -0.6947
   55CHL1    C8 6490   0.838   1.144   9.709  0.9166 -0.7399 -0.0371
   55CHL1    H8 6491   0.933   1.092   9.685  3.4612  2.6010  2.3025
   55CHL1   C14 6492   0.771   1.141   9.570 -0.1697 -0.2361 -0.1984
   55CHL1   H14 6493   0.678   1.199   9.588 -0.1795 -0.7194  1.3857
   55CHL1   C15 6494   0.720   1.000   9.525 -0.0550 -0.5535 -0.0903
   55CHL1  H15A 6495   0.803   0.927   9.537 -0.5168 -0.7213  2.4046
   55CHL1  H15B 6496   0.639   0.968   9.594 -0.0945  3.3806  1.8557
   55CHL1   C16 6497   0.683   1.036   9.382 -0.0375  0.2764  0.6898
   55CHL1  H16A 6498   0.739   0.973   9.310 -0.2291 -1.1599  1.7748
   55CHL1  H16B 6499   0.574   1.032   9.361 -0.0959  1.4331  0.7556
   55CHL1   C17 6500   0.721   1.184   9.349  0.2750  0.2764  0.7101
   55CHL1   H17 6501   0.627   1.241   9.369 -0.1011 -0.7091  1.8173
   55CHL1   C13 6502   0.838   1.215   9.454 -0.2723  0.3237  0.4098
   55CHL1   C18 6503   0.972   1.142   9.423 -0.0254  0.5882  0.3116
   55CHL1  H18A 6504   1.047   1.144   9.504  0.3120 -0.7644  0.0426
   55CHL1  H18B 6505   0.959   1.042   9.376  1.5819 -0.5167  2.1882
   55CHL1  H18C 6506   1.014   1.201   9.338  0.0283  1.4142  0.9002
   55CHL1   C12 6507   0.855   1.360   9.502  0.1576 -0.0831 -0.2461
   55CHL1  H12A 6508   0.910   1.411   9.420  1.0781  1.3113  1.2009
   55CHL1  H12B 6509   0.753   1.400   9.517 -0.0054 -0.2478 -0.9144
   55CHL1   C11 6510   0.933   1.364   9.633  0.2319 -0.4627 -0.6059
   55CHL1  H11A 6511   1.038   1.330   9.623  1.1334  1.7030  0.9324
   55CHL1  H11B 6512   0.952   1.472   9.653  0.4576 -0.3356 -1.4833
   55CHL1    C9 6513   0.867   1.287   9.750 -0.1340  0.3993  1.0517
   55CHL1    H9 6514   0.767   1.332   9.769 -0.7814 -0.1219 -0.9376
   55CHL1   C10 6515   0.948   1.283   9.886  0.4566  0.7923 -0.7634
   55CHL1   C19 6516   1.096   1.264   9.861  0.3079 -0.1756 -0.0340
   55CHL1  H19A 6517   1.161   1.250   9.950  2.2902 -1.3155 -1.6117
   55CHL1  H19B 6518   1.103   1.189   9.779  0.0150 -0.4652  0.2027
   55CHL1  H19C 6519   1.131   1.357   9.812 -0.0803  0.3352  0.6532
   55CHL1    C1 6520   0.926   1.427   9.949 -0.3378 -0.2380 -0.2464
   55CHL1   H1A 6521   0.976   1.501   9.883 -3.8036 -0.1983 -2.9793
   55CHL1   H1B 6522   0.818   1.449   9.933 -0.0561  0.4193 -1.2850
   55CHL1    C2 6523   0.965   1.454  10.099  0.1305 -0.0513  0.0547
   55CHL1   H2A 6524   0.917   1.552  10.122 -0.6442 -0.3492 -0.2848
   55CHL1   H2B 6525   1.075   1.456  10.118  0.2759  2.9468 -0.7960
   55CHL1   C20 6526   0.747   1.197   9.199  0.7355  0.3982  0.2739
   55CHL1   H20 6527   0.847   1.152   9.179  0.2153 -0.2009 -1.0444
   55CHL1   C21 6528   0.771   1.346   9.167  0.1260 -0.1182  0.2587
   55CHL1  H21A 6529   0.760   1.368   9.058 -0.4729  1.2239  0.5785
   55CHL1  H21B 6530   0.873   1.385   9.190  0.2876  0.0296 -0.6794
   55CHL1  H21C 6531   0.698   1.400   9.230  0.9781  1.0064  0.3161
   55CHL1   C22 6532   0.650   1.135   9.102  0.0522 -0.4425  0.1525
   55CHL1  H22A 6533   0.689   1.162   9.002  1.7999  0.1342  0.9687
   55CHL1  H22B 6534   0.670   1.026   9.103  0.9102 -0.3044 -0.9732
   55CHL1   C23 6535   0.506   1.185   9.115  0.5202  0.4581 -0.5137
   55CHL1  H23A 6536   0.479   1.193   9.223  1.1213  0.2404 -0.3434
   55CHL1  H23B 6537   0.504   1.288   9.072 -0.5241  0.8855  0.5138
   55CHL1   C24 6538   0.398   1.098   9.044  0.1380  0.1216 -0.2116
   55CHL1  H24A 6539   0.402   1.116   8.934  0.4111 -1.9425 -0.5486
   55CHL1  H24B 6540   0.420   0.990   9.057  0.4964  0.4741  2.4057
   55CHL1   C25 6541   0.248   1.105   9.097  0.4301 -0.3045  0.0415
   55CHL1   H25 6542   0.221   1.212   9.110  1.6544  0.1923 -1.3620
   55CHL1   C26 6543   0.153   1.042   8.997  0.0703  0.0464 -0.3196
   55CHL1  H26A 6544   0.171   0.932   8.990 -1.0220 -0.0126 -2.5149
   55CHL1  H26B 6545   0.048   1.055   9.031  1.2769  0.8003  3.2667
   55CHL1  H26C 6546   0.161   1.083   8.894  2.2562 -3.7711 -1.7746
   55CHL1   C27 6547   0.229   1.042   9.236  0.2287  1.2754 -0.1879
   55CHL1  H27A 6548   0.132   1.062   9.286  0.6813 -0.7453  1.6043
   55CHL1  H27B 6549   0.247   0.933   9.236 -2.0024  0.8009  3.4087
   55CHL1  H27C 6550   0.302   1.083   9.310  0.3831  0.2744  0.2261
   56CHL1    C3 6551   5.338   6.420  10.182 -0.2825 -0.2681 -0.1673
   56CHL1    H3 6552   5.230   6.396  10.177  0.0735 -1.6811 -1.3800
   56CHL1    O3 6553   5.367   6.436  10.317  0.0713 -0.3264 -0.2688
   56CHL1   H3' 6554   5.446   6.490  10.321 -0.6342  0.8301 -1.4309
   56CHL1    C4 6555   5.416   6.309  10.113  0.1731 -0.0824  0.2424
   56CHL1   H4A 6556   5.523   6.331  10.132  0.0213  0.5505  0.3917
   56CHL1   H4B 6557   5.401   6.219  10.176 -0.0429 -1.4022 -1.6490
   56CHL1    C5 6558   5.382   6.296   9.966  0.3345  0.0264  0.6275
   56CHL1    C6 6559   5.331   6.187   9.914 -0.4839  0.4318 -0.1320
   56CHL1    H6 6560   5.325   6.095   9.974 -1.1365  0.1548 -0.6169
   56CHL1    C7 6561   5.299   6.166   9.763 -0.3779 -0.1544  0.1446
   56CHL1   H7A 6562   5.348   6.071   9.732 -1.4241 -0.2438 -1.2810
   56CHL1   H7B 6563   5.191   6.160   9.735  0.7510 -1.8805 -4.1737
   56CHL1    C8 6564   5.373   6.277   9.682 -0.1452 -0.2142  0.5985
   56CHL1    H8 6565   5.482   6.255   9.683  0.3206  1.9399 -0.9061
   56CHL1   C14 6566   5.320   6.275   9.541 -0.9577  0.0719  0.1675
   56CHL1   H14 6567   5.212   6.285   9.565 -0.3303  1.7122  2.5356
   56CHL1   C15 6568   5.337   6.148   9.461 -0.2484  0.3248 -0.6117
   56CHL1  H15A 6569   5.440   6.106   9.449 -0.9256 -1.8276  0.8003
   56CHL1  H15B 6570   5.275   6.065   9.499 -0.0683 -0.5148 -2.0966
   56CHL1   C16 6571   5.288   6.184   9.330  0.0520 -0.2624  1.1127
   56CHL1  H16A 6572   5.358   6.164   9.245 -1.8773 -4.7236  0.4563
   56CHL1  H16B 6573   5.196   6.126   9.310  1.5121 -1.8728 -1.2589
   56CHL1   C17 6574   5.270   6.340   9.324 -0.5530  0.4875 -0.0986
   56CHL1   H17 6575   5.162   6.359   9.341 -0.8921 -0.8933 -0.6391
   56CHL1   C13 6576   5.352   6.389   9.445 -0.1670  0.4229 -0.1129
   56CHL1   C18 6577   5.499   6.387   9.412 -0.4567 -0.2766 -0.0013
   56CHL1  H18A 6578   5.531   6.291   9.367 -1.1067 -0.8490  0.7330
   56CHL1  H18B 6579   5.520   6.469   9.339 -0.9500 -0.4118 -0.2904
   56CHL1  H18C 6580   5.563   6.400   9.502 -3.2263  1.3681  1.8089
   56CHL1   C12 6581   5.320   6.518   9.516  0.0231 -0.4866  0.3154
   56CHL1  H12A 6582   5.361   6.602   9.456  1.0558 -0.7307  0.6641
   56CHL1  H12B 6583   5.209   6.526   9.522 -0.0293 -1.8500  1.3333
   56CHL1   C11 6584   5.379   6.530   9.650  0.3618  0.6079  0.0200
   56CHL1  H11A 6585   5.489   6.530   9.635  0.2777  2.2570 -0.6749
   56CHL1  H11B 6586   5.342   6.622   9.699 -0.6293  0.3300 -0.2003
   56CHL1    C9 6587   5.345   6.412   9.742 -0.0636 -0.4148 -0.9540
   56CHL1    H9 6588   5.234   6.417   9.748 -0.0351 -0.4345 -0.3660
   56CHL1   C10 6589   5.395   6.425   9.893 -0.1821 -0.0987  0.1411
   56CHL1   C19 6590   5.544   6.458   9.886 -0.2629  0.3157 -0.4325
   56CHL1  H19A 6591   5.599   6.432   9.979 -1.4533 -0.0374  0.1860
   56CHL1  H19B 6592   5.599   6.406   9.804 -0.3082  2.1581 -1.6565
   56CHL1  H19C 6593   5.564   6.567   9.882 -1.6521  0.5624 -0.9340
   56CHL1    C1 6594   5.318   6.539   9.960 -0.5561 -0.6113 -0.5766
   56CHL1   H1A 6595   5.325   6.639   9.912  2.3239 -0.6199 -0.2276
   56CHL1   H1B 6596   5.209   6.517   9.957 -0.9258  1.1054 -0.4234
   56CHL1    C2 6597   5.357   6.563  10.109 -0.2474  0.2455  0.3659
   56CHL1   H2A 6598   5.298   6.642  10.160 -0.4734 -0.6054  1.4496
   56CHL1   H2B 6599   5.465   6.584  10.122 -0.2946  0.3085  0.6650
   56CHL1   C20 6600   5.299   6.398   9.186 -0.2270 -0.2177 -0.8182
   56CHL1   H20 6601   5.408   6.409   9.167 -0.3410 -0.1623 -1.4485
   56CHL1   C21 6602   5.239   6.543   9.180 -0.1622  0.8066 -0.1624
   56CHL1  H21A 6603   5.134   6.542   9.216 -0.4578  2.0127 -0.9403
   56CHL1  H21B 6604   5.229   6.570   9.073 -0.3851  0.3905 -0.2473
   56CHL1  H21C 6605   5.294   6.615   9.246  1.0321  0.8175 -1.1390
   56CHL1   C22 6606   5.228   6.326   9.069  0.1241  0.1081 -1.0326
   56CHL1  H22A 6607   5.234   6.216   9.088 -1.2247  0.3228  0.7236
   56CHL1  H22B 6608   5.122   6.358   9.068  0.0757 -0.0524 -1.2405
   56CHL1   C23 6609   5.302   6.364   8.939 -0.1708  1.0175 -0.9545
   56CHL1  H23A 6610   5.324   6.472   8.927  1.2806  0.7365 -0.8830
   56CHL1  H23B 6611   5.397   6.307   8.947 -1.4432 -0.9622  0.5906
   56CHL1   C24 6612   5.236   6.335   8.801  0.1178  0.8059 -0.6983
   56CHL1  H24A 6613   5.302   6.388   8.728  0.4963  1.1516 -0.1077
   56CHL1  H24B 6614   5.233   6.226   8.782  0.2657  0.9256 -1.4578
   56CHL1   C25 6615   5.093   6.381   8.782 -0.5408 -0.0247 -0.4594
   56CHL1   H25 6616   5.035   6.323   8.857 -0.8087 -1.4556 -1.7312
   56CHL1   C26 6617   5.077   6.537   8.783  0.5588  0.0393 -0.3457
   56CHL1  H26A 6618   5.135   6.575   8.697 -0.3496 -2.1817 -1.9864
   56CHL1  H26B 6619   4.969   6.563   8.781  0.4529 -0.3197  0.4594
   56CHL1  H26C 6620   5.127   6.573   8.876  0.0974 -2.1182  0.7841
   56CHL1   C27 6621   5.034   6.316   8.654 -0.1021 -0.0816  0.6084
   56CHL1  H27A 6622   4.929   6.352   8.658  0.1905  0.5773  3.2068
   56CHL1  H27B 6623   5.086   6.353   8.563  1.8390  0.4628  1.9169
   56CHL1  H27C 6624   5.046   6.206   8.655  0.2267 -0.1185 -2.3764
   57CHL1    C3 6625   1.461   2.402  10.261  0.0191 -0.4803 -0.1699
   57CHL1    H3 6626   1.544   2.332  10.238 -1.2620 -2.1563  0.1641
   57CHL1    O3 6627   1.481   2.465  10.387 -0.6498 -0.1284  0.4376
   57CHL1   H3' 6628   1.487   2.397  10.455  0.0376 -0.7658 -0.2489
   57CHL1    C4 6629   1.440   2.503  10.144  0.4531 -0.7134 -0.3806
   57CHL1   H4A 6630   1.352   2.567  10.166  0.6411 -1.4348  2.8234
   57CHL1   H4B 6631   1.535   2.560  10.139  0.0284  0.3164  2.3118
   57CHL1    C5 6632   1.417   2.424  10.011 -0.5209 -0.4213 -0.4925
   57CHL1    C6 6633   1.484   2.439   9.902  0.1249  0.9355  0.4012
   57CHL1    H6 6634   1.578   2.496   9.907  1.5875 -1.2799 -1.1503
   57CHL1    C7 6635   1.456   2.361   9.774 -0.4977  0.2654 -0.1157
   57CHL1   H7A 6636   1.477   2.418   9.681 -1.3221  0.5126 -0.1549
   57CHL1   H7B 6637   1.528   2.277   9.768  1.7114  2.0065  1.4141
   57CHL1    C8 6638   1.321   2.296   9.773  0.8894  0.6693  0.4836
   57CHL1    H8 6639   1.250   2.380   9.757 -0.2545 -0.4580 -0.5152
   57CHL1   C14 6640   1.314   2.203   9.650 -0.6231 -0.3268  0.6394
   57CHL1   H14 6641   1.373   2.116   9.683  0.3891  0.3049  0.5123
   57CHL1   C15 6642   1.361   2.249   9.505 -0.1191 -0.2674 -0.2989
   57CHL1  H15A 6643   1.329   2.350   9.472 -1.3239 -0.4426  0.3122
   57CHL1  H15B 6644   1.472   2.243   9.495 -0.2005 -1.9000 -0.3495
   57CHL1   C16 6645   1.287   2.157   9.407 -0.3956  0.0850  0.2353
   57CHL1  H16A 6646   1.218   2.216   9.343 -1.1678 -0.8713  0.1809
   57CHL1  H16B 6647   1.358   2.096   9.349  2.3449  0.8061  2.6773
   57CHL1   C17 6648   1.193   2.070   9.495  0.3417  0.2000  0.3326
   57CHL1   H17 6649   1.248   1.982   9.532  2.3128  1.2024 -0.1530
   57CHL1   C13 6650   1.168   2.150   9.626  0.4210  0.0977  0.5846
   57CHL1   C18 6651   1.075   2.270   9.596  0.8421  0.1413 -0.5705
   57CHL1  H18A 6652   1.052   2.343   9.676 -0.0601  0.9286 -1.5328
   57CHL1  H18B 6653   1.102   2.322   9.502 -0.6774  0.1361 -1.0237
   57CHL1  H18C 6654   0.973   2.234   9.569 -0.8953  3.6445  1.0244
   57CHL1   C12 6655   1.136   2.072   9.753 -0.3127  0.3196  0.3652
   57CHL1  H12A 6656   1.035   2.027   9.742  0.0885 -0.2502 -1.0486
   57CHL1  H12B 6657   1.203   1.985   9.769 -0.7622 -0.1098 -0.0754
   57CHL1   C11 6658   1.139   2.154   9.883 -0.1061  0.8483  0.1118
   57CHL1  H11A 6659   1.050   2.220   9.891 -1.4860 -0.5300 -2.8928
   57CHL1  H11B 6660   1.136   2.083   9.968 -0.7870  1.1318  0.3277
   57CHL1    C9 6661   1.277   2.225   9.898  0.1398  0.2109  0.2498
   57CHL1    H9 6662   1.353   2.145   9.910 -1.2980 -1.4069 -1.1277
   57CHL1   C10 6663   1.295   2.316  10.028  0.5053 -1.4539 -0.0411
   57CHL1   C19 6664   1.158   2.393  10.043  0.6441 -0.2924  0.0481
   57CHL1  H19A 6665   1.080   2.321  10.077  1.1923 -0.0519  1.9008
   57CHL1  H19B 6666   1.165   2.472  10.121 -1.4801 -0.8554  0.8508
   57CHL1  H19C 6667   1.122   2.445   9.952 -1.6778 -0.4513  0.8551
   57CHL1    C1 6668   1.308   2.223  10.158  0.2726 -1.2335  0.0744
   57CHL1   H1A 6669   1.217   2.160  10.164  0.3204 -1.3159 -0.0441
   57CHL1   H1B 6670   1.393   2.154  10.139  0.0020 -1.5707  0.0719
   57CHL1    C2 6671   1.340   2.307  10.285  0.0195  0.5595  0.0646
   57CHL1   H2A 6672   1.370   2.245  10.372 -1.3059 -0.1544  0.0145
   57CHL1   H2B 6673   1.254   2.370  10.316  1.0579  2.7475 -1.3238
   57CHL1   C20 6674   1.074   1.999   9.413 -0.1641  0.4970 -0.3027
   57CHL1   H20 6675   1.001   1.970   9.492 -0.9596 -0.1657 -1.2641
   57CHL1   C21 6676   1.129   1.878   9.340  0.2760  0.0808  0.0419
   57CHL1  H21A 6677   1.069   1.812   9.274  0.5751  1.3962 -1.5812
   57CHL1  H21B 6678   1.165   1.809   9.420 -3.5948 -0.6588  1.2335
   57CHL1  H21C 6679   1.218   1.914   9.283  0.5958  0.1991  0.6060
   57CHL1   C22 6680   0.998   2.090   9.315  0.2841  0.5172 -0.0876
   57CHL1  H22A 6681   0.963   2.183   9.365 -0.3147  0.2257  0.0371
   57CHL1  H22B 6682   1.057   2.126   9.228 -3.3838 -0.0424 -2.9440
   57CHL1   C23 6683   0.877   2.029   9.249 -0.0830 -0.0034  0.2926
   57CHL1  H23A 6684   0.906   1.930   9.207  2.2702  0.8550 -0.1970
   57CHL1  H23B 6685   0.805   2.003   9.330 -0.1886 -0.1702  0.1450
   57CHL1   C24 6686   0.824   2.126   9.148 -0.6578 -0.0350  0.2588
   57CHL1  H24A 6687   0.786   2.215   9.204  0.4379  0.2393  0.5728
   57CHL1  H24B 6688   0.907   2.150   9.079 -1.3976  1.3952 -0.1515
   57CHL1   C25 6689   0.700   2.080   9.068  0.2850 -0.3325  0.1902
   57CHL1   H25 6690   0.621   2.037   9.133  0.2435 -2.1820 -1.0685
   57CHL1   C26 6691   0.632   2.203   8.999  0.5096 -0.1089 -0.1240
   57CHL1  H26A 6692   0.704   2.247   8.926  0.6306  1.4641  0.9138
   57CHL1  H26B 6693   0.536   2.168   8.955  0.3402 -0.1947  0.3171
   57CHL1  H26C 6694   0.607   2.283   9.072  2.0466  1.4777 -1.2693
   57CHL1   C27 6695   0.749   1.974   8.967  1.0435  0.3496  0.6956
   57CHL1  H27A 6696   0.795   1.891   9.025 -0.8360 -0.2309  1.3832
   57CHL1  H27B 6697   0.665   1.938   8.904  0.0527  2.7354  0.5840
   57CHL1  H27C 6698   0.824   2.017   8.897  0.4093 -0.3729 -0.4632
   58CHL1    C3 6699   4.542   0.838  10.190  0.0470 -0.8707 -0.0573
   58CHL1    H3 6700   4.647   0.867  10.170 -0.0185  1.5915  2.7439
   58CHL1    O3 6701   4.512   0.824  10.333  0.0906 -0.2001 -0.7049
   58CHL1   H3' 6702   4.546   0.903  10.377 -0.0809 -0.0545 -0.8346
   58CHL1    C4 6703   4.449   0.945  10.135 -0.3080  0.9557  0.3915
   58CHL1   H4A 6704   4.348   0.905  10.161  0.1701  0.0456  0.8842
   58CHL1   H4B 6705   4.474   1.036  10.194  1.3144  0.2211  0.8678
   58CHL1    C5 6706   4.468   0.952   9.986  0.1966 -1.1018 -0.3228
   58CHL1    C6 6707   4.505   1.070   9.934 -0.3621 -0.3063 -0.1809
   58CHL1    H6 6708   4.513   1.151  10.008  1.0668  1.1337 -1.8776
   58CHL1    C7 6709   4.496   1.095   9.788  0.0924 -0.2116 -0.3900
   58CHL1   H7A 6710   4.448   1.193   9.767  2.1176  0.7004 -0.9017
   58CHL1   H7B 6711   4.599   1.107   9.749  0.6923 -0.9116  0.9313
   58CHL1    C8 6712   4.426   0.977   9.704  0.0228  0.1277  0.2015
   58CHL1    H8 6713   4.315   0.985   9.716 -0.2768  0.4139 -2.4471
   58CHL1   C14 6714   4.454   0.994   9.562  0.7538 -0.4900  0.7515
   58CHL1   H14 6715   4.563   0.978   9.556  0.3121 -3.1325 -0.8946
   58CHL1   C15 6716   4.411   1.125   9.492  0.3208 -0.7121 -0.3786
   58CHL1  H15A 6717   4.309   1.159   9.521  0.0974 -1.4994 -0.2300
   58CHL1  H15B 6718   4.485   1.204   9.516 -0.4790 -0.3075  0.7978
   58CHL1   C16 6719   4.416   1.103   9.341 -0.0812 -0.1737 -0.0611
   58CHL1  H16A 6720   4.313   1.118   9.301 -1.4064 -1.3641  2.8051
   58CHL1  H16B 6721   4.488   1.169   9.289 -0.7637  0.4522 -0.2166
   58CHL1   C17 6722   4.448   0.945   9.340  0.8154  0.5255 -0.0023
   58CHL1   H17 6723   4.559   0.952   9.338  0.8044  0.5904 -0.5135
   58CHL1   C13 6724   4.407   0.884   9.470 -1.0099  0.0467  1.2894
   58CHL1   C18 6725   4.244   0.871   9.465  0.2257  0.3431 -0.4733
   58CHL1  H18A 6726   4.207   0.975   9.446 -0.6555  0.3477  1.1670
   58CHL1  H18B 6727   4.209   0.795   9.392  1.1260 -1.5123  0.9784
   58CHL1  H18C 6728   4.212   0.840   9.567  0.4578 -2.6992 -1.2904
   58CHL1   C12 6729   4.479   0.760   9.520  0.3413  0.1002  0.3185
   58CHL1  H12A 6730   4.436   0.680   9.455  3.2576  0.9089 -2.7327
   58CHL1  H12B 6731   4.586   0.762   9.492  0.0823 -0.2829 -0.7258
   58CHL1   C11 6732   4.457   0.719   9.667 -0.3526  0.6162  0.1898
   58CHL1  H11A 6733   4.353   0.681   9.680  1.1956 -3.2986  1.7775
   58CHL1  H11B 6734   4.514   0.628   9.693 -0.1310  0.2200 -1.6044
   58CHL1    C9 6735   4.487   0.842   9.756  0.1378  0.1048 -0.8833
   58CHL1    H9 6736   4.597   0.862   9.757 -0.1725  2.0450  2.3811
   58CHL1   C10 6737   4.443   0.820   9.905  0.4676  0.0895 -0.3829
   58CHL1   C19 6738   4.299   0.776   9.916  0.3671 -0.4288  0.3314
   58CHL1  H19A 6739   4.281   0.778  10.026  3.0948  3.4636  0.8005
   58CHL1  H19B 6740   4.217   0.841   9.880  0.7166  0.4793  1.1460
   58CHL1  H19C 6741   4.289   0.672   9.878  1.9262 -1.0326  1.5316
   58CHL1    C1 6742   4.538   0.720   9.964 -0.4222  0.6256  0.7323
   58CHL1   H1A 6743   4.520   0.619   9.921  1.5389  0.2229  0.8529
   58CHL1   H1B 6744   4.644   0.733   9.935 -0.3015 -1.8590 -0.0677
   58CHL1    C2 6745   4.526   0.704  10.119  0.1850  0.4890 -0.0480
   58CHL1   H2A 6746   4.615   0.642  10.144 -0.0196 -0.3894 -1.4375
   58CHL1   H2B 6747   4.434   0.653  10.155  0.0153  1.2284  0.5727
   58CHL1   C20 6748   4.405   0.890   9.198 -0.3182  0.1430 -0.3936
   58CHL1   H20 6749   4.295   0.902   9.190 -0.1362  2.9232  0.7641
   58CHL1   C21 6750   4.439   0.737   9.188  0.0358 -0.0350  0.0856
   58CHL1  H21A 6751   4.363   0.690   9.254 -1.8414  3.5588  0.6336
   58CHL1  H21B 6752   4.545   0.717   9.215 -0.1671 -0.9565  0.2068
   58CHL1  H21C 6753   4.417   0.701   9.085  0.8587 -0.0719 -0.0792
   58CHL1   C22 6754   4.466   0.977   9.084  0.2419  0.3646 -0.0509
   58CHL1  H22A 6755   4.444   1.085   9.098 -0.1836  0.1138  1.3541
   58CHL1  H22B 6756   4.577   0.988   9.088  0.3968  0.3067 -3.1984
   58CHL1   C23 6757   4.461   0.911   8.950  0.1083 -0.6760 -0.0950
   58CHL1  H23A 6758   4.534   0.829   8.932  1.2229  0.4656 -0.7855
   58CHL1  H23B 6759   4.359   0.872   8.930  0.2477 -0.5593 -1.0623
   58CHL1   C24 6760   4.486   1.011   8.844 -0.3562  0.3355  0.4342
   58CHL1  H24A 6761   4.399   1.067   8.805 -0.0006  0.1959 -0.5825
   58CHL1  H24B 6762   4.560   1.090   8.872 -1.8877  1.3833  1.5763
   58CHL1   C25 6763   4.542   0.948   8.712 -0.8655 -0.2594 -0.5027
   58CHL1   H25 6764   4.639   0.898   8.733 -0.3237  1.0938  0.2766
   58CHL1   C26 6765   4.449   0.844   8.659 -0.5666  0.1454 -0.0822
   58CHL1  H26A 6766   4.339   0.858   8.660 -1.0418 -2.8592 -2.1203
   58CHL1  H26B 6767   4.480   0.817   8.556  0.3920  1.2840 -0.0956
   58CHL1  H26C 6768   4.464   0.754   8.723 -0.5245  0.0129 -0.2760
   58CHL1   C27 6769   4.570   1.056   8.602 -0.0508 -0.2201  0.0508
   58CHL1  H27A 6770   4.607   1.015   8.506 -0.2388  1.7224 -0.8824
   58CHL1  H27B 6771   4.473   1.106   8.581  0.3656  0.0884 -1.2161
   58CHL1  H27C 6772   4.640   1.136   8.634 -0.4243  0.8262 -1.6700
   59CHL1    C3 6773   3.934   0.733  10.385 -0.3050 -0.4925  0.0967
   59CHL1    H3 6774   3.971   0.837  10.373 -0.3118 -0.2189  2.1466
   59CHL1    O3 6775   3.944   0.687  10.516  0.3234  0.1287 -0.1006
   59CHL1   H3' 6776   3.932   0.592  10.508 -3.5865  0.5808 -0.3940
   59CHL1    C4 6777   3.787   0.720  10.333 -0.7842  0.1368 -0.2606
   59CHL1   H4A 6778   3.759   0.613  10.343 -0.4214  0.1054  0.4174
   59CHL1   H4B 6779   3.709   0.766  10.397 -1.8610 -0.8936 -0.8039
   59CHL1    C5 6780   3.774   0.749  10.187 -0.4936  0.3823 -0.4409
   59CHL1    C6 6781   3.682   0.832  10.135  0.1734  0.0817  0.2287
   59CHL1    H6 6782   3.623   0.887  10.210 -0.0744  1.2357 -0.7954
   59CHL1    C7 6783   3.665   0.860   9.988 -1.0696  0.5837  0.6314
   59CHL1   H7A 6784   3.558   0.870   9.958 -1.0738 -0.8314  0.1735
   59CHL1   H7B 6785   3.706   0.961   9.963 -3.2087  1.4180  0.3772
   59CHL1    C8 6786   3.719   0.741   9.908 -0.2274 -0.5247  0.1045
   59CHL1    H8 6787   3.643   0.660   9.916 -1.4813  0.5249 -1.0091
   59CHL1   C14 6788   3.719   0.779   9.758 -0.0753  0.0714  0.5954
   59CHL1   H14 6789   3.795   0.859   9.750  0.8369 -0.9519 -1.1654
   59CHL1   C15 6790   3.587   0.836   9.694  0.9374 -0.1976  0.2814
   59CHL1  H15A 6791   3.501   0.780   9.737  1.3620 -2.3070 -1.5711
   59CHL1  H15B 6792   3.572   0.939   9.732 -1.9690 -1.2371  2.1333
   59CHL1   C16 6793   3.603   0.820   9.542  0.3299  0.3186 -0.1865
   59CHL1  H16A 6794   3.528   0.752   9.497 -0.0055 -0.2613  1.2220
   59CHL1  H16B 6795   3.611   0.918   9.491  0.4404  0.7215  0.6017
   59CHL1   C17 6796   3.739   0.746   9.523  0.2310 -0.4588 -0.0998
   59CHL1   H17 6797   3.807   0.833   9.520 -1.9525  1.3541  1.3748
   59CHL1   C13 6798   3.767   0.678   9.659 -0.5020  0.6387  0.7802
   59CHL1   C18 6799   3.685   0.544   9.661  0.1365 -0.0755 -0.1373
   59CHL1  H18A 6800   3.591   0.541   9.602 -1.1097 -0.1983  1.8108
   59CHL1  H18B 6801   3.733   0.451   9.623 -0.3598 -0.4868  0.2223
   59CHL1  H18C 6802   3.648   0.521   9.763 -1.4678 -0.5435 -0.8025
   59CHL1   C12 6803   3.912   0.651   9.690  0.4078 -0.0764 -0.4208
   59CHL1  H12A 6804   3.958   0.563   9.639  1.4171  0.6015 -0.7014
   59CHL1  H12B 6805   3.971   0.739   9.657  2.2963 -1.7618 -1.7044
   59CHL1   C11 6806   3.924   0.615   9.844  0.1776  0.4832  0.4711
   59CHL1  H11A 6807   3.893   0.509   9.855 -2.0728  1.1216  0.6201
   59CHL1  H11B 6808   4.034   0.620   9.856  0.1351 -1.6308  2.0754
   59CHL1    C9 6809   3.860   0.707   9.952 -0.4407 -0.1983 -0.0242
   59CHL1    H9 6810   3.915   0.804   9.960 -0.4768 -0.2743  1.2437
   59CHL1   C10 6811   3.869   0.664  10.102  0.7080 -0.8127  0.1418
   59CHL1   C19 6812   3.827   0.514  10.115 -0.3601  0.4965 -0.4176
   59CHL1  H19A 6813   3.824   0.475  10.219 -0.6195  2.4299  0.3085
   59CHL1  H19B 6814   3.726   0.509  10.069 -1.2631  3.0004  1.2258
   59CHL1  H19C 6815   3.902   0.453  10.059 -0.6075 -0.3175  0.1289
   59CHL1    C1 6816   4.010   0.687  10.154 -0.8113  0.1770  0.0936
   59CHL1   H1A 6817   4.081   0.630  10.091 -0.1382  0.6191  0.4476
   59CHL1   H1B 6818   4.033   0.796  10.145 -1.5918  0.2795 -0.7655
   59CHL1    C2 6819   4.024   0.649  10.296 -0.4644  0.0003  0.1550
   59CHL1   H2A 6820   4.129   0.667  10.327 -0.1595  0.7948 -1.2973
   59CHL1   H2B 6821   4.011   0.539  10.313  1.0690 -0.3158 -0.6468
   59CHL1   C20 6822   3.757   0.672   9.392 -0.4213  0.2943  0.6552
   59CHL1   H20 6823   3.704   0.574   9.397  0.9518 -0.3969  2.3187
   59CHL1   C21 6824   3.906   0.629   9.372  0.4149  0.0349 -0.8285
   59CHL1  H21A 6825   3.909   0.592   9.267  0.5224 -0.4403 -0.6631
   59CHL1  H21B 6826   3.930   0.549   9.446  3.3826  1.9119  0.3109
   59CHL1  H21C 6827   3.975   0.714   9.391 -1.1537  0.4214  3.8720
   59CHL1   C22 6828   3.703   0.740   9.266 -0.3178  0.1459  0.0581
   59CHL1  H22A 6829   3.635   0.824   9.291  0.2569  0.7620 -0.4572
   59CHL1  H22B 6830   3.794   0.774   9.213  0.1617  2.0049  1.9691
   59CHL1   C23 6831   3.616   0.645   9.184 -0.1130 -0.0628  0.2362
   59CHL1  H23A 6832   3.680   0.561   9.149 -1.7879 -1.2491 -0.0197
   59CHL1  H23B 6833   3.540   0.603   9.252  0.7417 -0.4715  0.9542
   59CHL1   C24 6834   3.554   0.703   9.061  0.9554  0.0574  0.0535
   59CHL1  H24A 6835   3.471   0.774   9.080  1.0558  1.5108 -4.3617
   59CHL1  H24B 6836   3.630   0.759   9.002 -3.1209  3.1992 -2.4926
   59CHL1   C25 6837   3.501   0.602   8.960  0.0786  0.2985  0.5286
   59CHL1   H25 6838   3.580   0.525   8.948  0.5158  0.6481  1.1282
   59CHL1   C26 6839   3.373   0.548   9.015 -0.4081 -0.0121 -0.9717
   59CHL1  H26A 6840   3.325   0.482   8.941 -0.4238 -0.1909 -0.8030
   59CHL1  H26B 6841   3.392   0.496   9.112 -1.1415  1.4222 -0.0382
   59CHL1  H26C 6842   3.307   0.635   9.035  0.3852  0.2360  0.6406
   59CHL1   C27 6843   3.473   0.678   8.831  0.2418  0.1458  0.2454
   59CHL1  H27A 6844   3.567   0.695   8.774  0.0355 -1.3030 -0.5520
   59CHL1  H27B 6845   3.417   0.612   8.763 -0.0008 -0.5809  1.1443
   59CHL1  H27C 6846   3.420   0.775   8.847 -2.8794 -1.2433 -1.3566
   60CHL1    C3 6847   2.871   5.877  10.277 -0.2620 -0.7394 -0.0174
   60CHL1    H3 6848   2.847   5.770  10.295  0.5057 -1.0244 -0.6547
   60CHL1    O3 6849   2.915   5.926  10.401  0.3415 -0.2816 -0.5958
   60CHL1   H3' 6850   2.863   5.871  10.460 -0.6709  1.1956 -0.0806
   60CHL1    C4 6851   2.997   5.877  10.179 -0.7338  0.0390 -0.2905
   60CHL1   H4A 6852   3.037   5.979  10.196 -0.3964 -0.3268  1.2552
   60CHL1   H4B 6853   3.086   5.820  10.213 -0.3231 -0.3021 -1.8785
   60CHL1    C5 6854   2.957   5.840  10.037 -0.3117  0.9180 -0.1321
   60CHL1    C6 6855   3.025   5.745   9.976 -0.2866  0.5464  0.4039
   60CHL1    H6 6856   3.106   5.696  10.031 -1.0535 -1.0620  0.1247
   60CHL1    C7 6857   2.983   5.704   9.838 -0.2758 -0.8386 -0.2679
   60CHL1   H7A 6858   3.074   5.695   9.774 -0.4033  0.5604 -0.6513
   60CHL1   H7B 6859   2.933   5.605   9.839 -1.3316 -0.3205  1.2259
   60CHL1    C8 6860   2.884   5.801   9.767 -0.0986 -0.3455 -0.2555
   60CHL1    H8 6861   2.952   5.882   9.732  1.2971 -1.4296 -0.1100
   60CHL1   C14 6862   2.825   5.733   9.646  0.1981  0.1985  1.0370
   60CHL1   H14 6863   2.769   5.642   9.678 -2.8757  2.1134  1.2346
   60CHL1   C15 6864   2.928   5.674   9.545 -0.2055  0.4198 -0.1226
   60CHL1  H15A 6865   3.019   5.738   9.539  1.3758 -1.7523  0.2085
   60CHL1  H15B 6866   2.967   5.577   9.583  0.4733  0.3612 -0.9521
   60CHL1   C16 6867   2.865   5.672   9.405  0.4696 -0.3349  0.2091
   60CHL1  H16A 6868   2.937   5.726   9.339 -2.6451  1.1945 -2.0716
   60CHL1  H16B 6869   2.854   5.572   9.357  1.8424 -1.1228  1.4897
   60CHL1   C17 6870   2.720   5.741   9.425 -0.1697  0.4250 -0.2239
   60CHL1   H17 6871   2.649   5.657   9.441  0.1813 -0.5388 -3.3933
   60CHL1   C13 6872   2.741   5.830   9.556  0.5551  0.1992 -0.0722
   60CHL1   C18 6873   2.823   5.953   9.522  0.4065 -0.3658 -0.3887
   60CHL1  H18A 6874   2.852   6.007   9.614  1.7826 -1.3472 -0.2264
   60CHL1  H18B 6875   2.914   5.920   9.468  0.2129  0.4158 -1.1951
   60CHL1  H18C 6876   2.751   6.018   9.468 -1.6081 -1.5311  0.8070
   60CHL1   C12 6877   2.623   5.873   9.640  0.3031  0.6910  0.5707
   60CHL1  H12A 6878   2.560   5.942   9.581  0.1351 -0.3141 -0.4387
   60CHL1  H12B 6879   2.570   5.778   9.664  0.6105 -0.1379 -1.9118
   60CHL1   C11 6880   2.663   5.942   9.772 -0.1851  0.3037 -0.1864
   60CHL1  H11A 6881   2.690   6.050   9.767  0.3010  0.1437 -1.0653
   60CHL1  H11B 6882   2.569   5.945   9.832  0.3613  2.0338  0.6165
   60CHL1    C9 6883   2.771   5.858   9.853 -0.4941  0.3729  0.2774
   60CHL1    H9 6884   2.724   5.762   9.884 -3.3057  0.7840 -2.5126
   60CHL1   C10 6885   2.827   5.912   9.992 -0.5300  0.2617  0.4797
   60CHL1   C19 6886   2.867   6.056   9.957 -0.4186 -0.1397 -0.8218
   60CHL1  H19A 6887   2.944   6.057   9.877 -0.9096 -1.1997 -1.3133
   60CHL1  H19B 6888   2.785   6.122   9.920 -1.0598 -1.6652 -2.1971
   60CHL1  H19C 6889   2.921   6.102  10.042 -1.2707 -1.2482  0.3363
   60CHL1    C1 6890   2.710   5.901  10.089  0.6691 -0.6888 -0.1771
   60CHL1   H1A 6891   2.636   5.981  10.069 -0.6457 -2.1409 -1.2138
   60CHL1   H1B 6892   2.667   5.800  10.099  2.3850 -1.6699 -2.2907
   60CHL1    C2 6893   2.745   5.954  10.229 -0.4945  0.5692 -0.0288
   60CHL1   H2A 6894   2.661   5.943  10.302 -0.5000  3.0080  0.3631
   60CHL1   H2B 6895   2.776   6.060  10.229  0.3859  0.3268 -1.2863
   60CHL1   C20 6896   2.657   5.813   9.304 -0.0847  0.4402  0.1506
   60CHL1   H20 6897   2.693   5.918   9.297  0.2589  0.4511  1.9603
   60CHL1   C21 6898   2.504   5.799   9.333 -0.0192 -0.4242 -0.0616
   60CHL1  H21A 6899   2.452   5.848   9.248 -1.6926 -2.1007 -0.0565
   60CHL1  H21B 6900   2.474   5.842   9.431  1.4688 -2.5098  1.3490
   60CHL1  H21C 6901   2.478   5.691   9.336  1.8433 -0.8792 -0.1822
   60CHL1   C22 6902   2.690   5.731   9.174 -0.0292 -0.1345  0.3686
   60CHL1  H22A 6903   2.800   5.736   9.155 -0.1605  1.3096 -0.0866
   60CHL1  H22B 6904   2.663   5.625   9.191  0.7082 -0.0477  2.2132
   60CHL1   C23 6905   2.628   5.773   9.040 -0.0660  0.2933  0.2632
   60CHL1  H23A 6906   2.519   5.753   9.041 -0.1039  0.4545  2.7383
   60CHL1  H23B 6907   2.638   5.884   9.035 -0.8277  0.2537 -4.2280
   60CHL1   C24 6908   2.691   5.700   8.919 -0.3272  0.6937 -0.2392
   60CHL1  H24A 6909   2.801   5.708   8.923 -0.3729  1.1385  0.1336
   60CHL1  H24B 6910   2.665   5.593   8.935  4.2461 -0.4529  0.2054
   60CHL1   C25 6911   2.656   5.738   8.774  0.2615  0.4242 -0.4013
   60CHL1   H25 6912   2.554   5.781   8.782 -0.0538  0.3626 -3.7860
   60CHL1   C26 6913   2.749   5.842   8.714 -0.3436 -0.2222 -0.4428
   60CHL1  H26A 6914   2.853   5.807   8.695  0.3406  0.1011  2.4630
   60CHL1  H26B 6915   2.727   5.881   8.612  0.8205 -2.4400 -1.5611
   60CHL1  H26C 6916   2.745   5.929   8.783  0.4193 -1.6256  1.4094
   60CHL1   C27 6917   2.645   5.622   8.685 -0.5487  0.1003 -0.0722
   60CHL1  H27A 6918   2.574   5.544   8.721  0.1333  0.0995  1.3174
   60CHL1  H27B 6919   2.615   5.662   8.586  2.0369 -1.4464 -1.5069
   60CHL1  H27C 6920   2.740   5.569   8.667 -0.4329  0.5263 -0.7290
   61CHL1    C3 6921   0.125   5.145  10.435  0.3826  0.1236  0.1338
   61CHL1    H3 6922   0.219   5.201  10.413  0.9170 -0.4522  0.9416
   61CHL1    O3 6923   0.146   5.095  10.566  0.9184 -0.3835 -0.0711
   61CHL1   H3' 6924   0.241   5.082  10.571  1.2888  2.1818 -0.1418
   61CHL1    C4 6925   0.005   5.246  10.424 -0.0991  0.2809  0.7131
   61CHL1   H4A 6926  -0.079   5.176  10.446 -1.3351  1.5473  0.1538
   61CHL1   H4B 6927  -0.008   5.317  10.508  0.0439 -0.2501  1.1810
   61CHL1    C5 6928  -0.021   5.299  10.281  0.0109 -0.3709  0.0724
   61CHL1    C6 6929  -0.023   5.432  10.258 -0.2300 -0.4278 -0.9874
   61CHL1    H6 6930  -0.007   5.504  10.340 -1.0524 -0.7279 -0.5577
   61CHL1    C7 6931  -0.057   5.491  10.126  0.2009  0.6025  0.6536
   61CHL1   H7A 6932  -0.135   5.567  10.148 -0.3618 -0.2206  1.5431
   61CHL1   H7B 6933   0.034   5.537  10.081 -1.7209  0.9344 -3.0860
   61CHL1    C8 6934  -0.115   5.390  10.022 -1.1341 -0.0191 -0.4236
   61CHL1    H8 6935  -0.221   5.374  10.053 -0.3796 -1.8134  1.3807
   61CHL1   C14 6936  -0.102   5.447   9.877  0.0086  0.4586 -0.2879
   61CHL1   H14 6937   0.009   5.451   9.865  0.0896 -1.4065 -0.3420
   61CHL1   C15 6938  -0.170   5.585   9.863 -0.1804 -0.1142 -0.2318
   61CHL1  H15A 6939  -0.271   5.590   9.909 -0.3276  1.2012 -0.6625
   61CHL1  H15B 6940  -0.099   5.665   9.893  1.6105 -1.6394 -0.3299
   61CHL1   C16 6941  -0.183   5.590   9.707  0.3048 -0.1559 -0.4135
   61CHL1  H16A 6942  -0.285   5.616   9.672  0.0863 -2.4645 -1.6220
   61CHL1  H16B 6943  -0.113   5.668   9.672 -1.8448  1.0730 -2.1681
   61CHL1   C17 6944  -0.132   5.450   9.648  0.4420 -0.4200 -0.0431
   61CHL1   H17 6945  -0.022   5.454   9.640  0.4175  0.4427 -0.0324
   61CHL1   C13 6946  -0.146   5.353   9.770  1.0087  0.4914 -0.3045
   61CHL1   C18 6947  -0.296   5.315   9.777  0.3039  0.2357  0.2019
   61CHL1  H18A 6948  -0.369   5.394   9.748 -1.7230 -0.3387  3.4434
   61CHL1  H18B 6949  -0.304   5.212   9.735  0.1851 -0.0547  0.9272
   61CHL1  H18C 6950  -0.330   5.300   9.882 -0.4100 -0.8100 -0.1643
   61CHL1   C12 6951  -0.053   5.227   9.772  0.2180 -0.8724 -0.2236
   61CHL1  H12A 6952  -0.100   5.158   9.698  0.6690 -2.0512  0.5595
   61CHL1  H12B 6953   0.048   5.267   9.749 -0.5521  0.4588 -1.2986
   61CHL1   C11 6954  -0.053   5.161   9.912 -0.1503  0.1443 -0.3043
   61CHL1  H11A 6955  -0.150   5.108   9.920 -0.4225  0.5625 -0.7727
   61CHL1  H11B 6956   0.026   5.083   9.902  0.3830  0.8572 -1.8678
   61CHL1    C9 6957  -0.032   5.258  10.035  0.3037 -0.2175  0.8209
   61CHL1    H9 6958   0.073   5.296  10.031  0.8001 -1.6451  0.0494
   61CHL1   C10 6959  -0.038   5.186  10.177 -0.5462  0.8036  0.1953
   61CHL1   C19 6960  -0.176   5.118  10.190 -0.2100 -0.4266 -0.0795
   61CHL1  H19A 6961  -0.264   5.182  10.166 -1.6534 -1.3624  2.5618
   61CHL1  H19B 6962  -0.169   5.033  10.118 -0.9970  0.0991 -0.7916
   61CHL1  H19C 6963  -0.198   5.082  10.293  0.7702 -1.2299 -0.1436
   61CHL1    C1 6964   0.078   5.081  10.195  0.3836  0.4596 -0.6262
   61CHL1   H1A 6965   0.053   4.997  10.127 -1.2590  0.4713 -0.0538
   61CHL1   H1B 6966   0.172   5.127  10.159  0.6553  0.3043 -0.1288
   61CHL1    C2 6967   0.096   5.032  10.341  0.0859  0.2388 -0.1370
   61CHL1   H2A 6968   0.164   4.945  10.357 -0.1722 -0.8839 -4.6204
   61CHL1   H2B 6969   0.000   4.982  10.366  0.4842 -1.6681 -2.2954
   61CHL1   C20 6970  -0.193   5.424   9.515  0.3718  0.2956  0.2062
   61CHL1   H20 6971  -0.295   5.381   9.523 -0.0987  0.7682 -2.8769
   61CHL1   C21 6972  -0.106   5.324   9.441 -0.3678  0.9394  0.5726
   61CHL1  H21A 6973  -0.010   5.364   9.401 -0.6296 -0.4517 -1.5505
   61CHL1  H21B 6974  -0.174   5.286   9.361  0.1924  0.9728  0.0685
   61CHL1  H21C 6975  -0.081   5.239   9.509  2.3332 -0.0885 -1.5727
   61CHL1   C22 6976  -0.212   5.538   9.421 -0.4436 -0.7984 -0.3089
   61CHL1  H22A 6977  -0.296   5.596   9.465  0.9619  0.7194  0.4220
   61CHL1  H22B 6978  -0.118   5.597   9.426 -0.7676 -0.1791 -1.4098
   61CHL1   C23 6979  -0.247   5.512   9.276 -0.6484 -0.6740  0.1340
   61CHL1  H23A 6980  -0.159   5.463   9.230  0.3422  2.8675 -1.9154
   61CHL1  H23B 6981  -0.336   5.447   9.263 -0.1760 -0.9347 -2.0509
   61CHL1   C24 6982  -0.270   5.647   9.206  0.0191 -0.5648 -0.3335
   61CHL1  H24A 6983  -0.358   5.699   9.249  1.0355 -1.7634  3.3957
   61CHL1  H24B 6984  -0.181   5.713   9.222 -0.4903  0.6086 -2.1620
   61CHL1   C25 6985  -0.307   5.628   9.057  0.0240  0.1947 -0.0561
   61CHL1   H25 6986  -0.385   5.549   9.062 -0.2083  0.5100  2.3004
   61CHL1   C26 6987  -0.355   5.758   8.992 -0.0076 -0.5150  0.6916
   61CHL1  H26A 6988  -0.461   5.770   9.021 -0.5478  1.5464 -1.9176
   61CHL1  H26B 6989  -0.304   5.852   9.021  0.0105 -0.7913  1.5703
   61CHL1  H26C 6990  -0.340   5.743   8.882  0.9954  2.4361  0.3857
   61CHL1   C27 6991  -0.183   5.574   8.988  0.3981 -0.3678  0.0933
   61CHL1  H27A 6992  -0.187   5.577   8.877 -2.6346  2.1370  0.2116
   61CHL1  H27B 6993  -0.095   5.635   9.017 -0.9427  0.9134  1.5930
   61CHL1  H27C 6994  -0.151   5.470   9.009  0.6811  0.0368  1.6828
   62CHL1    C3 6995   1.879   1.459  10.120  0.5541 -0.7397  0.1465
   62CHL1    H3 6996   1.843   1.355  10.137 -0.8026 -0.3508 -0.2587
   62CHL1    O3 6997   1.900   1.531  10.239 -0.0876 -0.3500  0.6646
   62CHL1   H3' 6998   1.859   1.617  10.221 -0.0159 -0.3689  0.4133
   62CHL1    C4 6999   2.015   1.454  10.044  0.0130 -0.7911  0.6250
   62CHL1   H4A 7000   2.068   1.551  10.032 -2.0139  0.2285 -0.2253
   62CHL1   H4B 7001   2.097   1.397  10.092 -0.5409 -2.0035  0.1508
   62CHL1    C5 7002   2.002   1.405   9.904  0.2866  0.5083 -0.0904
   62CHL1    C6 7003   2.079   1.301   9.862  0.3412 -0.1632 -0.0495
   62CHL1    H6 7004   2.138   1.245   9.936 -2.3470  0.6075  2.7722
   62CHL1    C7 7005   2.085   1.246   9.722  0.0372 -0.0311 -0.1564
   62CHL1   H7A 7006   2.186   1.246   9.676  1.1142  1.1292  2.1372
   62CHL1   H7B 7007   2.053   1.140   9.720 -1.2783  0.3539 -0.1336
   62CHL1    C8 7008   1.995   1.332   9.628  0.1268  0.2668 -0.4147
   62CHL1    H8 7009   2.061   1.416   9.599  2.3104 -1.4556 -0.5125
   62CHL1   C14 7010   1.962   1.251   9.502  0.3972 -0.1177  0.2594
   62CHL1   H14 7011   1.897   1.165   9.530  0.9121 -0.4378  0.4784
   62CHL1   C15 7012   2.083   1.189   9.426  0.0578  0.1365 -0.0649
   62CHL1  H15A 7013   2.168   1.260   9.435 -0.5417  0.8075  0.4643
   62CHL1  H15B 7014   2.094   1.090   9.475  0.0395 -0.9250 -2.1520
   62CHL1   C16 7015   2.042   1.175   9.284 -0.9884  0.3316 -0.1169
   62CHL1  H16A 7016   2.103   1.239   9.216 -2.2330  3.9744  2.0254
   62CHL1  H16B 7017   2.063   1.072   9.250  2.4822  1.1386 -0.6595
   62CHL1   C17 7018   1.898   1.221   9.279  0.0877 -0.6358  0.0565
   62CHL1   H17 7019   1.833   1.130   9.288 -1.2842  0.1093 -1.9323
   62CHL1   C13 7020   1.884   1.321   9.397 -0.0267 -0.7408 -0.2120
   62CHL1   C18 7021   1.956   1.457   9.348 -0.5350 -0.0292 -0.3870
   62CHL1  H18A 7022   1.968   1.523   9.437  2.4806  0.1538 -0.8748
   62CHL1  H18B 7023   2.055   1.432   9.305  0.3271  1.2485  0.7946
   62CHL1  H18C 7024   1.884   1.491   9.270 -0.9898  0.8634  0.4083
   62CHL1   C12 7025   1.743   1.343   9.461  0.0833 -0.5665  0.9383
   62CHL1  H12A 7026   1.677   1.399   9.390  1.0753  0.2783  0.6728
   62CHL1  H12B 7027   1.701   1.243   9.486 -0.2189 -0.6799  0.0012
   62CHL1   C11 7028   1.760   1.432   9.589  0.1363  0.1042  0.0592
   62CHL1  H11A 7029   1.774   1.539   9.562 -0.7167 -0.0357 -1.0054
   62CHL1  H11B 7030   1.655   1.431   9.626 -0.0556  0.0618 -0.4700
   62CHL1    C9 7031   1.867   1.373   9.693  0.0169  0.5461  0.1406
   62CHL1    H9 7032   1.820   1.279   9.731  0.3773  0.4723  0.4015
   62CHL1   C10 7033   1.890   1.469   9.816 -0.2480 -0.1530 -0.9104
   62CHL1   C19 7034   1.929   1.611   9.771 -0.6280  0.0637  0.8924
   62CHL1  H19A 7035   1.841   1.663   9.728 -2.0368 -2.4856  0.6048
   62CHL1  H19B 7036   1.964   1.666   9.861 -0.7265  0.6398  0.5799
   62CHL1  H19C 7037   2.015   1.617   9.700  2.3623  0.5943  4.3775
   62CHL1    C1 7038   1.759   1.479   9.896 -0.5272 -0.2599  0.4268
   62CHL1   H1A 7039   1.678   1.532   9.843  1.5803  1.5791 -1.0321
   62CHL1   H1B 7040   1.732   1.372   9.911 -1.3011 -0.3466 -1.5002
   62CHL1    C2 7041   1.770   1.539  10.042  0.0472  0.0314  0.5043
   62CHL1   H2A 7042   1.674   1.525  10.096 -0.1852  0.2183  0.1411
   62CHL1   H2B 7043   1.792   1.648  10.041  2.3226 -0.4087  0.2600
   62CHL1   C20 7044   1.862   1.274   9.138 -0.5066 -0.3090  0.5860
   62CHL1   H20 7045   1.920   1.365   9.115 -0.1813 -0.2823  1.4708
   62CHL1   C21 7046   1.709   1.308   9.131  0.2658 -0.3668 -0.9603
   62CHL1  H21A 7047   1.687   1.412   9.162  1.0157 -0.0914 -1.3464
   62CHL1  H21B 7048   1.667   1.238   9.207 -0.2564 -0.0991 -0.9996
   62CHL1  H21C 7049   1.664   1.285   9.031 -1.3309  0.8235 -0.5438
   62CHL1   C22 7050   1.910   1.181   9.024  0.5132  0.2983 -0.0250
   62CHL1  H22A 7051   1.899   1.222   8.922 -0.8071 -1.0356 -0.4422
   62CHL1  H22B 7052   2.019   1.160   9.031  0.6823  1.4235  0.9719
   62CHL1   C23 7053   1.832   1.038   9.025  0.3215  0.0976  0.7121
   62CHL1  H23A 7054   1.871   0.996   9.120  0.2086  1.7703  1.5140
   62CHL1  H23B 7055   1.727   1.059   9.053  0.1321  0.1010  0.0087
   62CHL1   C24 7056   1.870   0.956   8.903 -0.4332 -0.5445 -0.8506
   62CHL1  H24A 7057   1.833   1.017   8.817 -1.1181  2.5206  1.5315
   62CHL1  H24B 7058   1.980   0.953   8.890 -0.3153  2.0696 -0.8989
   62CHL1   C25 7059   1.808   0.809   8.898  0.2434  0.9780 -0.5007
   62CHL1   H25 7060   1.698   0.817   8.908  0.2475  1.5676 -0.9065
   62CHL1   C26 7061   1.837   0.750   8.759 -0.7812  0.4396 -0.6029
   62CHL1  H26A 7062   1.938   0.783   8.728  0.6760 -1.3388  2.0998
   62CHL1  H26B 7063   1.837   0.639   8.763 -1.0701  0.5125  1.8601
   62CHL1  H26C 7064   1.775   0.794   8.677 -0.3759  0.7528 -0.7426
   62CHL1   C27 7065   1.869   0.721   9.008  0.0657  0.2217  0.7095
   62CHL1  H27A 7066   1.979   0.711   8.990 -0.3879 -0.2695 -2.0778
   62CHL1  H27B 7067   1.846   0.772   9.103 -0.2293  0.9892  0.2292
   62CHL1  H27C 7068   1.828   0.618   9.001  1.9301 -0.5492  0.7354
   63CHL1    C3 7069   2.735   3.478  10.246  0.1125  1.0695 -0.2108
   63CHL1    H3 7070   2.715   3.587  10.246 -0.9780  0.8828  1.1107
   63CHL1    O3 7071   2.752   3.426  10.380 -0.0770 -0.3884  0.0335
   63CHL1   H3' 7072   2.678   3.448  10.436  1.0581  0.5032  1.2174
   63CHL1    C4 7073   2.615   3.405  10.185 -0.0599 -0.1368  0.3446
   63CHL1   H4A 7074   2.632   3.297  10.206  1.2441 -0.2124 -1.0839
   63CHL1   H4B 7075   2.526   3.440  10.242 -0.1521 -1.7549  1.2400
   63CHL1    C5 7076   2.605   3.432  10.038 -0.3908 -0.0461 -0.2253
   63CHL1    C6 7077   2.479   3.462   9.992 -0.3493  0.5180  0.3207
   63CHL1    H6 7078   2.395   3.471  10.062 -0.6265  0.1205  0.0446
   63CHL1    C7 7079   2.444   3.498   9.852 -0.1274 -0.5077 -0.4940
   63CHL1   H7A 7080   2.351   3.443   9.824 -0.3764  0.3626 -1.3709
   63CHL1   H7B 7081   2.430   3.608   9.845  0.9193 -0.3201  0.2689
   63CHL1    C8 7082   2.558   3.457   9.749 -0.8069 -0.0763  0.3140
   63CHL1    H8 7083   2.555   3.346   9.741  0.0097 -0.2550  2.1560
   63CHL1   C14 7084   2.536   3.514   9.614  0.1079  0.1083  0.5021
   63CHL1   H14 7085   2.520   3.623   9.631  1.9936  0.3480  0.9618
   63CHL1   C15 7086   2.420   3.467   9.538  0.2267 -0.2533  0.1124
   63CHL1  H15A 7087   2.411   3.356   9.536 -0.1403 -0.2415  0.9821
   63CHL1  H15B 7088   2.327   3.514   9.577 -0.3538  1.2644 -2.9451
   63CHL1   C16 7089   2.438   3.530   9.401  0.1437  0.3858  0.1973
   63CHL1  H16A 7090   2.399   3.465   9.319 -3.2060  1.7158  0.6402
   63CHL1  H16B 7091   2.376   3.623   9.398 -0.0910  0.2314  0.2309
   63CHL1   C17 7092   2.582   3.569   9.387 -0.2401  0.6218 -0.0328
   63CHL1   H17 7093   2.578   3.679   9.405  0.4403  0.8084 -1.0168
   63CHL1   C13 7094   2.651   3.505   9.511  0.0030 -0.3945  0.2833
   63CHL1   C18 7095   2.690   3.354   9.490  0.2135 -0.9747 -0.0261
   63CHL1  H18A 7096   2.601   3.291   9.470  0.5575 -1.1413 -1.1043
   63CHL1  H18B 7097   2.765   3.341   9.409 -0.3807 -0.0701 -0.7296
   63CHL1  H18C 7098   2.716   3.316   9.591  0.5191 -2.8752 -0.8086
   63CHL1   C12 7099   2.769   3.581   9.579 -0.7415  0.1201  0.1953
   63CHL1  H12A 7100   2.863   3.591   9.521  0.1525  2.0954  1.8867
   63CHL1  H12B 7101   2.727   3.681   9.600 -4.1668 -1.3798  0.7179
   63CHL1   C11 7102   2.811   3.506   9.706 -0.2237  0.1784 -0.5585
   63CHL1  H11A 7103   2.857   3.409   9.678  0.1509 -0.9642  3.7363
   63CHL1  H11B 7104   2.893   3.569   9.748  0.5633 -0.7933 -0.6275
   63CHL1    C9 7105   2.695   3.509   9.814 -0.2133  0.0986 -0.0293
   63CHL1    H9 7106   2.684   3.616   9.844 -3.9204 -0.3646  0.4531
   63CHL1   C10 7107   2.727   3.437   9.946  0.4200 -0.1930  0.1624
   63CHL1   C19 7108   2.763   3.293   9.914 -0.3906  0.3058  0.0568
   63CHL1  H19A 7109   2.688   3.232   9.858 -1.9879 -0.0617  2.5408
   63CHL1  H19B 7110   2.862   3.288   9.863  0.7010  0.3256  2.1304
   63CHL1  H19C 7111   2.775   3.238  10.010  2.0325 -0.0647 -0.4285
   63CHL1    C1 7112   2.843   3.500  10.024  0.3068  0.1640  0.4955
   63CHL1   H1A 7113   2.936   3.505   9.963 -1.3553  1.7529 -1.9911
   63CHL1   H1B 7114   2.828   3.610  10.026 -2.2585 -0.0813 -2.7901
   63CHL1    C2 7115   2.858   3.448  10.170  0.1219 -0.0240 -0.5370
   63CHL1   H2A 7116   2.938   3.500  10.228 -1.3239  0.0578  1.4335
   63CHL1   H2B 7117   2.885   3.341  10.178  1.3201  0.3322  0.4474
   63CHL1   C20 7118   2.642   3.552   9.250 -0.6038  0.8704  0.0877
   63CHL1   H20 7119   2.647   3.445   9.219  2.0895  0.4522  1.7287
   63CHL1   C21 7120   2.793   3.601   9.264  0.4901  0.4572 -0.6370
   63CHL1  H21A 7121   2.860   3.523   9.305 -0.1087 -0.7898 -1.9752
   63CHL1  H21B 7122   2.789   3.677   9.345  0.1226 -1.6775  1.4039
   63CHL1  H21C 7123   2.842   3.640   9.172 -1.7170 -0.2433 -2.1767
   63CHL1   C22 7124   2.559   3.629   9.137 -0.3861  0.1183  0.1624
   63CHL1  H22A 7125   2.451   3.603   9.135 -0.6741  1.2945  0.1090
   63CHL1  H22B 7126   2.556   3.738   9.158 -0.0483  0.3829 -1.1023
   63CHL1   C23 7127   2.601   3.620   8.995 -0.2064  0.1258 -0.5045
   63CHL1  H23A 7128   2.710   3.639   8.992  0.1683 -1.5177  1.6483
   63CHL1  H23B 7129   2.599   3.512   8.969  0.4753 -0.6327  2.4406
   63CHL1   C24 7130   2.529   3.721   8.907  0.0678  0.0832 -0.2435
   63CHL1  H24A 7131   2.421   3.733   8.930 -0.2565  1.1355 -2.1806
   63CHL1  H24B 7132   2.579   3.819   8.926  2.0134 -0.5676 -1.8228
   63CHL1   C25 7133   2.549   3.695   8.755  0.2255  0.5787 -0.2570
   63CHL1   H25 7134   2.653   3.705   8.716  0.3680  0.4516  0.0833
   63CHL1   C26 7135   2.497   3.556   8.715  0.1972  0.2486  0.7367
   63CHL1  H26A 7136   2.477   3.552   8.605 -0.1645 -1.6202  0.8532
   63CHL1  H26B 7137   2.573   3.483   8.748  2.0235  1.9251  0.3402
   63CHL1  H26C 7138   2.406   3.525   8.770 -0.3667  1.0292  0.2571
   63CHL1   C27 7139   2.477   3.800   8.672 -0.7735 -0.3692  0.3692
   63CHL1  H27A 7140   2.507   3.902   8.705 -1.1284  1.1252 -3.6212
   63CHL1  H27B 7141   2.499   3.792   8.564 -3.1581  2.2320 -0.3876
   63CHL1  H27C 7142   2.370   3.788   8.701 -1.3841 -0.3919 -1.8105
   64CHL1    C3 7143   1.769   2.893   9.973 -0.2428 -0.1082  0.3226
   64CHL1    H3 7144   1.679   2.830   9.993  0.6746 -0.8514  2.2116
   64CHL1    O3 7145   1.805   2.963  10.090 -0.7244 -0.2354 -0.5610
   64CHL1   H3' 7146   1.851   2.899  10.145 -1.2388 -0.4423 -0.3591
   64CHL1    C4 7147   1.871   2.796   9.920 -0.3273  0.3246 -0.0512
   64CHL1   H4A 7148   1.959   2.855   9.890  1.6367 -1.7202  1.5102
   64CHL1   H4B 7149   1.896   2.730  10.006 -0.9155  0.6893  0.4068
   64CHL1    C5 7150   1.823   2.714   9.806 -0.9195  0.6974  0.3990
   64CHL1    C6 7151   1.844   2.581   9.808 -0.8980  0.1536 -0.1498
   64CHL1    H6 7152   1.892   2.538   9.897 -0.0916 -0.8587 -1.0579
   64CHL1    C7 7153   1.815   2.497   9.693  0.0700 -1.3493  0.1883
   64CHL1   H7A 7154   1.887   2.414   9.674  0.0024 -1.2442 -0.5344
   64CHL1   H7B 7155   1.713   2.457   9.712 -0.5341 -0.7492 -1.6896
   64CHL1    C8 7156   1.788   2.578   9.561 -0.0271  0.2191  0.2873
   64CHL1    H8 7157   1.885   2.608   9.515  0.4987 -1.0444  0.5588
   64CHL1   C14 7158   1.718   2.489   9.458  0.4204 -0.0229 -0.2400
   64CHL1   H14 7159   1.620   2.468   9.506 -0.0623  2.5550 -0.0468
   64CHL1   C15 7160   1.772   2.341   9.433 -0.3142  0.2206 -0.7835
   64CHL1  H15A 7161   1.883   2.339   9.421 -0.4410  1.2117 -2.3636
   64CHL1  H15B 7162   1.737   2.262   9.503  0.5505  0.9462  0.4845
   64CHL1   C16 7163   1.709   2.310   9.300  0.0388  0.1490  0.3067
   64CHL1  H16A 7164   1.790   2.285   9.229  0.4892 -1.4556  1.3444
   64CHL1  H16B 7165   1.647   2.217   9.299  1.3573 -0.7580 -2.0526
   64CHL1   C17 7166   1.635   2.436   9.253  0.4105  0.5569  0.7040
   64CHL1   H17 7167   1.533   2.430   9.297 -0.2396  2.5131 -0.4616
   64CHL1   C13 7168   1.693   2.555   9.326 -0.7316 -0.6908 -0.0249
   64CHL1   C18 7169   1.824   2.603   9.259  0.0320  0.8818 -0.0556
   64CHL1  H18A 7170   1.801   2.622   9.152 -0.4283  0.6444 -0.0005
   64CHL1  H18B 7171   1.861   2.699   9.301  0.6531  0.8047 -0.4356
   64CHL1  H18C 7172   1.908   2.531   9.265 -0.2716  0.2081 -3.1429
   64CHL1   C12 7173   1.596   2.670   9.344  0.5111  0.0821  0.3415
   64CHL1  H12A 7174   1.594   2.721   9.245  1.3876 -1.7745 -0.6604
   64CHL1  H12B 7175   1.495   2.631   9.366 -0.2219  1.2127 -0.9693
   64CHL1   C11 7176   1.648   2.770   9.450  0.4626 -0.0900  0.7666
   64CHL1  H11A 7177   1.719   2.838   9.398  1.3742 -1.5372  0.0657
   64CHL1  H11B 7178   1.565   2.838   9.478  0.1203  0.2123 -0.9347
   64CHL1    C9 7179   1.701   2.705   9.583 -0.6675 -0.3135 -1.0661
   64CHL1    H9 7180   1.611   2.668   9.636 -0.4285 -1.0444 -1.1733
   64CHL1   C10 7181   1.775   2.800   9.688  0.6270  0.1518 -0.5416
   64CHL1   C19 7182   1.897   2.867   9.613  0.0386 -0.2585  0.7922
   64CHL1  H19A 7183   1.970   2.788   9.589  1.5869  1.4852 -0.3812
   64CHL1  H19B 7184   1.875   2.913   9.514 -1.0517 -1.6744  0.3698
   64CHL1  H19C 7185   1.941   2.945   9.680 -0.3803  2.0679 -1.5645
   64CHL1    C1 7186   1.680   2.910   9.736  0.2468 -0.0880  0.5745
   64CHL1   H1A 7187   1.664   2.981   9.653  1.1969 -0.7260 -0.1666
   64CHL1   H1B 7188   1.582   2.863   9.759 -0.0176 -0.8055 -1.9374
   64CHL1    C2 7189   1.727   2.993   9.859 -0.0427 -0.6718  0.3317
   64CHL1   H2A 7190   1.643   3.058   9.893 -1.6670 -1.9174 -1.1945
   64CHL1   H2B 7191   1.815   3.055   9.831 -0.4860 -0.3577 -0.3709
   64CHL1   C20 7192   1.605   2.455   9.099  0.5115 -0.4997 -1.2009
   64CHL1   H20 7193   1.583   2.558   9.065 -1.9799 -1.5078 -2.7878
   64CHL1   C21 7194   1.476   2.373   9.041  0.5357  1.1467 -0.1946
   64CHL1  H21A 7195   1.477   2.367   8.930  2.9567 -1.7102 -0.0792
   64CHL1  H21B 7196   1.385   2.434   9.056  0.5235  1.0020  0.3385
   64CHL1  H21C 7197   1.466   2.273   9.088 -0.4093  0.7170 -1.2827
   64CHL1   C22 7198   1.729   2.417   9.007 -0.5687 -0.0423  0.3943
   64CHL1  H22A 7199   1.829   2.447   9.046  0.8785  0.1560 -3.3212
   64CHL1  H22B 7200   1.722   2.308   8.985  0.0841  0.1752 -0.9043
   64CHL1   C23 7201   1.729   2.492   8.874 -0.4333 -0.3240  0.5172
   64CHL1  H23A 7202   1.627   2.470   8.834 -0.1055  0.2147 -0.6485
   64CHL1  H23B 7203   1.732   2.600   8.898  0.2394 -0.2411  0.0630
   64CHL1   C24 7204   1.846   2.452   8.781  0.5276  0.0653 -0.7276
   64CHL1  H24A 7205   1.943   2.482   8.826  0.5682 -0.7155 -0.2737
   64CHL1  H24B 7206   1.839   2.341   8.779  4.6198 -0.2687 -0.5280
   64CHL1   C25 7207   1.842   2.499   8.632  0.7213 -0.2671  0.1907
   64CHL1   H25 7208   1.744   2.457   8.599  0.1859 -1.1984  2.8744
   64CHL1   C26 7209   1.828   2.651   8.619  0.5353  0.0359 -0.6015
   64CHL1  H26A 7210   1.914   2.695   8.674 -1.1195 -0.0262  2.1102
   64CHL1  H26B 7211   1.831   2.684   8.512 -2.1489  0.0548 -0.6918
   64CHL1  H26C 7212   1.737   2.695   8.666  1.0064  0.0123  0.3450
   64CHL1   C27 7213   1.957   2.433   8.554  0.2434 -0.4119  0.1811
   64CHL1  H27A 7214   2.059   2.464   8.584  0.1794 -0.2049  0.1822
   64CHL1  H27B 7215   1.963   2.323   8.570  0.2424 -0.4981 -0.3908
   64CHL1  H27C 7216   1.933   2.462   8.450 -1.3334  0.7472  0.8440
   65CHL1    C3 7217   3.787   0.123  10.272 -0.4806 -0.5422  0.2894
   65CHL1    H3 7218   3.763   0.231  10.269  2.3843  0.1200 -0.3192
   65CHL1    O3 7219   3.753   0.067  10.398  0.2863 -0.1516  0.0640
   65CHL1   H3' 7220   3.657   0.061  10.400  0.3361 -0.6951  1.4078
   65CHL1    C4 7221   3.701   0.059  10.159 -0.2270  0.7106  0.0157
   65CHL1   H4A 7222   3.710  -0.050  10.176 -0.2095  1.2344  3.5652
   65CHL1   H4B 7223   3.596   0.089  10.180  0.1491  2.6740 -0.7768
   65CHL1    C5 7224   3.746   0.098  10.017  0.7405 -0.0686 -0.0290
   65CHL1    C6 7225   3.657   0.147   9.931  0.0202  0.4768  0.2726
   65CHL1    H6 7226   3.553   0.165   9.963 -0.4066  1.4031 -1.5346
   65CHL1    C7 7227   3.692   0.185   9.790 -0.0800 -0.6178 -0.0022
   65CHL1   H7A 7228   3.615   0.147   9.719 -0.1701 -2.3197  0.9801
   65CHL1   H7B 7229   3.693   0.294   9.767  1.4836 -0.8494 -1.1184
   65CHL1    C8 7230   3.832   0.130   9.743  0.0012  0.0668  0.0362
   65CHL1    H8 7231   3.819   0.020   9.738  0.4481  0.1198 -3.2648
   65CHL1   C14 7232   3.873   0.186   9.607 -0.6737  0.5984 -0.3928
   65CHL1   H14 7233   3.888   0.294   9.627 -0.6220  1.0017 -2.4107
   65CHL1   C15 7234   3.786   0.186   9.481  1.2119 -0.2665 -0.8917
   65CHL1  H15A 7235   3.720   0.097   9.473  1.2962 -0.3751 -0.4008
   65CHL1  H15B 7236   3.720   0.275   9.477  2.6720  0.9226  0.7252
   65CHL1   C16 7237   3.885   0.207   9.364  0.6316  0.5715  0.3138
   65CHL1  H16A 7238   3.880   0.131   9.283  1.4281  1.0611 -0.2005
   65CHL1  H16B 7239   3.859   0.306   9.320  1.0681  1.3264  1.7555
   65CHL1   C17 7240   4.021   0.223   9.423  0.1066  0.5792 -0.3429
   65CHL1   H17 7241   4.031   0.329   9.454  0.4440  0.6277 -0.6160
   65CHL1   C13 7242   4.009   0.144   9.559 -0.2678 -0.3096  0.1818
   65CHL1   C18 7243   4.024  -0.009   9.529 -0.2323  0.5896  0.0923
   65CHL1  H18A 7244   4.130  -0.041   9.518 -0.9104 -2.7436  2.6582
   65CHL1  H18B 7245   3.984  -0.073   9.609  1.8475 -2.1949 -1.0102
   65CHL1  H18C 7246   3.978  -0.036   9.431  0.4037  0.5856 -0.2098
   65CHL1   C12 7247   4.113   0.189   9.664 -0.2114  0.3106 -0.5098
   65CHL1  H12A 7248   4.211   0.140   9.645 -1.0758 -1.0501 -1.5349
   65CHL1  H12B 7249   4.131   0.298   9.678  0.3627  0.3255 -1.3457
   65CHL1   C11 7250   4.085   0.118   9.799 -0.1683  0.3973 -0.3192
   65CHL1  H11A 7251   4.075   0.008   9.788  2.0551  0.2091 -0.5503
   65CHL1  H11B 7252   4.160   0.163   9.867 -1.2329  1.1144  0.3935
   65CHL1    C9 7253   3.937   0.158   9.853  0.6836  0.7047 -0.2090
   65CHL1    H9 7254   3.937   0.269   9.862 -2.1756  1.0264 -3.1132
   65CHL1   C10 7255   3.895   0.091   9.991 -0.0091 -0.5573  0.7951
   65CHL1   C19 7256   3.920  -0.059   9.988 -0.1949  0.5363  0.2101
   65CHL1  H19A 7257   3.922  -0.110  10.087  0.4771  0.3355  0.1038
   65CHL1  H19B 7258   3.849  -0.106   9.916  0.9839  0.1098 -0.6930
   65CHL1  H19C 7259   4.019  -0.091   9.949 -0.7701  0.0930 -0.9162
   65CHL1    C1 7260   3.978   0.154  10.106  0.1627  0.0225 -0.0531
   65CHL1   H1A 7261   4.079   0.114  10.086  0.5454  2.5349 -3.6815
   65CHL1   H1B 7262   3.996   0.262  10.089  1.0819 -0.3446 -1.4234
   65CHL1    C2 7263   3.934   0.106  10.249 -0.1269 -0.2973 -0.0628
   65CHL1   H2A 7264   3.983   0.168  10.327  2.0800 -0.2692 -1.4055
   65CHL1   H2B 7265   3.976   0.004  10.257 -0.7397 -0.6689 -1.3995
   65CHL1   C20 7266   4.141   0.186   9.339 -0.3117  0.1131  0.5558
   65CHL1   H20 7267   4.163   0.079   9.356 -1.5997 -0.4862 -1.4594
   65CHL1   C21 7268   4.270   0.263   9.381  1.1204 -0.1574  0.1564
   65CHL1  H21A 7269   4.292   0.236   9.486  1.7459 -2.8975 -0.6394
   65CHL1  H21B 7270   4.250   0.371   9.366 -2.8455 -1.3740 -4.8646
   65CHL1  H21C 7271   4.357   0.238   9.317  1.0985  0.9460 -0.3193
   65CHL1   C22 7272   4.120   0.207   9.187  0.6118 -0.2789 -0.0218
   65CHL1  H22A 7273   4.212   0.167   9.140  0.8268  0.6163 -0.3811
   65CHL1  H22B 7274   4.044   0.140   9.141  0.5045 -1.8609  2.3438
   65CHL1   C23 7275   4.104   0.354   9.143  0.1787  0.9422  0.0135
   65CHL1  H23A 7276   4.012   0.392   9.191  0.7446  1.8187  0.4131
   65CHL1  H23B 7277   4.195   0.409   9.174  0.5375  1.3397 -1.7271
   65CHL1   C24 7278   4.087   0.368   8.994  0.5569 -0.0994  0.7219
   65CHL1  H24A 7279   4.181   0.339   8.943  0.7905  1.5679  0.1886
   65CHL1  H24B 7280   4.004   0.306   8.954 -0.0013  0.3236  1.2019
   65CHL1   C25 7281   4.057   0.521   8.954  0.1131  0.1153 -0.0585
   65CHL1   H25 7282   3.971   0.560   9.011  0.4420 -0.4458  0.8257
   65CHL1   C26 7283   4.177   0.605   8.970 -0.4355  0.1327  0.3033
   65CHL1  H26A 7284   4.255   0.564   8.902 -0.7794  0.1368 -0.0924
   65CHL1  H26B 7285   4.152   0.705   8.928 -2.8757 -2.2740 -4.3804
   65CHL1  H26C 7286   4.216   0.611   9.074  1.0919 -0.1164 -0.2415
   65CHL1   C27 7287   4.001   0.519   8.814  0.3050 -0.1412 -0.5797
   65CHL1  H27A 7288   3.945   0.612   8.790  1.5131  0.2074 -2.1193
   65CHL1  H27B 7289   4.076   0.514   8.732  0.3366  2.4780 -0.7549
   65CHL1  H27C 7290   3.930   0.435   8.797  0.7104 -0.1536 -2.3217
   66CHL1    C3 7291   2.458   5.027  10.358  0.9006 -0.0886  0.6364
   66CHL1    H3 7292   2.354   5.061  10.343  1.2264 -0.1350 -1.9447
   66CHL1    O3 7293   2.499   5.044  10.493  0.4474 -0.5608 -0.6158
   66CHL1   H3' 7294   2.593   5.024  10.496  0.7623  1.0213  2.3073
   66CHL1    C4 7295   2.458   4.873  10.326 -0.0602  0.1640  0.4348
   66CHL1   H4A 7296   2.555   4.827  10.355  1.6594  3.0803 -0.4997
   66CHL1   H4B 7297   2.379   4.821  10.385 -2.0407 -0.7922 -2.9226
   66CHL1    C5 7298   2.439   4.848  10.179  0.3595 -0.1251 -0.2056
   66CHL1    C6 7299   2.342   4.762  10.135 -0.8228 -0.1945  0.5826
   66CHL1    H6 7300   2.299   4.696  10.211  2.6169 -1.8742  1.1236
   66CHL1    C7 7301   2.310   4.726   9.990  0.2276  0.0566 -0.1588
   66CHL1   H7A 7302   2.323   4.616   9.978 -3.5520 -0.4143 -0.5439
   66CHL1   H7B 7303   2.211   4.753   9.949  0.2012 -1.9743 -1.5227
   66CHL1    C8 7304   2.421   4.792   9.896  0.6815  0.9387 -0.7265
   66CHL1    H8 7305   2.510   4.725   9.896 -0.0166 -0.0381  1.9254
   66CHL1   C14 7306   2.368   4.801   9.751  0.3070  0.0704  0.4356
   66CHL1   H14 7307   2.290   4.878   9.768 -0.2768  0.1604 -2.4009
   66CHL1   C15 7308   2.288   4.692   9.691  0.5400  0.1421  0.5361
   66CHL1  H15A 7309   2.351   4.602   9.709 -0.4275 -0.6258  0.1413
   66CHL1  H15B 7310   2.195   4.675   9.749 -0.6041  1.0304 -1.0109
   66CHL1   C16 7311   2.270   4.731   9.547 -0.0030 -0.8541 -0.1453
   66CHL1  H16A 7312   2.302   4.647   9.483  0.3448 -0.3854 -0.5899
   66CHL1  H16B 7313   2.169   4.751   9.506  0.6509 -0.3782 -1.5328
   66CHL1   C17 7314   2.374   4.844   9.518 -0.1671  0.5419  0.3580
   66CHL1   H17 7315   2.311   4.935   9.527 -1.9664 -0.5915 -0.6566
   66CHL1   C13 7316   2.464   4.849   9.645  0.1169 -0.1398 -0.0391
   66CHL1   C18 7317   2.587   4.754   9.632  0.5418 -0.8226 -0.2869
   66CHL1  H18A 7318   2.653   4.776   9.719 -1.5372 -0.7098  1.3191
   66CHL1  H18B 7319   2.557   4.647   9.639  1.1971 -0.8557  2.7910
   66CHL1  H18C 7320   2.643   4.772   9.539 -3.1928  1.1529 -2.2631
   66CHL1   C12 7321   2.495   4.993   9.690  0.4108  0.3176  0.0815
   66CHL1  H12A 7322   2.569   5.042   9.623  0.5623  1.2666  0.9343
   66CHL1  H12B 7323   2.408   5.059   9.676 -0.5065 -0.0854  3.3577
   66CHL1   C11 7324   2.549   4.997   9.836 -0.0596 -0.8052  0.2043
   66CHL1  H11A 7325   2.644   4.941   9.827  1.5445  1.6443  1.4164
   66CHL1  H11B 7326   2.582   5.101   9.857 -0.7460 -0.1318 -1.9071
   66CHL1    C9 7327   2.456   4.932   9.942 -0.6362 -0.3335 -1.1233
   66CHL1    H9 7328   2.365   4.994   9.939 -0.5667 -0.0152  2.0464
   66CHL1   C10 7329   2.518   4.942  10.080  0.0058 -0.5417  0.0675
   66CHL1   C19 7330   2.669   4.890  10.073  0.4854 -0.2803  0.0615
   66CHL1  H19A 7331   2.711   4.898  10.176 -1.3132 -1.8346  0.9324
   66CHL1  H19B 7332   2.676   4.782  10.049 -0.5936  0.0631 -1.9472
   66CHL1  H19C 7333   2.736   4.951  10.008  0.3335 -1.8978 -1.6662
   66CHL1    C1 7334   2.513   5.092  10.120  0.6376  0.0532  0.6624
   66CHL1   H1A 7335   2.584   5.153  10.060  0.6662  1.2616  1.9234
   66CHL1   H1B 7336   2.410   5.124  10.095  0.1141 -2.5076 -0.6346
   66CHL1    C2 7337   2.539   5.116  10.266  0.3627 -0.3386 -0.1502
   66CHL1   H2A 7338   2.508   5.218  10.296  2.2334  0.0732  0.4740
   66CHL1   H2B 7339   2.647   5.106  10.291  0.4336  0.9812  0.0877
   66CHL1   C20 7340   2.438   4.837   9.375 -0.2898 -1.0505 -0.4421
   66CHL1   H20 7341   2.499   4.746   9.356 -0.1856 -0.9789 -0.4498
   66CHL1   C21 7342   2.532   4.954   9.356 -0.0024  0.0586 -0.8178
   66CHL1  H21A 7343   2.534   4.978   9.247 -0.8806  1.8540 -0.4445
   66CHL1  H21B 7344   2.628   4.922   9.401 -0.4098  1.3267  0.9740
   66CHL1  H21C 7345   2.492   5.045   9.406  0.5378 -0.0334 -0.2173
   66CHL1   C22 7346   2.330   4.839   9.258 -0.2648 -0.4580 -0.5809
   66CHL1  H22A 7347   2.377   4.850   9.158 -0.8261  2.2559 -0.5860
   66CHL1  H22B 7348   2.268   4.747   9.256 -0.6171 -0.2574  0.5127
   66CHL1   C23 7349   2.243   4.965   9.273 -0.3210 -0.5295 -0.5599
   66CHL1  H23A 7350   2.181   4.941   9.362  1.3667  1.4407  1.2056
   66CHL1  H23B 7351   2.301   5.055   9.302 -0.4197 -1.0125  1.1953
   66CHL1   C24 7352   2.154   4.987   9.151 -0.3292  0.6384 -0.3121
   66CHL1  H24A 7353   2.213   5.002   9.058  1.1547  0.1894  0.5344
   66CHL1  H24B 7354   2.096   4.892   9.142  0.5721  0.1592 -1.1801
   66CHL1   C25 7355   2.066   5.109   9.175 -0.8762  0.1849  0.9193
   66CHL1   H25 7356   2.124   5.202   9.158  0.5750 -0.8857 -0.1249
   66CHL1   C26 7357   1.947   5.102   9.070 -0.6207 -0.1658 -0.1042
   66CHL1  H26A 7358   1.979   5.093   8.964 -1.1498 -0.2527 -0.2581
   66CHL1  H26B 7359   1.885   5.012   9.092  0.7813 -1.3628 -0.9746
   66CHL1  H26C 7360   1.885   5.194   9.073  0.9967  1.0040 -1.4868
   66CHL1   C27 7361   2.002   5.122   9.314 -0.5584  0.3054  0.0812
   66CHL1  H27A 7362   2.085   5.129   9.388 -0.7978 -0.0903  0.3886
   66CHL1  H27B 7363   1.942   5.214   9.321 -0.2726  0.6067 -1.2009
   66CHL1  H27C 7364   1.934   5.037   9.338 -0.3263  0.0084 -0.3073
   67CHL1    C3 7365   5.838   5.503  10.318  0.4045 -0.0906  0.2282
   67CHL1    H3 7366   5.921   5.437  10.286  0.0408 -2.0109  3.0876
   67CHL1    O3 7367   5.841   5.524  10.456  0.3126  0.4401  0.1123
   67CHL1   H3' 7368   5.766   5.584  10.455 -1.1780 -1.3546  1.7646
   67CHL1    C4 7369   5.834   5.641  10.254 -0.5614  0.3584  0.6164
   67CHL1   H4A 7370   5.761   5.705  10.308 -1.7797 -0.4187 -0.0914
   67CHL1   H4B 7371   5.930   5.694  10.269 -0.9723  0.3627  3.3876
   67CHL1    C5 7372   5.827   5.627  10.100  0.7860 -0.3998  0.4770
   67CHL1    C6 7373   5.928   5.672  10.019  0.4589 -0.0586 -0.2543
   67CHL1    H6 7374   6.010   5.723  10.072  0.0623  0.2377  0.0690
   67CHL1    C7 7375   5.911   5.690   9.874 -0.8343 -0.0499  0.1934
   67CHL1   H7A 7376   5.944   5.790   9.839  1.2757  0.4114  3.3331
   67CHL1   H7B 7377   5.985   5.614   9.841 -0.9369  0.5857 -1.5484
   67CHL1    C8 7378   5.768   5.656   9.819  0.2565 -0.2330  0.5709
   67CHL1    H8 7379   5.711   5.750   9.831 -0.2839 -0.7477  2.0689
   67CHL1   C14 7380   5.776   5.616   9.672 -0.4351 -0.3646  0.2673
   67CHL1   H14 7381   5.837   5.524   9.671  0.7506  0.4048  0.1003
   67CHL1   C15 7382   5.858   5.707   9.576 -0.6320  0.0914 -0.2324
   67CHL1  H15A 7383   5.842   5.816   9.590 -0.9507 -0.1749  1.6306
   67CHL1  H15B 7384   5.967   5.687   9.577 -0.9464 -1.6906 -0.9693
   67CHL1   C16 7385   5.808   5.666   9.441 -0.4130  0.9517  0.3368
   67CHL1  H16A 7386   5.787   5.760   9.385 -1.3301  1.0960  0.9179
   67CHL1  H16B 7387   5.892   5.619   9.385 -1.4918  0.1467 -0.6337
   67CHL1   C17 7388   5.680   5.578   9.463 -0.1862  0.4142  0.1392
   67CHL1   H17 7389   5.712   5.473   9.443 -0.8263  0.6129 -2.0128
   67CHL1   C13 7390   5.631   5.594   9.612  0.2633  0.7156 -0.3455
   67CHL1   C18 7391   5.544   5.727   9.630  0.4207  0.4141 -0.0144
   67CHL1  H18A 7392   5.607   5.809   9.589 -1.0472  1.2267 -0.6855
   67CHL1  H18B 7393   5.441   5.711   9.591  0.8263 -0.1645 -0.8757
   67CHL1  H18C 7394   5.526   5.751   9.737  1.2614  0.1444  0.1872
   67CHL1   C12 7395   5.578   5.464   9.683  0.3949 -0.5032  0.3839
   67CHL1  H12A 7396   5.478   5.426   9.652  1.4415 -0.4893 -3.2679
   67CHL1  H12B 7397   5.649   5.380   9.671 -2.7883 -3.3598  0.7872
   67CHL1   C11 7398   5.565   5.497   9.834 -0.0966 -0.5271  0.5618
   67CHL1  H11A 7399   5.487   5.575   9.851 -1.0836 -1.2398 -0.5963
   67CHL1  H11B 7400   5.538   5.397   9.875 -0.9781 -0.6513 -0.2986
   67CHL1    C9 7401   5.703   5.538   9.894  0.5729  0.3721  0.2473
   67CHL1    H9 7402   5.777   5.456   9.885 -1.9444 -1.7491 -1.7847
   67CHL1   C10 7403   5.704   5.556  10.052  0.9409  0.0729  0.2307
   67CHL1   C19 7404   5.582   5.646  10.080  0.3907  0.8272  0.4988
   67CHL1  H19A 7405   5.482   5.601  10.059 -0.7030  2.3286  2.3065
   67CHL1  H19B 7406   5.575   5.676  10.187 -1.3704 -0.8259  0.8633
   67CHL1  H19C 7407   5.584   5.734  10.012 -1.7254  0.3409 -0.2381
   67CHL1    C1 7408   5.700   5.418  10.127  0.6451 -0.4205  0.7142
   67CHL1   H1A 7409   5.605   5.374  10.091  0.1535  1.3441 -0.2245
   67CHL1   H1B 7410   5.778   5.349  10.091  0.3931  0.4684 -1.6387
   67CHL1    C2 7411   5.710   5.428  10.276 -0.1292 -0.0304 -0.0144
   67CHL1   H2A 7412   5.707   5.332  10.332  0.1226 -1.3981 -2.2778
   67CHL1   H2B 7413   5.616   5.473  10.313 -0.9216 -0.9106 -0.9141
   67CHL1   C20 7414   5.569   5.599   9.361  0.0311  0.0703  0.7199
   67CHL1   H20 7415   5.546   5.707   9.369 -1.4634 -0.2366  0.8145
   67CHL1   C21 7416   5.451   5.507   9.380 -0.5432 -0.1754 -0.3849
   67CHL1  H21A 7417   5.382   5.535   9.463  0.0977  0.9872 -0.2385
   67CHL1  H21B 7418   5.501   5.409   9.393 -0.3922  0.0096  0.4612
   67CHL1  H21C 7419   5.382   5.507   9.293  0.0347  0.0036 -0.8455
   67CHL1   C22 7420   5.636   5.581   9.219  0.1275 -0.0913 -0.6305
   67CHL1  H22A 7421   5.743   5.613   9.214  0.5440 -0.5901  3.2081
   67CHL1  H22B 7422   5.629   5.471   9.203 -3.2337 -0.4322  2.5258
   67CHL1   C23 7423   5.547   5.639   9.105 -0.3133 -0.2681  0.2344
   67CHL1  H23A 7424   5.448   5.588   9.118  0.0139 -0.4537  2.2162
   67CHL1  H23B 7425   5.528   5.748   9.115 -0.6411 -0.0289 -2.6859
   67CHL1   C24 7426   5.624   5.630   8.972 -0.1940  0.2264  0.5649
   67CHL1  H24A 7427   5.725   5.671   8.993 -0.8043  1.2192  1.6686
   67CHL1  H24B 7428   5.627   5.524   8.939  1.3170  0.8913 -1.4682
   67CHL1   C25 7429   5.563   5.708   8.855 -0.2575  0.7263  0.0634
   67CHL1   H25 7430   5.549   5.812   8.892 -0.3911  0.4697  0.7363
   67CHL1   C26 7431   5.646   5.699   8.734 -0.3871  0.2420  0.3578
   67CHL1  H26A 7432   5.745   5.746   8.755 -0.3875  0.3136  0.1961
   67CHL1  H26B 7433   5.665   5.594   8.703 -0.6994  0.5701 -0.9473
   67CHL1  H26C 7434   5.607   5.754   8.646 -1.3743 -2.9356 -1.2525
   67CHL1   C27 7435   5.428   5.651   8.817  0.6425 -0.5150  0.0286
   67CHL1  H27A 7436   5.379   5.705   8.733  0.0401 -2.2090 -0.7336
   67CHL1  H27B 7437   5.443   5.554   8.765  1.1666 -1.8261  2.5602
   67CHL1  H27C 7438   5.352   5.651   8.898 -0.3098  0.8351 -0.8253
   68CHL1    C3 7439   3.763   6.472  10.275 -0.3408  0.6672  0.8513
   68CHL1    H3 7440   3.800   6.576  10.259 -0.0302  0.5468  0.7798
   68CHL1    O3 7441   3.747   6.457  10.413  0.1019 -0.1167 -0.5376
   68CHL1   H3' 7442   3.836   6.477  10.445  0.7780 -3.2681 -0.2289
   68CHL1    C4 7443   3.629   6.469  10.200  0.7571 -0.2914  0.6775
   68CHL1   H4A 7444   3.563   6.381  10.214  0.5728 -0.6581 -2.2914
   68CHL1   H4B 7445   3.560   6.549  10.236  0.4720  0.0716 -0.6516
   68CHL1    C5 7446   3.646   6.481  10.049  0.3038  0.0260  0.7554
   68CHL1    C6 7447   3.579   6.579   9.984 -0.3109  0.2100 -0.8209
   68CHL1    H6 7448   3.523   6.656  10.039  0.8594 -0.3754  1.2428
   68CHL1    C7 7449   3.582   6.599   9.838  0.4878  0.7816  0.0518
   68CHL1   H7A 7450   3.477   6.602   9.802  0.6483  0.9100 -0.4084
   68CHL1   H7B 7451   3.626   6.692   9.798 -0.7665  1.0569 -0.7184
   68CHL1    C8 7452   3.640   6.477   9.759  0.9299 -0.0961 -0.0594
   68CHL1    H8 7453   3.559   6.401   9.754 -1.0355  1.8657  1.0557
   68CHL1   C14 7454   3.685   6.524   9.624 -0.1502  0.3122 -0.1234
   68CHL1   H14 7455   3.776   6.586   9.635 -0.9688  1.5394 -0.1760
   68CHL1   C15 7456   3.587   6.609   9.542  0.5629 -0.4639  0.4641
   68CHL1  H15A 7457   3.489   6.557   9.552  1.3122 -1.5265  2.4214
   68CHL1  H15B 7458   3.580   6.711   9.586  0.3062 -0.1428 -0.3097
   68CHL1   C16 7459   3.643   6.595   9.401  0.2833  0.2126 -0.8024
   68CHL1  H16A 7460   3.560   6.551   9.342  1.3677  0.5616 -2.6256
   68CHL1  H16B 7461   3.670   6.696   9.364  3.4458  0.2065  1.3115
   68CHL1   C17 7462   3.760   6.493   9.406  0.5891 -0.3472  0.2813
   68CHL1   H17 7463   3.848   6.560   9.418  0.5825 -0.0435 -1.2583
   68CHL1   C13 7464   3.730   6.409   9.533 -0.2612  0.5722 -0.2099
   68CHL1   C18 7465   3.622   6.312   9.501  0.2869  0.3564  0.1164
   68CHL1  H18A 7466   3.525   6.362   9.479  1.0921  1.3521 -1.2725
   68CHL1  H18B 7467   3.645   6.235   9.425 -1.4692  0.6622 -0.7672
   68CHL1  H18C 7468   3.601   6.258   9.595  0.7249 -3.0919 -1.6821
   68CHL1   C12 7469   3.855   6.348   9.595 -0.2162  0.4222 -0.4412
   68CHL1  H12A 7470   3.890   6.251   9.552  0.2024  0.3352  0.0819
   68CHL1  H12B 7471   3.939   6.419   9.577 -0.1092  0.3669 -0.1725
   68CHL1   C11 7472   3.832   6.307   9.740 -0.1500 -0.0651  0.5017
   68CHL1  H11A 7473   3.773   6.213   9.739 -1.2306  0.5516  2.6503
   68CHL1  H11B 7474   3.932   6.289   9.786  0.5177 -0.2854 -1.0194
   68CHL1    C9 7475   3.764   6.417   9.830 -0.5263 -0.6355 -0.0094
   68CHL1    H9 7476   3.831   6.506   9.826  0.5967 -1.5334 -2.0409
   68CHL1   C10 7477   3.748   6.385   9.980  0.4955 -0.1864 -0.3465
   68CHL1   C19 7478   3.686   6.240   9.991  0.0341 -0.2973  0.6340
   68CHL1  H19A 7479   3.592   6.253   9.933  1.0541  0.4503 -0.8869
   68CHL1  H19B 7480   3.749   6.156   9.952  1.5779  0.6644  1.0006
   68CHL1  H19C 7481   3.654   6.209  10.093  0.5848 -0.5942  0.7211
   68CHL1    C1 7482   3.877   6.387  10.058 -0.1375 -0.7912 -0.5922
   68CHL1   H1A 7483   3.938   6.298  10.031 -0.3928 -1.1294 -0.0681
   68CHL1   H1B 7484   3.924   6.484  10.032 -2.0427 -0.1000 -1.5614
   68CHL1    C2 7485   3.859   6.366  10.213 -0.0629 -0.0480 -0.3362
   68CHL1   H2A 7486   3.958   6.363  10.264  0.3331 -2.2245 -1.1880
   68CHL1   H2B 7487   3.812   6.268  10.234  0.0104  0.6542  3.5216
   68CHL1   C20 7488   3.766   6.415   9.270  0.3331  0.1067 -0.1352
   68CHL1   H20 7489   3.669   6.361   9.258 -0.7554  1.6171  1.6808
   68CHL1   C21 7490   3.881   6.307   9.256  0.8499  0.3552 -0.3062
   68CHL1  H21A 7491   3.866   6.253   9.160  2.1110  0.0626 -0.3579
   68CHL1  H21B 7492   3.880   6.231   9.337  0.8618  0.6845 -0.0005
   68CHL1  H21C 7493   3.979   6.360   9.254 -0.3727  2.6421 -1.3751
   68CHL1   C22 7494   3.788   6.512   9.147  0.0439 -0.2413  0.2960
   68CHL1  H22A 7495   3.733   6.608   9.157 -0.5238 -0.4360 -0.8491
   68CHL1  H22B 7496   3.896   6.538   9.138 -0.2435  0.7122 -0.4634
   68CHL1   C23 7497   3.726   6.460   9.016 -0.4983 -0.0372  0.1372
   68CHL1  H23A 7498   3.781   6.371   8.978 -1.7948 -1.1912  0.8851
   68CHL1  H23B 7499   3.618   6.437   9.030 -0.8100  1.1840 -0.2320
   68CHL1   C24 7500   3.738   6.569   8.905  0.2494 -0.7012 -0.1837
   68CHL1  H24A 7501   3.706   6.666   8.948 -0.9240 -1.6623  1.1447
   68CHL1  H24B 7502   3.845   6.574   8.876  0.3140 -1.2304 -0.0428
   68CHL1   C25 7503   3.667   6.550   8.765  0.2627  0.2786  0.4038
   68CHL1   H25 7504   3.703   6.455   8.719  0.6103  0.2689  0.6952
   68CHL1   C26 7505   3.512   6.527   8.783  0.0344 -0.0181  0.2246
   68CHL1  H26A 7506   3.491   6.424   8.819 -1.8712 -0.0553 -0.8904
   68CHL1  H26B 7507   3.481   6.599   8.862 -1.6469  2.3912 -2.5462
   68CHL1  H26C 7508   3.463   6.559   8.689  0.5667  2.9843  0.9092
   68CHL1   C27 7509   3.694   6.665   8.667  0.3933  0.4179  0.7000
   68CHL1  H27A 7510   3.628   6.644   8.580  0.7509 -0.2610  0.5864
   68CHL1  H27B 7511   3.661   6.755   8.722 -2.3573 -0.6575  0.9042
   68CHL1  H27C 7512   3.803   6.663   8.646  0.2403 -0.5510 -0.0344
   69CHL1    C3 7513   2.521   4.953   6.968  0.3823  0.3812  0.5244
   69CHL1    H3 7514   2.491   5.054   7.004 -0.4142  0.2232  0.3154
   69CHL1    O3 7515   2.541   4.955   6.827 -0.1531 -0.2520  0.3445
   69CHL1   H3' 7516   2.572   4.869   6.798 -1.2264 -0.3290 -0.6201
   69CHL1    C4 7517   2.652   4.904   7.027  0.4141 -0.3285 -0.2151
   69CHL1   H4A 7518   2.687   4.808   6.982 -0.4387 -1.1554  0.8628
   69CHL1   H4B 7519   2.727   4.983   7.005 -0.7849  1.6800  2.5946
   69CHL1    C5 7520   2.643   4.878   7.178 -1.1132 -0.6501 -0.0355
   69CHL1    C6 7521   2.724   4.940   7.268 -0.8002 -0.3087 -0.1398
   69CHL1    H6 7522   2.813   4.998   7.238 -1.1892  0.1168 -0.4758
   69CHL1    C7 7523   2.712   4.911   7.415 -0.0831  0.5986 -0.1956
   69CHL1   H7A 7524   2.812   4.899   7.463  0.9298  0.1725 -2.3739
   69CHL1   H7B 7525   2.672   4.994   7.477 -0.9252 -0.4077  0.6196
   69CHL1    C8 7526   2.619   4.792   7.455  0.1184  0.1648  1.1272
   69CHL1    H8 7527   2.676   4.700   7.431  0.6681  0.9196 -0.5657
   69CHL1   C14 7528   2.603   4.801   7.604  0.2283 -0.6248  0.3258
   69CHL1   H14 7529   2.542   4.893   7.615  0.8797  0.1843 -2.3552
   69CHL1   C15 7530   2.725   4.819   7.691 -0.3725 -0.3569  0.4648
   69CHL1  H15A 7531   2.797   4.735   7.680 -0.1100  0.0075 -0.7342
   69CHL1  H15B 7532   2.784   4.913   7.695 -0.8128 -0.0360 -0.4331
   69CHL1   C16 7533   2.659   4.799   7.835  0.2711  0.1064  0.6119
   69CHL1  H16A 7534   2.737   4.735   7.881  1.6662 -1.1855 -3.3680
   69CHL1  H16B 7535   2.670   4.889   7.899 -0.0864 -1.4772  2.9385
   69CHL1   C17 7536   2.515   4.736   7.812 -1.2452  0.4844  0.7201
   69CHL1   H17 7537   2.436   4.815   7.818 -0.4447  1.3053  0.5401
   69CHL1   C13 7538   2.511   4.688   7.665  0.1656  0.6684  0.3085
   69CHL1   C18 7539   2.572   4.551   7.646  0.1868  0.7534  0.3804
   69CHL1  H18A 7540   2.500   4.475   7.684 -1.7661  1.7754 -1.2168
   69CHL1  H18B 7541   2.589   4.520   7.540 -2.1260  0.8503 -0.0451
   69CHL1  H18C 7542   2.671   4.544   7.697  0.0409  0.2434  0.6013
   69CHL1   C12 7543   2.372   4.695   7.590  0.7075  0.3067 -0.0167
   69CHL1  H12A 7544   2.322   4.596   7.607  1.2809  0.1779  0.9779
   69CHL1  H12B 7545   2.318   4.783   7.632 -1.6940 -1.2091  0.2136
   69CHL1   C11 7546   2.386   4.690   7.434 -0.3503 -0.2489 -0.1215
   69CHL1  H11A 7547   2.431   4.593   7.404  1.6922  0.2515  1.1946
   69CHL1  H11B 7548   2.286   4.709   7.391 -0.1442 -0.0941 -0.5346
   69CHL1    C9 7549   2.489   4.792   7.378  0.2879 -0.2060  0.1837
   69CHL1    H9 7550   2.441   4.889   7.402  0.2291 -0.0250 -0.6477
   69CHL1   C10 7551   2.523   4.788   7.223 -0.3404  0.0392  0.8324
   69CHL1   C19 7552   2.563   4.644   7.183 -0.3287 -0.0802  0.7644
   69CHL1  H19A 7553   2.635   4.600   7.256  0.4825 -2.7791 -1.5816
   69CHL1  H19B 7554   2.470   4.584   7.176 -0.1446 -0.3713  0.8272
   69CHL1  H19C 7555   2.605   4.619   7.083  0.2311  3.5192  0.0462
   69CHL1    C1 7556   2.392   4.829   7.148 -0.6317  0.3598 -0.0111
   69CHL1   H1A 7557   2.314   4.753   7.171  1.7176 -1.6583  1.5474
   69CHL1   H1B 7558   2.344   4.918   7.194 -2.9735 -0.0970 -1.4625
   69CHL1    C2 7559   2.406   4.855   7.002 -0.4854 -0.3955 -0.2187
   69CHL1   H2A 7560   2.306   4.891   6.968 -1.5039 -3.2523 -0.4197
   69CHL1   H2B 7561   2.432   4.761   6.948 -0.6517 -0.7751  0.3541
   69CHL1   C20 7562   2.490   4.628   7.922 -0.0318  0.5527  1.1303
   69CHL1   H20 7563   2.562   4.545   7.907  0.4493  0.6810  2.6055
   69CHL1   C21 7564   2.344   4.564   7.913  0.4548 -0.5921  0.2054
   69CHL1  H21A 7565   2.337   4.491   7.830  1.1705 -3.2361  2.4169
   69CHL1  H21B 7566   2.268   4.644   7.899  0.1371 -1.0854 -0.9859
   69CHL1  H21C 7567   2.320   4.517   8.011 -1.4764  0.0179  0.0550
   69CHL1   C22 7568   2.507   4.671   8.069 -0.5374 -0.4668  0.4395
   69CHL1  H22A 7569   2.481   4.580   8.127  0.0348 -0.7181  0.3014
   69CHL1  H22B 7570   2.613   4.701   8.086 -0.8037  1.1617 -0.6400
   69CHL1   C23 7571   2.413   4.790   8.107 -0.0947  0.3321 -0.3408
   69CHL1  H23A 7572   2.424   4.864   8.026 -0.0340 -0.7186 -1.3056
   69CHL1  H23B 7573   2.309   4.751   8.104 -0.3373  0.8854  0.6751
   69CHL1   C24 7574   2.436   4.853   8.246 -0.0031  0.2678 -0.1195
   69CHL1  H24A 7575   2.413   4.774   8.322 -2.6035  2.7972  1.8337
   69CHL1  H24B 7576   2.546   4.869   8.239  0.2889 -1.3265  0.5512
   69CHL1   C25 7577   2.359   4.971   8.294  0.7340  0.2424  0.0189
   69CHL1   H25 7578   2.366   5.057   8.224 -0.5989 -1.8437 -2.7549
   69CHL1   C26 7579   2.210   4.941   8.318  0.9340 -0.2861  0.2386
   69CHL1  H26A 7580   2.198   4.886   8.414  0.7367  1.2208  1.0912
   69CHL1  H26B 7581   2.150   5.034   8.327  0.9215 -0.5188  3.2947
   69CHL1  H26C 7582   2.168   4.892   8.228 -0.0388  1.7993 -0.4728
   69CHL1   C27 7583   2.431   5.012   8.425  0.2438  0.2285  1.0393
   69CHL1  H27A 7584   2.534   5.052   8.408  0.0011  0.0575 -0.9735
   69CHL1  H27B 7585   2.372   5.097   8.464 -0.3207 -0.0139  0.7168
   69CHL1  H27C 7586   2.416   4.932   8.501 -1.1047 -0.0227  0.5262
   70CHL1    C3 7587   1.563   1.468   7.165  0.3861  0.2626  0.3441
   70CHL1    H3 7588   1.613   1.565   7.182  1.1135  0.0213 -0.4189
   70CHL1    O3 7589   1.562   1.458   7.023 -0.7483 -0.2198  0.1177
   70CHL1   H3' 7590   1.646   1.500   7.002 -0.8857 -0.1203 -0.2310
   70CHL1    C4 7591   1.650   1.359   7.227  0.7220  0.0561 -0.4070
   70CHL1   H4A 7592   1.614   1.258   7.199 -2.3323  0.9000  0.2173
   70CHL1   H4B 7593   1.755   1.366   7.192  0.9110  1.4568  0.4056
   70CHL1    C5 7594   1.656   1.366   7.377 -0.4075  0.1430  0.2001
   70CHL1    C6 7595   1.776   1.379   7.445  0.0275 -0.7805  0.1456
   70CHL1    H6 7596   1.876   1.380   7.400  1.0639  1.6792  2.3317
   70CHL1    C7 7597   1.787   1.386   7.599  0.2079  0.1321  0.2261
   70CHL1   H7A 7598   1.871   1.328   7.642  0.6324  0.4804 -0.1352
   70CHL1   H7B 7599   1.793   1.494   7.627  0.7232  0.3671 -0.7851
   70CHL1    C8 7600   1.650   1.329   7.664  0.2365 -0.2088  0.4214
   70CHL1    H8 7601   1.653   1.223   7.631 -0.3220  0.5161 -2.1060
   70CHL1   C14 7602   1.661   1.338   7.811  0.3681 -0.0458  0.2500
   70CHL1   H14 7603   1.680   1.444   7.838  0.4144 -0.3356  1.3791
   70CHL1   C15 7604   1.769   1.256   7.889 -0.4391  0.0113  0.4319
   70CHL1  H15A 7605   1.771   1.155   7.841  2.6406  0.7505 -1.1182
   70CHL1  H15B 7606   1.869   1.302   7.875  1.0628 -3.3001 -0.3711
   70CHL1   C16 7607   1.719   1.256   8.036 -0.0170  0.4729  0.3315
   70CHL1  H16A 7608   1.726   1.152   8.075 -1.8954  0.4567  0.6380
   70CHL1  H16B 7609   1.787   1.323   8.093 -0.5539 -0.4626  2.1212
   70CHL1   C17 7610   1.572   1.307   8.040 -0.1319 -0.0550 -0.1675
   70CHL1   H17 7611   1.578   1.415   8.062 -0.5195  0.3746 -2.0698
   70CHL1   C13 7612   1.532   1.293   7.886  0.0370  0.0597  0.5739
   70CHL1   C18 7613   1.504   1.147   7.850  0.0038  0.8955  0.1595
   70CHL1  H18A 7614   1.403   1.111   7.879  0.5047 -0.9727 -0.3047
   70CHL1  H18B 7615   1.519   1.125   7.742 -3.8279 -1.0208 -0.0617
   70CHL1  H18C 7616   1.567   1.075   7.907  0.1863  0.9613  0.0418
   70CHL1   C12 7617   1.414   1.375   7.834 -0.0356  0.7330  0.5555
   70CHL1  H12A 7618   1.325   1.341   7.890  0.6194 -2.6287 -0.3718
   70CHL1  H12B 7619   1.437   1.480   7.863 -1.3393  1.3500 -0.5789
   70CHL1   C11 7620   1.402   1.368   7.684  0.0600  0.0213 -0.3092
   70CHL1  H11A 7621   1.376   1.262   7.664 -1.3749  0.0751  1.2258
   70CHL1  H11B 7622   1.314   1.432   7.661  1.0170  1.0167 -1.3048
   70CHL1    C9 7623   1.531   1.402   7.609 -0.0091 -0.6201  0.3321
   70CHL1    H9 7624   1.545   1.512   7.609 -0.6227 -0.5383  0.4778
   70CHL1   C10 7625   1.517   1.372   7.451 -0.2114 -0.3222 -0.3399
   70CHL1   C19 7626   1.443   1.240   7.421  0.5504 -0.4882  0.0540
   70CHL1  H19A 7627   1.453   1.210   7.314  2.1013 -0.6483  0.2375
   70CHL1  H19B 7628   1.476   1.156   7.485 -1.1857 -1.2996 -0.0810
   70CHL1  H19C 7629   1.334   1.252   7.440  0.6559 -0.9107  0.9427
   70CHL1    C1 7630   1.433   1.478   7.380  0.5785 -0.3910 -0.3654
   70CHL1   H1A 7631   1.326   1.466   7.405  1.0762 -0.7507  1.6791
   70CHL1   H1B 7632   1.464   1.575   7.422 -0.3619 -0.1926 -0.1221
   70CHL1    C2 7633   1.425   1.472   7.232 -0.0665  0.8951  0.0070
   70CHL1   H2A 7634   1.361   1.542   7.175  0.1291 -0.4036 -1.8534
   70CHL1   H2B 7635   1.376   1.375   7.210  0.1515  0.6633  0.5258
   70CHL1   C20 7636   1.486   1.233   8.147 -0.6172  0.5137 -0.6479
   70CHL1   H20 7637   1.512   1.125   8.154  0.4480  0.9302  2.7583
   70CHL1   C21 7638   1.339   1.259   8.123  0.4112 -0.7589 -0.9329
   70CHL1  H21A 7639   1.299   1.201   8.037 -0.0874 -0.3095 -1.0085
   70CHL1  H21B 7640   1.307   1.366   8.117  3.5899  0.2651 -0.7818
   70CHL1  H21C 7641   1.288   1.211   8.210 -0.5876 -0.4313 -1.3318
   70CHL1   C22 7642   1.532   1.291   8.282 -0.3521 -0.2603 -0.1318
   70CHL1  H22A 7643   1.642   1.280   8.279 -0.2843  0.6932 -1.8147
   70CHL1  H22B 7644   1.502   1.397   8.298 -0.6412 -0.2349 -0.8356
   70CHL1   C23 7645   1.482   1.201   8.405 -0.3068 -0.0398 -0.0148
   70CHL1  H23A 7646   1.373   1.220   8.412 -0.7139 -1.8220 -1.0714
   70CHL1  H23B 7647   1.524   1.098   8.398  0.8388  0.3447  0.9273
   70CHL1   C24 7648   1.540   1.248   8.537  0.5076  0.6533  0.1666
   70CHL1  H24A 7649   1.650   1.236   8.533  0.3098 -1.3863  0.1619
   70CHL1  H24B 7650   1.511   1.348   8.574  0.1650  0.7255 -0.2900
   70CHL1   C25 7651   1.513   1.153   8.656 -0.1102 -0.3508 -0.0503
   70CHL1   H25 7652   1.403   1.135   8.665 -0.2722  0.1728 -0.9571
   70CHL1   C26 7653   1.578   1.010   8.652  0.3241  0.2669  0.6813
   70CHL1  H26A 7654   1.689   1.020   8.652  0.3669 -0.2048  1.0203
   70CHL1  H26B 7655   1.562   0.946   8.741 -0.1479  2.1995  2.0274
   70CHL1  H26C 7656   1.543   0.959   8.560  0.8827  1.4751 -0.2188
   70CHL1   C27 7657   1.555   1.218   8.789  0.0839  0.2472 -0.9224
   70CHL1  H27A 7658   1.656   1.264   8.794  0.8649 -1.4927  0.3173
   70CHL1  H27B 7659   1.498   1.310   8.813  2.6775  1.9414 -1.1553
   70CHL1  H27C 7660   1.536   1.153   8.878  0.9833 -0.6234 -1.3576
   71CHL1    C3 7661   1.487   3.887   6.862  1.0745 -0.1382 -0.0225
   71CHL1    H3 7662   1.423   3.978   6.866  0.0525 -0.9124  2.2965
   71CHL1    O3 7663   1.521   3.850   6.733 -0.1749 -0.3426 -0.6026
   71CHL1   H3' 7664   1.579   3.774   6.742 -2.0291 -1.7524 -0.3058
   71CHL1    C4 7665   1.625   3.902   6.929  0.2369 -0.1293  0.1193
   71CHL1   H4A 7666   1.678   3.807   6.905  1.6015  0.7961 -0.5789
   71CHL1   H4B 7667   1.675   3.978   6.865  2.4061 -1.2445  0.4594
   71CHL1    C5 7668   1.613   3.944   7.072  0.9554 -0.8861  0.5336
   71CHL1    C6 7669   1.662   4.064   7.107 -0.5697  0.0941 -0.1406
   71CHL1    H6 7670   1.699   4.132   7.029  1.4662  0.9612  1.5361
   71CHL1    C7 7671   1.674   4.096   7.250 -0.0120  0.1439 -0.0887
   71CHL1   H7A 7672   1.770   4.145   7.275  0.2228 -0.7161  0.7190
   71CHL1   H7B 7673   1.596   4.171   7.276  0.5718  0.1511  1.6777
   71CHL1    C8 7674   1.644   3.977   7.345  1.0419  0.4595 -0.0867
   71CHL1    H8 7675   1.736   3.916   7.346  1.3166  0.8764  0.3221
   71CHL1   C14 7676   1.626   4.023   7.491 -0.1734 -0.5671 -0.1575
   71CHL1   H14 7677   1.532   4.082   7.494  1.5220  2.1703  0.9747
   71CHL1   C15 7678   1.738   4.109   7.546  0.9793  0.1206 -0.0920
   71CHL1  H15A 7679   1.830   4.052   7.520  0.2188 -0.9479 -0.4767
   71CHL1  H15B 7680   1.744   4.213   7.508  0.2070  0.2981  0.2635
   71CHL1   C16 7681   1.701   4.109   7.693 -0.0858  0.1908 -0.3815
   71CHL1  H16A 7682   1.794   4.084   7.749  0.4176  2.0858 -0.3308
   71CHL1  H16B 7683   1.668   4.208   7.732  2.8925  0.7669  0.7511
   71CHL1   C17 7684   1.590   4.007   7.714  0.2690  0.6311 -0.0842
   71CHL1   H17 7685   1.494   4.063   7.711  0.2549  0.8116  2.3517
   71CHL1   C13 7686   1.595   3.912   7.592 -0.0963 -0.1953 -0.6610
   71CHL1   C18 7687   1.703   3.806   7.615  0.0717 -0.9803  0.2062
   71CHL1  H18A 7688   1.715   3.740   7.526  2.8481 -0.9888  0.5620
   71CHL1  H18B 7689   1.802   3.847   7.643  0.2498 -0.4682 -1.1323
   71CHL1  H18C 7690   1.674   3.745   7.703  1.8505 -0.3928  1.2028
   71CHL1   C12 7691   1.456   3.847   7.551 -0.7259  0.2727 -0.0830
   71CHL1  H12A 7692   1.429   3.760   7.615 -0.9120  0.7122  0.4387
   71CHL1  H12B 7693   1.371   3.917   7.565 -1.3465 -0.4473 -0.1911
   71CHL1   C11 7694   1.464   3.792   7.404 -0.1564 -0.1691  0.2948
   71CHL1  H11A 7695   1.525   3.699   7.398 -0.3800 -0.1851 -2.3997
   71CHL1  H11B 7696   1.366   3.757   7.364  0.5593 -1.9662  0.0440
   71CHL1    C9 7697   1.524   3.888   7.300  0.3202 -0.6816 -0.4250
   71CHL1    H9 7698   1.446   3.963   7.281  0.6197 -0.4466 -0.7375
   71CHL1   C10 7699   1.546   3.839   7.159  0.4122  0.5585 -0.5060
   71CHL1   C19 7700   1.637   3.713   7.157  0.1566 -0.8190 -0.0400
   71CHL1  H19A 7701   1.741   3.743   7.184 -0.3707  1.8009 -0.7777
   71CHL1  H19B 7702   1.596   3.633   7.223 -0.5415  1.2354  2.1071
   71CHL1  H19C 7703   1.648   3.668   7.056 -1.4590  1.5653 -1.3450
   71CHL1    C1 7704   1.411   3.803   7.089  0.1806 -0.0359 -0.0316
   71CHL1   H1A 7705   1.371   3.713   7.140 -0.9307  0.7276  0.4566
   71CHL1   H1B 7706   1.341   3.887   7.108 -1.1413 -1.1549  0.1777
   71CHL1    C2 7707   1.416   3.775   6.936  0.5390  0.5842 -0.0544
   71CHL1   H2A 7708   1.311   3.764   6.900  0.3793  1.0221  0.2702
   71CHL1   H2B 7709   1.471   3.682   6.913 -1.3192 -0.1476 -1.7755
   71CHL1   C20 7710   1.588   3.944   7.856  0.0087  0.7189  0.8852
   71CHL1   H20 7711   1.681   3.885   7.864 -0.5297 -0.1208  0.9599
   71CHL1   C21 7712   1.469   3.848   7.876  0.3926  0.5151  0.0020
   71CHL1  H21A 7713   1.460   3.813   7.981  2.2850  0.5231  0.1773
   71CHL1  H21B 7714   1.488   3.760   7.811 -1.5649 -1.9996  2.7027
   71CHL1  H21C 7715   1.372   3.897   7.851 -0.1358 -0.1212  0.7775
   71CHL1   C22 7716   1.603   4.055   7.959  0.0036  0.2314  0.3871
   71CHL1  H22A 7717   1.697   4.113   7.949  0.4298 -0.8103 -1.9908
   71CHL1  H22B 7718   1.521   4.127   7.935 -1.6842 -1.6419  0.4187
   71CHL1   C23 7719   1.592   4.006   8.097 -0.6659 -0.7440 -0.6691
   71CHL1  H23A 7720   1.497   3.959   8.132 -0.3492  0.2458  1.6470
   71CHL1  H23B 7721   1.657   3.919   8.119 -0.2735 -0.3399 -0.2116
   71CHL1   C24 7722   1.628   4.131   8.187 -0.0798  0.1066  0.3695
   71CHL1  H24A 7723   1.721   4.172   8.143  0.8848 -1.7098  0.7005
   71CHL1  H24B 7724   1.551   4.211   8.190  0.3475  0.4762  1.3135
   71CHL1   C25 7725   1.653   4.090   8.333  0.3528  0.0099 -0.5233
   71CHL1   H25 7726   1.721   4.002   8.329  2.6513  1.6566  1.4290
   71CHL1   C26 7727   1.719   4.203   8.411 -0.0248  0.2528  0.3111
   71CHL1  H26A 7728   1.657   4.295   8.404 -1.1070 -0.5982 -1.8010
   71CHL1  H26B 7729   1.719   4.172   8.518 -0.2522  3.1917  1.2055
   71CHL1  H26C 7730   1.819   4.229   8.370  0.4172 -0.7672  0.7397
   71CHL1   C27 7731   1.516   4.058   8.400 -0.0335  0.1612  0.4824
   71CHL1  H27A 7732   1.514   4.064   8.511  2.9772  2.0081  0.4968
   71CHL1  H27B 7733   1.431   4.114   8.356 -0.9264 -1.7421 -0.2918
   71CHL1  H27C 7734   1.487   3.955   8.370  3.5030 -0.6250 -0.4848
   72CHL1    C3 7735   1.573   1.898   7.176 -0.9634  0.0318 -0.4704
   72CHL1    H3 7736   1.519   1.801   7.188  1.3878 -1.0565  1.7951
   72CHL1    O3 7737   1.571   1.939   7.043  0.6111 -0.5316 -0.7208
   72CHL1   H3' 7738   1.599   2.030   7.052 -0.8368  0.0828 -2.2852
   72CHL1    C4 7739   1.501   1.997   7.265 -0.3951 -0.3570 -1.1975
   72CHL1   H4A 7740   1.539   2.100   7.247 -2.3704 -0.0098 -3.7993
   72CHL1   H4B 7741   1.393   1.998   7.236 -0.8735  0.6331  0.5876
   72CHL1    C5 7742   1.512   1.951   7.409  0.1998  0.2517 -0.3035
   72CHL1    C6 7743   1.399   1.927   7.483 -0.7332  0.7481 -0.6044
   72CHL1    H6 7744   1.295   1.941   7.449 -0.6574  0.1408 -1.0823
   72CHL1    C7 7745   1.404   1.891   7.634  0.8544  0.4487 -0.1931
   72CHL1   H7A 7746   1.331   1.949   7.693 -0.6587 -0.2084 -1.3766
   72CHL1   H7B 7747   1.379   1.784   7.650  0.9940  0.2195 -1.4626
   72CHL1    C8 7748   1.538   1.905   7.699 -0.5780 -0.6152  0.1467
   72CHL1    H8 7749   1.556   2.014   7.714  0.7398 -0.9356  0.9495
   72CHL1   C14 7750   1.539   1.843   7.845  0.0853 -0.1943  0.2838
   72CHL1   H14 7751   1.516   1.736   7.826  1.5366 -0.5450  0.4412
   72CHL1   C15 7752   1.425   1.877   7.940  0.2674 -0.0373 -0.9434
   72CHL1  H15A 7753   1.395   1.984   7.938  1.4639  0.3342  0.4150
   72CHL1  H15B 7754   1.331   1.822   7.916 -0.9024  1.8570 -0.8205
   72CHL1   C16 7755   1.474   1.822   8.074  0.2438  0.1710  0.7595
   72CHL1  H16A 7756   1.476   1.905   8.148 -0.6714 -0.1199  1.1192
   72CHL1  H16B 7757   1.414   1.738   8.115 -0.6082 -0.2472 -1.2992
   72CHL1   C17 7758   1.618   1.761   8.043 -0.4069 -0.2728 -0.2457
   72CHL1   H17 7759   1.610   1.658   8.001  0.2139  0.3256 -1.8849
   72CHL1   C13 7760   1.667   1.843   7.915  0.2016  0.4964 -0.2816
   72CHL1   C18 7761   1.704   1.990   7.964  0.0047 -0.3579  0.6456
   72CHL1  H18A 7762   1.629   2.025   8.037  0.1084  0.1666  0.5021
   72CHL1  H18B 7763   1.806   1.978   8.006  0.1959 -0.9220  0.0304
   72CHL1  H18C 7764   1.695   2.058   7.877  2.5935  1.2074  1.5295
   72CHL1   C12 7765   1.767   1.773   7.826  0.0289 -0.6300  0.3750
   72CHL1  H12A 7766   1.868   1.772   7.872 -0.1513  0.8651  0.8372
   72CHL1  H12B 7767   1.733   1.671   7.800 -1.4097 -0.1362  0.2620
   72CHL1   C11 7768   1.785   1.840   7.680 -0.5051 -0.4130 -0.2753
   72CHL1  H11A 7769   1.801   1.948   7.698 -2.0293 -0.3605  0.8354
   72CHL1  H11B 7770   1.869   1.786   7.630 -0.0372 -0.1159  0.1882
   72CHL1    C9 7771   1.649   1.849   7.606 -0.4949  0.0041 -0.4308
   72CHL1    H9 7772   1.618   1.743   7.595  1.5609 -0.7076  0.3382
   72CHL1   C10 7773   1.649   1.922   7.465  0.3125 -0.3697 -0.4202
   72CHL1   C19 7774   1.715   2.059   7.477  0.6999  0.3096  0.1604
   72CHL1  H19A 7775   1.819   2.046   7.515  0.8396 -1.0020 -0.6536
   72CHL1  H19B 7776   1.725   2.105   7.377 -1.0356 -2.4639 -1.3481
   72CHL1  H19C 7777   1.662   2.124   7.549 -1.5915 -1.7026  0.3390
   72CHL1    C1 7778   1.733   1.833   7.370 -0.4297 -0.0351  0.4331
   72CHL1   H1A 7779   1.838   1.850   7.402 -0.5505 -0.9605  1.3337
   72CHL1   H1B 7780   1.713   1.725   7.385 -1.4152  0.1925  0.7865
   72CHL1    C2 7781   1.718   1.878   7.223  0.6021 -0.2164 -0.0617
   72CHL1   H2A 7782   1.759   1.801   7.154  0.7788 -0.0703 -0.1198
   72CHL1   H2B 7783   1.771   1.973   7.203 -0.6857  0.1216 -2.1258
   72CHL1   C20 7784   1.717   1.754   8.162 -0.4633 -0.4406  0.1472
   72CHL1   H20 7785   1.760   1.850   8.196  0.9584 -1.7069  2.0698
   72CHL1   C21 7786   1.839   1.659   8.132  0.0398 -0.4073 -0.4175
   72CHL1  H21A 7787   1.915   1.645   8.212 -0.9925  0.6934  0.7629
   72CHL1  H21B 7788   1.900   1.697   8.047  2.5695  0.2169  1.6088
   72CHL1  H21C 7789   1.800   1.562   8.094 -2.2193  0.1504  0.4102
   72CHL1   C22 7790   1.642   1.689   8.292 -0.5699 -0.2954  0.1005
   72CHL1  H22A 7791   1.562   1.764   8.310 -2.0504 -2.0831  1.1716
   72CHL1  H22B 7792   1.581   1.605   8.251  1.0249 -0.2173 -2.5651
   72CHL1   C23 7793   1.719   1.649   8.415  0.1524  0.7983 -0.0092
   72CHL1  H23A 7794   1.758   1.546   8.397 -1.4923 -0.6523  4.2500
   72CHL1  H23B 7795   1.807   1.716   8.430 -1.1439  1.8235  3.1753
   72CHL1   C24 7796   1.643   1.657   8.551  0.5782  0.3918  0.4983
   72CHL1  H24A 7797   1.591   1.755   8.557 -2.3583 -0.9989 -1.1690
   72CHL1  H24B 7798   1.567   1.577   8.549  1.0433 -0.0754  1.3302
   72CHL1   C25 7799   1.741   1.650   8.674  0.3536 -0.0262  0.8355
   72CHL1   H25 7800   1.797   1.554   8.674 -1.4337 -1.1080  1.5659
   72CHL1   C26 7801   1.826   1.773   8.696 -0.1068 -0.6907  0.6791
   72CHL1  H26A 7802   1.880   1.778   8.793 -0.3658  0.0824  0.7846
   72CHL1  H26B 7803   1.891   1.789   8.608 -0.0147 -1.3352  0.6290
   72CHL1  H26C 7804   1.754   1.858   8.694  2.3812  1.4641  0.0273
   72CHL1   C27 7805   1.657   1.626   8.798  0.8948 -0.3458 -0.2948
   72CHL1  H27A 7806   1.719   1.597   8.886 -0.0081 -2.0427 -0.2147
   72CHL1  H27B 7807   1.595   1.712   8.831  1.4321 -0.5032  1.1778
   72CHL1  H27C 7808   1.590   1.540   8.782  1.0031 -0.6218  0.7058
   73CHL1    C3 7809   2.046   5.032   7.070  0.0310 -0.3028  0.0246
   73CHL1    H3 7810   2.150   5.047   7.106  0.3169 -1.2643 -0.3854
   73CHL1    O3 7811   2.057   5.024   6.931 -0.1136 -0.3563  0.3580
   73CHL1   H3' 7812   1.988   4.964   6.900 -1.8798  0.4826  2.4658
   73CHL1    C4 7813   1.977   4.900   7.114 -0.8102  0.0610 -0.0205
   73CHL1   H4A 7814   1.882   4.879   7.062  0.0903 -1.6667 -1.0242
   73CHL1   H4B 7815   2.054   4.823   7.090 -2.1082 -1.7154  1.3587
   73CHL1    C5 7816   1.949   4.903   7.262  0.2500  0.1363 -0.3478
   73CHL1    C6 7817   2.007   4.811   7.340  0.4386 -0.3128  0.2058
   73CHL1    H6 7818   2.074   4.732   7.302  0.0516 -0.9189  0.7678
   73CHL1    C7 7819   1.990   4.801   7.489 -0.5887  0.1888 -0.2409
   73CHL1   H7A 7820   1.966   4.696   7.516  0.6424 -0.2110 -0.6662
   73CHL1   H7B 7821   2.084   4.821   7.545 -0.0110  0.6839 -1.3761
   73CHL1    C8 7822   1.884   4.907   7.553  0.8377  0.3287 -0.1704
   73CHL1    H8 7823   1.783   4.863   7.546  0.2547  0.8428  3.8543
   73CHL1   C14 7824   1.916   4.945   7.694 -0.6700  0.1722 -0.2513
   73CHL1   H14 7825   2.017   4.989   7.681 -1.5229  2.4183  0.5412
   73CHL1   C15 7826   1.934   4.830   7.794 -0.2305  0.4435 -0.7495
   73CHL1  H15A 7827   1.843   4.767   7.791  0.2082 -0.1488 -2.6373
   73CHL1  H15B 7828   2.021   4.766   7.769 -1.6546 -1.9828  0.3437
   73CHL1   C16 7829   1.941   4.899   7.926 -0.3123  0.2530 -0.1902
   73CHL1  H16A 7830   1.885   4.855   8.012  3.1643  0.1480  2.1368
   73CHL1  H16B 7831   2.044   4.910   7.968  0.2871 -0.8628 -1.3188
   73CHL1   C17 7832   1.887   5.042   7.902  0.5667 -0.4505  0.3087
   73CHL1   H17 7833   1.979   5.103   7.891  0.2196 -0.0980 -0.7346
   73CHL1   C13 7834   1.825   5.042   7.761 -0.1116  0.4532  0.1338
   73CHL1   C18 7835   1.680   4.981   7.761 -0.6558  0.5496  0.0933
   73CHL1  H18A 7836   1.640   4.966   7.659 -0.2964  2.3559 -0.3467
   73CHL1  H18B 7837   1.673   4.887   7.819  2.2165  0.3577  0.2044
   73CHL1  H18C 7838   1.625   5.064   7.811  2.1319  2.5271  0.0352
   73CHL1   C12 7839   1.836   5.169   7.682 -0.2295 -0.3086 -0.2880
   73CHL1  H12A 7840   1.755   5.236   7.718 -1.1287 -1.6746  0.2501
   73CHL1  H12B 7841   1.927   5.227   7.708 -1.0972  0.8469  0.2509
   73CHL1   C11 7842   1.810   5.147   7.531 -0.1728  0.0209 -0.3781
   73CHL1  H11A 7843   1.705   5.113   7.518 -0.6313  0.3894  2.0193
   73CHL1  H11B 7844   1.820   5.249   7.489  3.7916  0.0247  0.3242
   73CHL1    C9 7845   1.900   5.036   7.473  0.2535 -0.8322  0.2130
   73CHL1    H9 7846   2.004   5.070   7.492 -0.6108  0.1602  3.4043
   73CHL1   C10 7847   1.868   5.021   7.317 -0.6040 -0.2270  0.5708
   73CHL1   C19 7848   1.718   5.001   7.293 -0.0340  0.1991  0.0835
   73CHL1  H19A 7849   1.691   4.956   7.195 -0.2625 -2.0884  1.1526
   73CHL1  H19B 7850   1.675   4.929   7.366 -0.3254 -0.3066 -0.5861
   73CHL1  H19C 7851   1.664   5.097   7.305  1.4673  1.3636 -2.0836
   73CHL1    C1 7852   1.918   5.154   7.249 -0.4012  0.3148 -0.1806
   73CHL1   H1A 7853   1.842   5.235   7.256 -2.6019 -1.8222  1.3261
   73CHL1   H1B 7854   2.007   5.196   7.299 -0.2969  0.0410 -0.1375
   73CHL1    C2 7855   1.945   5.145   7.099 -0.1501 -0.5678  0.6612
   73CHL1   H2A 7856   1.985   5.241   7.061 -2.6616 -1.0913 -3.6850
   73CHL1   H2B 7857   1.848   5.123   7.050  0.3512  0.1164 -0.6512
   73CHL1   C20 7858   1.806   5.098   8.025  1.4407 -0.4555 -0.5235
   73CHL1   H20 7859   1.720   5.028   8.034  0.1890  1.1810  0.3108
   73CHL1   C21 7860   1.752   5.234   7.984  0.6567 -0.4076 -0.9768
   73CHL1  H21A 7861   1.685   5.271   8.065 -0.8850  1.5031 -3.0542
   73CHL1  H21B 7862   1.693   5.236   7.890  1.8381  1.5843 -1.6763
   73CHL1  H21C 7863   1.836   5.304   7.968 -0.5272  0.5352 -3.2174
   73CHL1   C22 7864   1.905   5.112   8.142  1.3918 -0.4843 -0.1053
   73CHL1  H22A 7865   1.953   5.013   8.156 -0.5720 -1.2131  1.8300
   73CHL1  H22B 7866   1.981   5.188   8.114  0.3012  0.5069 -0.3966
   73CHL1   C23 7867   1.822   5.153   8.267 -0.3372 -0.3300  0.3554
   73CHL1  H23A 7868   1.780   5.255   8.256 -1.2388 -0.8662 -1.3681
   73CHL1  H23B 7869   1.729   5.091   8.271  0.4673 -1.5138  1.0148
   73CHL1   C24 7870   1.901   5.167   8.402 -0.0851 -1.1824  0.4229
   73CHL1  H24A 7871   1.838   5.196   8.489  0.4256 -2.1258  1.1243
   73CHL1  H24B 7872   1.950   5.070   8.425 -1.0645 -1.7955 -0.0593
   73CHL1   C25 7873   2.014   5.270   8.394  0.6875  0.7696 -0.2060
   73CHL1   H25 7874   2.083   5.251   8.309  0.3847 -1.7619  0.0751
   73CHL1   C26 7875   1.957   5.419   8.378 -0.6077  0.0233 -0.3097
   73CHL1  H26A 7876   1.923   5.428   8.272  3.6272 -0.3489 -1.7669
   73CHL1  H26B 7877   1.877   5.439   8.453  0.2942  1.5448  0.2639
   73CHL1  H26C 7878   2.037   5.495   8.390 -2.7878  2.3325  0.0023
   73CHL1   C27 7879   2.102   5.262   8.521 -0.0443  0.4657  0.2853
   73CHL1  H27A 7880   2.194   5.322   8.499  0.7227 -1.3220 -1.6126
   73CHL1  H27B 7881   2.056   5.310   8.610 -0.0889  1.2683 -0.1549
   73CHL1  H27C 7882   2.124   5.155   8.538 -0.6015  0.2223 -0.5101
   74CHL1    C3 7883   1.291   3.316   6.742  0.6941  0.2359  0.0684
   74CHL1    H3 7884   1.281   3.426   6.732 -0.3760 -0.0244 -2.0921
   74CHL1    O3 7885   1.332   3.265   6.607  0.1301  0.2544  0.0687
   74CHL1   H3' 7886   1.393   3.192   6.618  0.6480  0.4594 -1.2479
   74CHL1    C4 7887   1.395   3.284   6.849 -0.2765 -0.6939 -0.3772
   74CHL1   H4A 7888   1.416   3.178   6.822 -0.1268 -0.4523 -1.2070
   74CHL1   H4B 7889   1.495   3.329   6.833 -0.2260 -0.1351  1.3408
   74CHL1    C5 7890   1.356   3.291   6.999  0.1185  0.1620 -0.4088
   74CHL1    C6 7891   1.430   3.362   7.091  0.1287  0.0247  0.0064
   74CHL1    H6 7892   1.529   3.400   7.063 -0.0450  1.1100  0.8060
   74CHL1    C7 7893   1.383   3.381   7.231  0.4903  0.1238  0.1758
   74CHL1   H7A 7894   1.472   3.376   7.297 -0.9186 -0.7872  2.0890
   74CHL1   H7B 7895   1.348   3.486   7.236 -0.8431 -0.3242  0.4965
   74CHL1    C8 7896   1.277   3.280   7.270  0.3622 -0.8584  0.6187
   74CHL1    H8 7897   1.324   3.179   7.275  0.7048 -0.6685  1.3632
   74CHL1   C14 7898   1.228   3.321   7.412 -0.6076  0.2444 -0.2794
   74CHL1   H14 7899   1.188   3.424   7.410 -0.1276  0.4713  1.3806
   74CHL1   C15 7900   1.331   3.340   7.525 -0.3606 -0.6709 -0.0438
   74CHL1  H15A 7901   1.404   3.257   7.521 -2.5113 -2.5873 -0.8060
   74CHL1  H15B 7902   1.378   3.440   7.514  0.1311 -0.6396  2.1272
   74CHL1   C16 7903   1.248   3.326   7.651 -0.6229 -0.0329 -0.2911
   74CHL1  H16A 7904   1.293   3.253   7.722  0.4298 -2.1501 -3.0469
   74CHL1  H16B 7905   1.252   3.421   7.708  0.2352 -0.9292  1.2044
   74CHL1   C17 7906   1.101   3.291   7.610 -0.8987  0.2599 -0.7958
   74CHL1   H17 7907   1.036   3.381   7.605 -0.4937  0.5860 -0.2779
   74CHL1   C13 7908   1.114   3.235   7.464 -0.0212  0.2601  0.6617
   74CHL1   C18 7909   1.147   3.087   7.477  0.1977  0.0311 -0.1859
   74CHL1  H18A 7910   1.181   3.057   7.376  0.7373  2.4165 -0.7317
   74CHL1  H18B 7911   1.225   3.071   7.554  0.3685 -0.7478 -0.5076
   74CHL1  H18C 7912   1.063   3.020   7.506  0.4013  0.8737  2.4517
   74CHL1   C12 7913   0.997   3.260   7.368  1.0128 -0.0732 -0.9385
   74CHL1  H12A 7914   0.909   3.201   7.402  0.0405  0.8574 -1.7841
   74CHL1  H12B 7915   0.961   3.365   7.369 -0.6378 -0.6286 -0.8518
   74CHL1   C11 7916   1.026   3.229   7.218  1.1174  0.0083  0.0100
   74CHL1  H11A 7917   1.025   3.118   7.210  3.2661 -0.1140  1.1999
   74CHL1  H11B 7918   0.946   3.275   7.156  0.6838 -0.2669  0.3558
   74CHL1    C9 7919   1.163   3.290   7.168  0.3756 -0.2851  0.4180
   74CHL1    H9 7920   1.145   3.399   7.163 -2.2768 -0.7148 -0.2500
   74CHL1   C10 7921   1.206   3.248   7.027 -0.7494  0.6677  0.0299
   74CHL1   C19 7922   1.229   3.095   7.028 -0.1149  0.6071  0.5277
   74CHL1  H19A 7923   1.130   3.046   7.040  0.3601 -0.3137  0.7325
   74CHL1  H19B 7924   1.265   3.052   6.932  0.1168 -1.2293  1.4203
   74CHL1  H19C 7925   1.291   3.059   7.113  0.3017  0.8039  0.3061
   74CHL1    C1 7926   1.108   3.295   6.917 -0.0114 -0.5668 -0.1954
   74CHL1   H1A 7927   1.009   3.245   6.927 -0.0819 -0.0668  1.7942
   74CHL1   H1B 7928   1.097   3.405   6.925  1.1524 -0.4520 -0.0281
   74CHL1    C2 7929   1.157   3.248   6.776 -0.0360 -0.2668  0.3233
   74CHL1   H2A 7930   1.083   3.292   6.706  0.5179 -0.2241 -0.2345
   74CHL1   H2B 7931   1.163   3.138   6.766 -0.2831 -0.2523  0.0125
   74CHL1   C20 7932   1.021   3.223   7.729 -0.0997 -0.3293 -0.4217
   74CHL1   H20 7933   1.083   3.135   7.756 -0.1500  0.4001  2.2923
   74CHL1   C21 7934   0.879   3.182   7.689  0.7385 -0.0376  0.0266
   74CHL1  H21A 7935   0.823   3.276   7.674 -0.2894 -0.7612 -0.7726
   74CHL1  H21B 7936   0.820   3.128   7.767  1.4009  0.0265  0.5702
   74CHL1  H21C 7937   0.880   3.110   7.604 -2.2945  1.1296 -1.0811
   74CHL1   C22 7938   1.013   3.321   7.856  0.2126 -0.9255  0.3204
   74CHL1  H22A 7939   1.106   3.378   7.875  0.4276 -1.2958  0.3821
   74CHL1  H22B 7940   0.935   3.393   7.823 -0.5975 -0.9933  2.0436
   74CHL1   C23 7941   0.963   3.257   7.986  0.2365 -0.1119  0.2123
   74CHL1  H23A 7942   0.868   3.205   7.959  0.4722  0.0620 -1.0155
   74CHL1  H23B 7943   1.040   3.182   8.014  3.4491  2.9122 -0.2801
   74CHL1   C24 7944   0.941   3.348   8.110  0.3994 -0.6732 -0.1528
   74CHL1  H24A 7945   1.039   3.395   8.132  0.1945 -0.3940  0.1735
   74CHL1  H24B 7946   0.881   3.438   8.087  1.9001  0.8414  1.7849
   74CHL1   C25 7947   0.908   3.278   8.247  0.3813 -0.0162 -0.8100
   74CHL1   H25 7948   0.992   3.206   8.258  0.2052 -0.0269  0.4804
   74CHL1   C26 7949   0.906   3.375   8.369  0.2505 -0.6520  0.2323
   74CHL1  H26A 7950   0.897   3.312   8.461 -0.3432 -0.5081  0.2756
   74CHL1  H26B 7951   1.003   3.428   8.370  0.5319 -1.1475 -0.3524
   74CHL1  H26C 7952   0.829   3.454   8.353  0.2169 -0.7486 -0.0887
   74CHL1   C27 7953   0.778   3.202   8.245  0.3562  0.1440  0.0574
   74CHL1  H27A 7954   0.785   3.136   8.334  2.0851  0.5080  0.2026
   74CHL1  H27B 7955   0.684   3.261   8.244 -0.7474 -1.5631  0.6507
   74CHL1  H27C 7956   0.782   3.140   8.153  2.9927  0.6596 -0.2182
   75CHL1    C3 7957   3.928   6.078   6.902  0.3518 -0.0312  0.1656
   75CHL1    H3 7958   3.997   5.991   6.898 -0.2385 -0.4935 -0.1424
   75CHL1    O3 7959   3.895   6.120   6.774 -0.2179  0.2586 -0.6538
   75CHL1   H3' 7960   3.839   6.197   6.784  1.3468  1.3830 -0.4110
   75CHL1    C4 7961   3.796   6.033   6.973  0.5917 -0.6035 -0.5071
   75CHL1   H4A 7962   3.728   6.120   6.973  1.5894  0.2053 -2.4503
   75CHL1   H4B 7963   3.743   5.955   6.915  0.4577 -1.3382  0.5929
   75CHL1    C5 7964   3.814   5.985   7.118  0.5034 -0.0268  0.2334
   75CHL1    C6 7965   3.778   5.858   7.150 -0.0742 -0.3484 -0.1796
   75CHL1    H6 7966   3.745   5.790   7.070 -3.2162  1.6248 -0.6282
   75CHL1    C7 7967   3.785   5.808   7.293 -0.5853 -0.4524 -0.0672
   75CHL1   H7A 7968   3.688   5.763   7.322 -3.0495  3.5165 -1.8166
   75CHL1   H7B 7969   3.869   5.735   7.303 -0.5963 -0.8816 -2.6378
   75CHL1    C8 7970   3.824   5.922   7.394 -0.4141  0.2722 -0.2890
   75CHL1    H8 7971   3.737   5.981   7.429  0.3052 -0.1743  2.3270
   75CHL1   C14 7972   3.880   5.861   7.522 -0.5768  0.5015 -0.3309
   75CHL1   H14 7973   3.972   5.805   7.499  0.6724  2.5265 -0.3745
   75CHL1   C15 7974   3.793   5.760   7.600 -0.1034 -0.1248  0.2250
   75CHL1  H15A 7975   3.698   5.811   7.629 -0.9671 -0.2552 -2.2544
   75CHL1  H15B 7976   3.777   5.664   7.548 -0.2660 -0.9228  1.7024
   75CHL1   C16 7977   3.866   5.742   7.737  0.1284  0.0834 -0.9377
   75CHL1  H16A 7978   3.795   5.733   7.822  1.7009 -1.8946  0.2294
   75CHL1  H16B 7979   3.922   5.646   7.736  1.0462  0.6211 -2.0621
   75CHL1   C17 7980   3.971   5.850   7.743  0.7056 -0.2904 -0.1192
   75CHL1   H17 7981   4.068   5.809   7.709  0.8407 -2.6125  2.9088
   75CHL1   C13 7982   3.931   5.954   7.631 -0.1872  0.0293  0.3160
   75CHL1   C18 7983   3.815   6.049   7.686 -0.7330 -0.1975 -0.0457
   75CHL1  H18A 7984   3.864   6.114   7.762 -4.0796 -0.6067  2.5473
   75CHL1  H18B 7985   3.752   6.101   7.611 -2.1009  1.2042  2.0064
   75CHL1  H18C 7986   3.747   5.976   7.736 -2.4404  0.2051 -1.7389
   75CHL1   C12 7987   4.041   6.036   7.563  0.6308  0.2452  0.7495
   75CHL1  H12A 7988   4.089   6.093   7.646 -0.2015  1.0748  0.6634
   75CHL1  H12B 7989   4.115   5.966   7.519 -1.3572 -0.3510 -1.7424
   75CHL1   C11 7990   3.979   6.113   7.450 -0.5612 -0.2237  0.0770
   75CHL1  H11A 7991   3.898   6.179   7.487 -2.2727 -1.4588 -1.3504
   75CHL1  H11B 7992   4.052   6.184   7.407 -2.5373  2.3307  0.8285
   75CHL1    C9 7993   3.930   6.019   7.338  0.0015 -0.2896  0.3246
   75CHL1    H9 7994   4.019   5.956   7.318  0.4530  0.8380 -1.2674
   75CHL1   C10 7995   3.888   6.088   7.202  0.0517 -0.2772 -0.5873
   75CHL1   C19 7996   3.782   6.204   7.231  0.3051  0.5460  0.2666
   75CHL1  H19A 7997   3.756   6.265   7.141  3.5545  1.7120  0.0781
   75CHL1  H19B 7998   3.685   6.167   7.271  0.4172 -0.9902 -0.8469
   75CHL1  H19C 7999   3.830   6.278   7.299 -2.5802  1.1040  1.7817
   75CHL1    C1 8000   4.019   6.144   7.133 -0.3282  0.1027 -0.5812
   75CHL1   H1A 8001   4.053   6.230   7.195  0.1834 -0.2195 -0.4110
   75CHL1   H1B 8002   4.101   6.070   7.117 -0.3719  0.0658 -0.6292
   75CHL1    C2 8003   3.992   6.194   6.988 -0.2814  0.1731 -0.1275
   75CHL1   H2A 8004   4.088   6.221   6.938  0.4654  1.3682  1.9057
   75CHL1   H2B 8005   3.932   6.288   6.986 -2.6853 -1.3023  0.7070
   75CHL1   C20 8006   3.993   5.889   7.891 -0.4086  0.5233  0.1037
   75CHL1   H20 8007   3.893   5.903   7.936 -0.6341  2.4022 -0.9480
   75CHL1   C21 8008   4.088   6.016   7.909  0.2476  1.2045 -0.4154
   75CHL1  H21A 8009   4.191   5.995   7.873 -0.4466 -0.7950 -1.2641
   75CHL1  H21B 8010   4.092   6.043   8.017 -0.6147  1.2085 -0.3833
   75CHL1  H21C 8011   4.044   6.107   7.862  0.2275  1.5215  0.2086
   75CHL1   C22 8012   4.051   5.765   7.963 -0.3328 -0.1651  0.8440
   75CHL1  H22A 8013   3.994   5.671   7.950  1.4070 -1.6601  3.4552
   75CHL1  H22B 8014   4.146   5.747   7.908  1.1180  1.7078  2.6497
   75CHL1   C23 8015   4.082   5.780   8.115 -0.5228  0.1680 -0.3684
   75CHL1  H23A 8016   4.140   5.687   8.135 -0.7923 -0.2812 -1.6115
   75CHL1  H23B 8017   4.143   5.872   8.128  0.2791 -0.8055  3.3504
   75CHL1   C24 8018   3.956   5.766   8.204 -0.0462  0.1830 -1.0072
   75CHL1  H24A 8019   3.889   5.849   8.173 -0.3748 -0.1929 -1.3156
   75CHL1  H24B 8020   3.900   5.670   8.196  0.1829  0.1059 -1.7210
   75CHL1   C25 8021   3.980   5.796   8.355 -0.0629 -0.5000 -0.7549
   75CHL1   H25 8022   4.035   5.705   8.387  3.4179  2.7229  3.0137
   75CHL1   C26 8023   4.068   5.918   8.374 -0.0473  0.8039 -0.8970
   75CHL1  H26A 8024   4.172   5.899   8.341 -0.4334 -1.1455 -1.0378
   75CHL1  H26B 8025   4.036   6.012   8.324  1.8199  2.2691  0.5500
   75CHL1  H26C 8026   4.069   5.944   8.482 -0.3469 -0.2144 -0.6493
   75CHL1   C27 8027   3.848   5.803   8.440 -0.1322  0.0008  0.6133
   75CHL1  H27A 8028   3.785   5.712   8.429 -2.5808  1.7194  0.0554
   75CHL1  H27B 8029   3.873   5.800   8.548 -1.2618 -1.7474  0.8419
   75CHL1  H27C 8030   3.781   5.885   8.406 -0.6291 -0.3016  0.8599
   76CHL1    C3 8031   0.648   6.739   7.434  0.3164 -0.5135 -0.1611
   76CHL1    H3 8032   0.573   6.804   7.384  0.3904 -1.0662 -1.0049
   76CHL1    O3 8033   0.675   6.641   7.336  0.0760 -0.2709  0.2858
   76CHL1   H3' 8034   0.719   6.683   7.262 -0.9848  0.7949  0.2406
   76CHL1    C4 8035   0.771   6.825   7.453 -0.4415  0.3322 -0.2274
   76CHL1   H4A 8036   0.849   6.750   7.480 -0.9043  0.3515  1.2008
   76CHL1   H4B 8037   0.788   6.878   7.357 -3.0273  2.4933  0.4491
   76CHL1    C5 8038   0.756   6.920   7.571 -0.9476 -0.3139  0.0159
   76CHL1    C6 8039   0.783   7.048   7.556  0.0514 -0.4322  0.1079
   76CHL1    H6 8040   0.823   7.077   7.457 -0.7859 -0.0158 -0.1125
   76CHL1    C7 8041   0.771   7.154   7.660 -0.3141  0.4476 -0.4083
   76CHL1   H7A 8042   0.862   7.217   7.657  1.1222 -1.2553  3.4925
   76CHL1   H7B 8043   0.681   7.214   7.638 -0.9907 -0.6131 -0.5910
   76CHL1    C8 8044   0.752   7.099   7.809  0.2155  0.4708 -0.2846
   76CHL1    H8 8045   0.847   7.057   7.849  0.7824  1.3046 -0.7372
   76CHL1   C14 8046   0.698   7.217   7.897 -0.7106  0.8748  0.1417
   76CHL1   H14 8047   0.599   7.237   7.851 -1.2336 -1.3547  0.2385
   76CHL1   C15 8048   0.776   7.344   7.900 -0.2193 -0.1573  0.5828
   76CHL1  H15A 8049   0.884   7.331   7.877 -0.5325 -3.7145  0.9130
   76CHL1  H15B 8050   0.734   7.406   7.818  0.2484 -0.7837 -0.1436
   76CHL1   C16 8051   0.736   7.395   8.039  0.3178  0.2657  0.8914
   76CHL1  H16A 8052   0.832   7.389   8.094 -0.0355 -2.2346  1.2923
   76CHL1  H16B 8053   0.699   7.499   8.022  0.5370  0.1776 -0.1902
   76CHL1   C17 8054   0.628   7.306   8.093 -0.0251  0.5487 -0.4329
   76CHL1   H17 8055   0.529   7.330   8.049 -0.2538  2.4317  1.0918
   76CHL1   C13 8056   0.674   7.171   8.039  0.0862  0.1364 -0.3435
   76CHL1   C18 8057   0.807   7.128   8.116 -0.1272 -0.0570 -0.4277
   76CHL1  H18A 8058   0.832   7.026   8.083  2.0535  0.7622 -1.4142
   76CHL1  H18B 8059   0.900   7.188   8.106  0.6914 -1.1638  0.4342
   76CHL1  H18C 8060   0.778   7.120   8.223  1.3506 -1.1151 -0.0986
   76CHL1   C12 8061   0.574   7.055   8.035 -0.6430  0.0172 -0.6659
   76CHL1  H12A 8062   0.556   7.010   8.135 -0.6856  0.4632 -0.4754
   76CHL1  H12B 8063   0.475   7.102   8.014  0.3824  2.4003 -0.1874
   76CHL1   C11 8064   0.607   6.940   7.941 -0.4163  0.4086  0.0168
   76CHL1  H11A 8065   0.694   6.894   7.993 -0.4885  1.2014  0.8394
   76CHL1  H11B 8066   0.523   6.869   7.926 -1.0054  1.1941 -0.4360
   76CHL1    C9 8067   0.651   6.989   7.801  0.0894 -0.1133 -0.3993
   76CHL1    H9 8068   0.553   7.028   7.766 -0.1690 -0.0518  0.3867
   76CHL1   C10 8069   0.698   6.870   7.706  0.2455 -0.0290  0.0926
   76CHL1   C19 8070   0.816   6.796   7.775 -0.3313 -0.5281  0.2762
   76CHL1  H19A 8071   0.864   6.716   7.715  0.1657  0.6084 -0.8689
   76CHL1  H19B 8072   0.900   6.860   7.813 -0.0267 -0.5143 -0.4129
   76CHL1  H19C 8073   0.768   6.755   7.866 -0.9721  2.5217  1.3972
   76CHL1    C1 8074   0.573   6.774   7.676 -0.8326 -0.0991  0.1095
   76CHL1   H1A 8075   0.546   6.720   7.769  0.5364  2.0374  1.7999
   76CHL1   H1B 8076   0.480   6.827   7.644 -1.4210  0.7611  3.1443
   76CHL1    C2 8077   0.613   6.672   7.568 -0.6153  0.1108 -0.1990
   76CHL1   H2A 8078   0.536   6.596   7.539  1.0241 -0.8976 -2.0027
   76CHL1   H2B 8079   0.704   6.623   7.608  1.4543  3.4436 -0.6611
   76CHL1   C20 8080   0.608   7.325   8.244 -0.4887 -0.1404  1.1058
   76CHL1   H20 8081   0.706   7.306   8.293  0.3845 -0.8368 -0.8862
   76CHL1   C21 8082   0.511   7.220   8.306 -0.1550 -0.1263 -0.4329
   76CHL1  H21A 8083   0.494   7.247   8.413  1.8585  0.2871 -0.1888
   76CHL1  H21B 8084   0.554   7.117   8.308 -0.3076 -0.2212 -2.0063
   76CHL1  H21C 8085   0.419   7.211   8.245 -0.4355  0.2279 -0.0663
   76CHL1   C22 8086   0.554   7.468   8.274  1.0614 -0.1355  0.4176
   76CHL1  H22A 8087   0.610   7.550   8.225 -1.2457  0.2723 -1.6179
   76CHL1  H22B 8088   0.450   7.471   8.237  1.2997  1.2601 -0.1789
   76CHL1   C23 8089   0.553   7.501   8.430 -0.2853  0.1577  0.2407
   76CHL1  H23A 8090   0.487   7.440   8.495 -0.6960  0.7472  0.3772
   76CHL1  H23B 8091   0.656   7.488   8.472 -0.8991 -0.0367  1.7160
   76CHL1   C24 8092   0.521   7.651   8.448 -0.1275 -0.4044  0.4620
   76CHL1  H24A 8093   0.599   7.707   8.392 -1.1039  1.1512  0.6558
   76CHL1  H24B 8094   0.424   7.676   8.400  1.0710  0.5212 -1.5355
   76CHL1   C25 8095   0.517   7.699   8.592 -0.2057  0.2990  0.6688
   76CHL1   H25 8096   0.613   7.671   8.642 -1.8191 -2.3152  2.4357
   76CHL1   C26 8097   0.504   7.850   8.609  0.0947 -0.0552 -0.0182
   76CHL1  H26A 8098   0.408   7.883   8.564  0.4429  3.0492  1.3762
   76CHL1  H26B 8099   0.500   7.886   8.714  1.1270  1.9025 -0.6302
   76CHL1  H26C 8100   0.583   7.916   8.568  1.5488 -1.2211  0.8671
   76CHL1   C27 8101   0.398   7.638   8.668 -0.3646  0.0893  0.7277
   76CHL1  H27A 8102   0.390   7.671   8.774  0.3656 -0.1779  0.8686
   76CHL1  H27B 8103   0.303   7.654   8.612  2.0258  0.6841 -3.3131
   76CHL1  H27C 8104   0.424   7.530   8.672 -0.9121 -0.0850 -0.2495
   77CHL1    C3 8105   1.447   5.511   6.915 -0.3152 -0.6484 -0.7427
   77CHL1    H3 8106   1.537   5.572   6.935  0.3330 -1.5996 -0.6876
   77CHL1    O3 8107   1.438   5.489   6.776  0.3602  0.3343  0.0714
   77CHL1   H3' 8108   1.351   5.450   6.767  1.3763 -2.2372  1.0343
   77CHL1    C4 8109   1.431   5.375   6.982 -0.1872  0.1277 -0.0754
   77CHL1   H4A 8110   1.339   5.321   6.952 -0.3758 -0.7154  1.9210
   77CHL1   H4B 8111   1.505   5.304   6.939 -1.0764 -1.0768  0.3652
   77CHL1    C5 8112   1.435   5.392   7.133 -0.3956 -0.2828 -0.0378
   77CHL1    C6 8113   1.540   5.341   7.209 -0.2545 -0.0203 -1.0323
   77CHL1    H6 8114   1.619   5.281   7.162  0.5218  0.5224 -0.4455
   77CHL1    C7 8115   1.549   5.349   7.361 -0.1238  0.3568  0.2250
   77CHL1   H7A 8116   1.563   5.254   7.416 -2.1565 -1.2116 -1.9080
   77CHL1   H7B 8117   1.616   5.433   7.392 -2.1520  1.0886  2.7825
   77CHL1    C8 8118   1.416   5.400   7.424 -0.8350  0.4880  0.4785
   77CHL1    H8 8119   1.335   5.327   7.437 -0.5568 -0.0744 -0.8502
   77CHL1   C14 8120   1.440   5.450   7.568  0.7140 -0.0506 -0.3095
   77CHL1   H14 8121   1.506   5.539   7.562  0.1118  0.3159 -2.0051
   77CHL1   C15 8122   1.519   5.363   7.672 -0.4546  0.9037  0.8648
   77CHL1  H15A 8123   1.499   5.255   7.654  1.8805 -0.2612  4.6383
   77CHL1  H15B 8124   1.629   5.379   7.669 -0.3816  0.1314 -1.1536
   77CHL1   C16 8125   1.466   5.405   7.811  0.2696 -0.3852 -0.1270
   77CHL1  H16A 8126   1.414   5.314   7.849  0.5823 -0.4251  0.2110
   77CHL1  H16B 8127   1.549   5.419   7.884  0.1270 -0.7822  0.1173
   77CHL1   C17 8128   1.359   5.522   7.789 -0.3635  0.8336 -0.3246
   77CHL1   H17 8129   1.426   5.611   7.789  0.4401  0.2466  1.2757
   77CHL1   C13 8130   1.310   5.497   7.641 -0.3037 -0.0122  0.5747
   77CHL1   C18 8131   1.193   5.394   7.640 -0.3393  0.0874 -0.4773
   77CHL1  H18A 8132   1.233   5.305   7.692  1.2218  1.3768  0.5904
   77CHL1  H18B 8133   1.106   5.445   7.687 -1.3860 -0.4242 -1.8152
   77CHL1  H18C 8134   1.161   5.365   7.537  1.3772 -0.4433 -0.8725
   77CHL1   C12 8135   1.269   5.624   7.564  0.2272  0.4731  0.0354
   77CHL1  H12A 8136   1.176   5.665   7.609  1.4799 -0.9588  4.1537
   77CHL1  H12B 8137   1.353   5.696   7.571  0.1767  0.5527 -0.1779
   77CHL1   C11 8138   1.248   5.591   7.413 -0.1124  0.0167 -0.4471
   77CHL1  H11A 8139   1.151   5.538   7.415  0.0212 -0.2292  2.1983
   77CHL1  H11B 8140   1.230   5.692   7.369 -1.5382 -0.6620 -1.4302
   77CHL1    C9 8141   1.362   5.518   7.340 -0.2571  0.1288 -0.3111
   77CHL1    H9 8142   1.453   5.581   7.349 -0.3212  0.1235  0.3744
   77CHL1   C10 8143   1.329   5.483   7.197 -0.3569  0.1650 -0.4743
   77CHL1   C19 8144   1.193   5.407   7.196  0.1845  0.5953 -0.1471
   77CHL1  H19A 8145   1.193   5.311   7.251 -0.9876  0.6203 -0.0944
   77CHL1  H19B 8146   1.103   5.469   7.217 -0.3713 -0.1978 -0.1741
   77CHL1  H19C 8147   1.178   5.380   7.089  0.7067  2.4786 -0.7222
   77CHL1    C1 8148   1.316   5.615   7.113 -0.4691 -0.1703 -0.1345
   77CHL1   H1A 8149   1.210   5.640   7.137 -0.7844 -0.9017 -0.7477
   77CHL1   H1B 8150   1.377   5.701   7.146 -1.9198  0.7604  0.1977
   77CHL1    C2 8151   1.326   5.604   6.956  0.0793 -0.1700 -0.1994
   77CHL1   H2A 8152   1.345   5.709   6.926 -0.3166 -0.2767 -0.8173
   77CHL1   H2B 8153   1.229   5.574   6.912 -1.5373  1.3689  2.1599
   77CHL1   C20 8154   1.254   5.553   7.894  0.1219  0.8640 -0.1129
   77CHL1   H20 8155   1.158   5.499   7.876  0.9299 -0.2224 -1.2450
   77CHL1   C21 8156   1.226   5.702   7.895  0.6519  0.5941 -0.1817
   77CHL1  H21A 8157   1.311   5.764   7.931 -1.1376  1.3858  2.8025
   77CHL1  H21B 8158   1.137   5.719   7.959 -1.9221 -0.1840 -3.4152
   77CHL1  H21C 8159   1.193   5.746   7.799  3.0088 -0.2983 -1.4550
   77CHL1   C22 8160   1.300   5.513   8.036  0.9236  0.2290 -0.9384
   77CHL1  H22A 8161   1.359   5.419   8.031 -1.7506 -1.4980 -0.7593
   77CHL1  H22B 8162   1.368   5.595   8.069  0.2156 -0.0799  1.4292
   77CHL1   C23 8163   1.187   5.489   8.130  0.2714  0.0193 -0.4559
   77CHL1  H23A 8164   1.230   5.473   8.231 -0.3086 -2.1267 -0.5317
   77CHL1  H23B 8165   1.127   5.582   8.139  1.7691  0.8597  1.1306
   77CHL1   C24 8166   1.103   5.363   8.093 -0.8556 -0.1995  0.0314
   77CHL1  H24A 8167   1.056   5.374   7.993 -1.4972 -1.8490  0.1274
   77CHL1  H24B 8168   1.172   5.275   8.093  0.3657  0.7377  0.7842
   77CHL1   C25 8169   0.983   5.308   8.183 -0.1256  0.2562 -0.6011
   77CHL1   H25 8170   0.888   5.363   8.163 -0.8357 -1.3595 -1.7976
   77CHL1   C26 8171   0.955   5.163   8.150 -0.3436 -0.4626  0.6943
   77CHL1  H26A 8172   1.037   5.091   8.171 -0.3561 -0.6119  0.2221
   77CHL1  H26B 8173   0.878   5.134   8.225  0.4741 -4.2424  0.1768
   77CHL1  H26C 8174   0.916   5.139   8.049  0.7630  0.6167 -0.0014
   77CHL1   C27 8175   1.021   5.326   8.335 -0.3251 -0.2209 -0.1799
   77CHL1  H27A 8176   1.120   5.284   8.362 -0.8704 -1.7949 -0.5926
   77CHL1  H27B 8177   1.033   5.435   8.352  3.2471 -0.6316  0.3616
   77CHL1  H27C 8178   0.938   5.297   8.403 -0.5923  0.3950 -0.2380
   78CHL1    C3 8179   3.682   0.752   6.667  0.8109 -0.6237  0.0011
   78CHL1    H3 8180   3.645   0.647   6.671  0.6654 -0.5206  1.7659
   78CHL1    O3 8181   3.649   0.811   6.540 -0.3370  0.5952 -0.0806
   78CHL1   H3' 8182   3.671   0.737   6.484  0.3529 -0.7529  1.9127
   78CHL1    C4 8183   3.613   0.828   6.787  0.2636 -0.3024  0.2957
   78CHL1   H4A 8184   3.665   0.926   6.777  1.3933 -1.0674 -1.5263
   78CHL1   H4B 8185   3.504   0.847   6.773  0.1352 -0.9132  0.4738
   78CHL1    C5 8186   3.662   0.793   6.928 -0.2953 -0.5781 -0.5311
   78CHL1    C6 8187   3.568   0.762   7.020 -0.1569 -0.3119  0.0338
   78CHL1    H6 8188   3.461   0.764   6.993  0.0056 -2.7527 -1.0081
   78CHL1    C7 8189   3.601   0.719   7.156 -0.4037  0.3962 -0.7826
   78CHL1   H7A 8190   3.558   0.789   7.230 -1.4428 -0.3291 -0.6865
   78CHL1   H7B 8191   3.563   0.618   7.185  3.5886 -0.4529  1.8174
   78CHL1    C8 8192   3.753   0.722   7.189 -0.5409  0.4607  0.5106
   78CHL1    H8 8193   3.786   0.825   7.213  2.5046 -0.7444  1.7063
   78CHL1   C14 8194   3.787   0.642   7.308  0.0543 -0.1676  0.8155
   78CHL1   H14 8195   3.771   0.537   7.275  1.6955 -0.2668  0.3124
   78CHL1   C15 8196   3.701   0.650   7.432 -0.7727  0.4330  0.6789
   78CHL1  H15A 8197   3.661   0.753   7.449  0.6941  0.9220  1.2490
   78CHL1  H15B 8198   3.615   0.581   7.415 -0.8860  0.4849  1.0372
   78CHL1   C16 8199   3.785   0.597   7.543 -0.8844  0.8058 -0.0172
   78CHL1  H16A 8200   3.805   0.683   7.611  1.6914 -0.6710  1.1376
   78CHL1  H16B 8201   3.750   0.524   7.619  1.8706 -0.1244  0.4113
   78CHL1   C17 8202   3.924   0.562   7.478 -0.9052 -0.3293  0.7875
   78CHL1   H17 8203   3.916   0.454   7.453 -0.0777 -0.5324  1.3802
   78CHL1   C13 8204   3.937   0.641   7.347  0.6783  0.8297  0.1073
   78CHL1   C18 8205   3.970   0.783   7.395 -0.4080 -0.6758  0.0436
   78CHL1  H18A 8206   3.968   0.862   7.316  1.2725  0.8585  1.4864
   78CHL1  H18B 8207   3.891   0.829   7.458 -0.0682  1.4040 -0.9978
   78CHL1  H18C 8208   4.068   0.780   7.446  0.5420  0.9564 -1.6118
   78CHL1   C12 8209   4.018   0.584   7.231  0.7551 -0.0454  0.6479
   78CHL1  H12A 8210   4.126   0.601   7.253  1.2300  2.3362 -3.0221
   78CHL1  H12B 8211   3.989   0.477   7.219 -0.9103  0.3943  0.6384
   78CHL1   C11 8212   3.990   0.666   7.107 -0.0237 -0.1875  0.9440
   78CHL1  H11A 8213   4.024   0.771   7.121 -2.0669  0.7113 -0.5802
   78CHL1  H11B 8214   4.055   0.622   7.029 -0.7625 -0.1437  0.2972
   78CHL1    C9 8215   3.836   0.673   7.071 -0.0270 -0.6138 -0.7057
   78CHL1    H9 8216   3.797   0.573   7.043 -1.7262 -0.0090 -0.5897
   78CHL1   C10 8217   3.809   0.753   6.944 -0.3752 -0.2681 -0.1754
   78CHL1   C19 8218   3.887   0.889   6.939 -0.4985 -0.4325 -0.3520
   78CHL1  H19A 8219   3.866   0.944   6.844  0.2091  0.9542  0.2837
   78CHL1  H19B 8220   3.853   0.948   7.027  0.3557 -0.5937  0.0846
   78CHL1  H19C 8221   3.996   0.871   6.932 -0.2308  1.8119 -3.6568
   78CHL1    C1 8222   3.856   0.668   6.823 -0.0511 -0.0202 -0.2496
   78CHL1   H1A 8223   3.964   0.648   6.838 -0.4260  0.6430  3.9030
   78CHL1   H1B 8224   3.800   0.572   6.821  1.3912 -0.8674 -2.3923
   78CHL1    C2 8225   3.830   0.735   6.687 -1.0029 -0.2070  0.2326
   78CHL1   H2A 8226   3.877   0.684   6.600  0.9058  1.8054  0.0549
   78CHL1   H2B 8227   3.895   0.824   6.688  1.3158 -1.8546  1.1067
   78CHL1   C20 8228   4.044   0.560   7.581 -0.5664 -0.0296 -0.6407
   78CHL1   H20 8229   4.075   0.663   7.605  0.6988 -0.4507 -0.4190
   78CHL1   C21 8230   4.162   0.487   7.508  0.0461  0.9395 -0.0387
   78CHL1  H21A 8231   4.242   0.459   7.580 -1.9906 -4.8070  0.3041
   78CHL1  H21B 8232   4.205   0.553   7.429 -1.1452 -0.1550 -1.6354
   78CHL1  H21C 8233   4.132   0.393   7.456 -0.4709  0.2728  1.4308
   78CHL1   C22 8234   4.008   0.494   7.719  0.3245  0.2987 -1.0388
   78CHL1  H22A 8235   3.909   0.523   7.761  0.7482 -1.7829  1.5147
   78CHL1  H22B 8236   4.025   0.384   7.712  2.0677  0.3435  1.8883
   78CHL1   C23 8237   4.114   0.527   7.826  0.4726 -0.4599  0.1807
   78CHL1  H23A 8238   4.200   0.463   7.798 -0.2180 -0.4262 -2.2024
   78CHL1  H23B 8239   4.143   0.634   7.814 -1.4038 -0.0610 -1.0032
   78CHL1   C24 8240   4.065   0.490   7.962 -0.0312  0.1434 -0.2522
   78CHL1  H24A 8241   4.018   0.581   8.005  0.0869  0.1195 -0.0728
   78CHL1  H24B 8242   3.985   0.412   7.960  1.4178 -1.3605 -0.5087
   78CHL1   C25 8243   4.188   0.446   8.053  0.4750  0.3635  0.2381
   78CHL1   H25 8244   4.279   0.502   8.027  0.1159  0.6016 -0.5158
   78CHL1   C26 8245   4.154   0.465   8.198 -0.4019 -0.0049 -0.1484
   78CHL1  H26A 8246   4.117   0.570   8.207 -1.3084 -0.1618 -1.9066
   78CHL1  H26B 8247   4.061   0.411   8.227 -0.0811 -0.2288  0.4844
   78CHL1  H26C 8248   4.235   0.453   8.273  0.7467  0.8644 -1.2340
   78CHL1   C27 8249   4.225   0.294   8.033  0.1150 -0.1757  0.8135
   78CHL1  H27A 8250   4.260   0.279   7.929 -1.7492  0.8575  0.0205
   78CHL1  H27B 8251   4.316   0.278   8.095 -0.1118 -1.6938  0.7797
   78CHL1  H27C 8252   4.146   0.220   8.060 -1.6201  1.2384 -0.3320
   79CHL1    C3 8253   1.823   6.673   7.170 -0.8133  0.0688  0.8226
   79CHL1    H3 8254   1.732   6.614   7.195 -0.3860 -2.1406 -2.5450
   79CHL1    O3 8255   1.808   6.692   7.029  0.6710 -0.1114 -0.4147
   79CHL1   H3' 8256   1.729   6.747   7.028 -0.0066 -1.0167  1.1512
   79CHL1    C4 8257   1.837   6.806   7.237  0.2948  0.1770 -0.0498
   79CHL1   H4A 8258   1.916   6.865   7.187  0.3995 -0.3894 -0.5506
   79CHL1   H4B 8259   1.742   6.862   7.221 -0.5284 -1.4614 -1.0334
   79CHL1    C5 8260   1.863   6.800   7.386  0.1953  0.0419 -0.2526
   79CHL1    C6 8261   1.790   6.856   7.480  0.2906  0.5416  0.4161
   79CHL1    H6 8262   1.709   6.923   7.447 -0.7812 -0.3510  1.1717
   79CHL1    C7 8263   1.813   6.848   7.624 -0.2624 -0.2383  0.4699
   79CHL1   H7A 8264   1.817   6.955   7.651 -0.6602  0.6274 -2.7100
   79CHL1   H7B 8265   1.722   6.808   7.675 -0.0216  0.7880  1.7236
   79CHL1    C8 8266   1.937   6.773   7.663  0.0837 -0.2275  0.5096
   79CHL1    H8 8267   2.015   6.851   7.652  1.7956 -1.5965  2.4258
   79CHL1   C14 8268   1.929   6.732   7.807 -0.3782 -0.5079  0.0485
   79CHL1   H14 8269   1.845   6.660   7.814 -0.4720 -0.5443 -1.3455
   79CHL1   C15 8270   1.892   6.842   7.910 -0.3580 -0.0341  0.2573
   79CHL1  H15A 8271   1.954   6.933   7.900 -0.4401  0.1216  1.1165
   79CHL1  H15B 8272   1.787   6.879   7.914 -1.7861 -3.9690  3.6246
   79CHL1   C16 8273   1.933   6.782   8.048 -0.2475  0.0187 -0.4462
   79CHL1  H16A 8274   1.979   6.859   8.113  0.5303  1.1429 -2.2964
   79CHL1  H16B 8275   1.840   6.745   8.097  0.7953 -1.8056  0.2156
   79CHL1   C17 8276   2.033   6.668   8.021  0.0541  0.4949 -0.6455
   79CHL1   H17 8277   1.981   6.572   8.041 -0.6809  1.4896  2.4970
   79CHL1   C13 8278   2.060   6.673   7.867  0.6170 -0.3896  0.3816
   79CHL1   C18 8279   2.180   6.769   7.847  0.5397  1.3752  0.4129
   79CHL1  H18A 8280   2.269   6.718   7.889 -1.4737 -1.8268  0.9586
   79CHL1  H18B 8281   2.198   6.794   7.740  0.6277  1.4049  0.4349
   79CHL1  H18C 8282   2.160   6.864   7.900  0.3709  0.7913  1.4177
   79CHL1   C12 8283   2.076   6.543   7.784  0.6248 -1.0827 -0.3119
   79CHL1  H12A 8284   2.171   6.493   7.813  1.2590 -0.1947 -0.8309
   79CHL1  H12B 8285   1.988   6.479   7.809 -0.4179  0.6371  0.5717
   79CHL1   C11 8286   2.085   6.574   7.635 -0.8574 -0.0260  0.6295
   79CHL1  H11A 8287   2.180   6.632   7.631  0.1022 -1.6476 -0.4247
   79CHL1  H11B 8288   2.100   6.488   7.567 -0.2945  0.4165  0.1846
   79CHL1    C9 8289   1.968   6.660   7.576 -0.5297  0.3965  0.1524
   79CHL1    H9 8290   1.888   6.582   7.583 -0.9735  0.9145  0.9709
   79CHL1   C10 8291   1.974   6.706   7.431 -0.8230  0.4941 -0.0735
   79CHL1   C19 8292   2.115   6.765   7.398 -0.2225 -0.1241 -0.1041
   79CHL1  H19A 8293   2.125   6.794   7.292  2.4089 -0.1695  0.0885
   79CHL1  H19B 8294   2.127   6.863   7.450  2.9422  0.0810 -1.1303
   79CHL1  H19C 8295   2.197   6.699   7.432 -0.4792 -0.0865  0.6027
   79CHL1    C1 8296   1.963   6.571   7.349  0.3642 -0.7365 -0.3218
   79CHL1   H1A 8297   2.051   6.504   7.360  1.3171  0.9124  2.5893
   79CHL1   H1B 8298   1.874   6.519   7.390  0.8029 -0.3136  1.2176
   79CHL1    C2 8299   1.948   6.596   7.202 -0.1972 -0.1011 -0.4747
   79CHL1   H2A 8300   1.938   6.496   7.155  0.5327  0.9612 -2.9609
   79CHL1   H2B 8301   2.033   6.643   7.148  2.4262 -1.1882  2.5164
   79CHL1   C20 8302   2.155   6.660   8.114  0.3206  0.5776 -0.3477
   79CHL1   H20 8303   2.229   6.742   8.099  0.9511 -0.0228 -0.5118
   79CHL1   C21 8304   2.237   6.525   8.088  0.0289 -0.4539 -0.0427
   79CHL1  H21A 8305   2.331   6.536   8.146  0.9537  2.8326 -1.9780
   79CHL1  H21B 8306   2.274   6.511   7.984 -2.3158 -0.0677 -0.9457
   79CHL1  H21C 8307   2.181   6.434   8.117 -0.1762 -0.7200 -1.2288
   79CHL1   C22 8308   2.116   6.677   8.264  0.1782 -0.1564 -0.4986
   79CHL1  H22A 8309   2.064   6.775   8.271 -1.2362 -0.8401 -1.1465
   79CHL1  H22B 8310   2.035   6.607   8.297 -0.7430  1.2581  0.2916
   79CHL1   C23 8311   2.237   6.684   8.365  0.2646  0.5132 -0.3842
   79CHL1  H23A 8312   2.304   6.595   8.353 -0.2463 -0.2547  2.0689
   79CHL1  H23B 8313   2.310   6.765   8.341  0.8192 -0.1049 -0.7984
   79CHL1   C24 8314   2.186   6.696   8.514 -0.2915  0.5651 -0.3145
   79CHL1  H24A 8315   2.107   6.774   8.517  1.0070  1.8846  0.0717
   79CHL1  H24B 8316   2.142   6.599   8.547  1.8999 -0.5631 -0.5978
   79CHL1   C25 8317   2.300   6.737   8.615  0.4902  0.1141 -0.1336
   79CHL1   H25 8318   2.388   6.674   8.589  1.4456  0.7444  1.5426
   79CHL1   C26 8319   2.347   6.885   8.601  0.4689  0.0066 -0.2742
   79CHL1  H26A 8320   2.414   6.908   8.687 -1.4046  0.9924  0.9547
   79CHL1  H26B 8321   2.404   6.905   8.508  0.9377 -1.4200 -0.3072
   79CHL1  H26C 8322   2.275   6.967   8.620  1.4184  0.6160  0.8214
   79CHL1   C27 8323   2.250   6.694   8.750  0.3952 -0.0591  0.2231
   79CHL1  H27A 8324   2.176   6.611   8.744  0.9538 -0.5532  0.1046
   79CHL1  H27B 8325   2.337   6.657   8.810  1.5542  2.2604  0.0333
   79CHL1  H27C 8326   2.194   6.786   8.777 -1.8861 -1.2875 -0.1888
   80CHL1    C3 8327   0.298   3.746   6.925  1.1593 -0.0093 -0.0665
   80CHL1    H3 8328   0.298   3.638   6.950  1.5556 -0.5896 -2.4159
   80CHL1    O3 8329   0.314   3.764   6.785 -0.5992  0.8149  0.5272
   80CHL1   H3' 8330   0.377   3.704   6.744  0.9315  2.1403  0.8795
   80CHL1    C4 8331   0.172   3.810   6.971 -0.3428 -0.1720  0.7510
   80CHL1   H4A 8332   0.170   3.919   6.950 -0.4403 -0.0448  1.4228
   80CHL1   H4B 8333   0.085   3.783   6.907 -1.4269  1.3943  1.5269
   80CHL1    C5 8334   0.136   3.803   7.115  0.7576 -0.0090  0.3154
   80CHL1    C6 8335   0.021   3.752   7.158  0.3498  0.5804 -0.6205
   80CHL1    H6 8336  -0.052   3.725   7.080  0.5394  0.5793 -0.7967
   80CHL1    C7 8337  -0.012   3.733   7.302 -0.2485  0.0925 -1.2620
   80CHL1   H7A 8338  -0.112   3.773   7.329 -0.0011  0.1470 -0.4166
   80CHL1   H7B 8339   0.005   3.626   7.324 -1.2907  0.1479 -0.1042
   80CHL1    C8 8340   0.081   3.809   7.397 -0.0832  0.0237 -0.4376
   80CHL1    H8 8341   0.030   3.908   7.398  0.3784  0.2625  1.2491
   80CHL1   C14 8342   0.069   3.756   7.539 -0.4006  0.4092  0.6048
   80CHL1   H14 8343   0.120   3.658   7.533 -0.6360  0.3310 -0.1976
   80CHL1   C15 8344  -0.070   3.724   7.595  0.0254 -0.1878 -0.2008
   80CHL1  H15A 8345  -0.142   3.801   7.560  0.3329  1.0047  1.7169
   80CHL1  H15B 8346  -0.092   3.624   7.552  0.9337 -0.2771 -0.4738
   80CHL1   C16 8347  -0.040   3.728   7.743  0.5889  0.7864 -1.1584
   80CHL1  H16A 8348  -0.103   3.804   7.795  1.8043  2.3324 -1.8778
   80CHL1  H16B 8349  -0.056   3.630   7.792  0.1991  1.0523 -0.7449
   80CHL1   C17 8350   0.109   3.754   7.774  0.8457  0.8463  0.3742
   80CHL1   H17 8351   0.169   3.662   7.786 -0.4026  0.3087  2.8901
   80CHL1   C13 8352   0.157   3.827   7.647  0.3650  0.1587  0.0078
   80CHL1   C18 8353   0.115   3.976   7.660 -1.3828 -0.0573 -0.1953
   80CHL1  H18A 8354   0.119   4.025   7.560  0.5727  1.8661  0.7883
   80CHL1  H18B 8355   0.015   3.986   7.708 -1.8910  0.3798 -1.3080
   80CHL1  H18C 8356   0.200   4.020   7.716 -0.7193 -0.9010 -0.5218
   80CHL1   C12 8357   0.304   3.802   7.601 -0.3320 -0.3103  0.2632
   80CHL1  H12A 8358   0.373   3.844   7.677 -1.2686  2.1124 -0.1845
   80CHL1  H12B 8359   0.338   3.696   7.597  2.3706  0.4787  1.1807
   80CHL1   C11 8360   0.324   3.868   7.463  0.1217 -0.3502 -0.4054
   80CHL1  H11A 8361   0.287   3.972   7.476 -1.2275 -1.0555  1.6223
   80CHL1  H11B 8362   0.426   3.862   7.419  0.4270 -0.7329  0.3457
   80CHL1    C9 8363   0.226   3.810   7.356  0.1752  0.3837  0.6285
   80CHL1    H9 8364   0.255   3.703   7.357  2.0058  0.8513 -0.7720
   80CHL1   C10 8365   0.248   3.851   7.206  0.0428 -0.1032 -0.3096
   80CHL1   C19 8366   0.265   4.005   7.212  0.4428 -0.6432 -0.1193
   80CHL1  H19A 8367   0.180   4.050   7.265 -0.3640 -3.4994  1.1249
   80CHL1  H19B 8368   0.364   4.020   7.261  0.4676 -0.7874 -0.1235
   80CHL1  H19C 8369   0.256   4.052   7.111 -2.5533 -2.6759 -0.8576
   80CHL1    C1 8370   0.383   3.793   7.152  0.2402  0.3232  0.0008
   80CHL1   H1A 8371   0.464   3.852   7.201  0.0925  1.2940 -0.8951
   80CHL1   H1B 8372   0.397   3.685   7.173 -2.3599 -0.3483 -1.5707
   80CHL1    C2 8373   0.414   3.803   7.003  0.0659 -0.6990  0.4479
   80CHL1   H2A 8374   0.514   3.764   6.973  0.7588  0.8371  0.7434
   80CHL1   H2B 8375   0.412   3.910   6.974  0.3551  0.0598  3.1449
   80CHL1   C20 8376   0.120   3.826   7.915  0.7174 -0.4734 -0.4966
   80CHL1   H20 8377   0.072   3.925   7.906  0.2420 -0.5720  0.8358
   80CHL1   C21 8378   0.270   3.848   7.938  1.1572  0.6462 -0.0590
   80CHL1  H21A 8379   0.330   3.759   7.912 -0.5044 -0.9251  1.3020
   80CHL1  H21B 8380   0.283   3.870   8.046  0.0153  0.4273  0.1387
   80CHL1  H21C 8381   0.302   3.933   7.875  1.5525 -0.2020 -1.0046
   80CHL1   C22 8382   0.057   3.745   8.033  0.2199  0.4047  0.0226
   80CHL1  H22A 8383  -0.040   3.710   7.991  0.2418 -0.1863  0.4483
   80CHL1  H22B 8384   0.114   3.650   8.048 -3.1096 -1.4960  1.4260
   80CHL1   C23 8385   0.011   3.833   8.150 -0.2378 -0.0795 -0.0735
   80CHL1  H23A 8386   0.103   3.889   8.179 -1.3521  2.2306 -0.8501
   80CHL1  H23B 8387  -0.070   3.897   8.109 -0.3749 -1.1195 -1.4226
   80CHL1   C24 8388  -0.043   3.738   8.260 -0.2255 -0.4948 -0.6254
   80CHL1  H24A 8389  -0.144   3.698   8.235 -1.3871  1.3211  0.9933
   80CHL1  H24B 8390   0.024   3.649   8.264  3.1781  2.0337  0.3604
   80CHL1   C25 8391  -0.054   3.803   8.402 -0.3385 -0.8953  0.2949
   80CHL1   H25 8392  -0.094   3.906   8.386 -0.3233 -1.1011 -1.1323
   80CHL1   C26 8393  -0.158   3.727   8.482  0.1935 -0.0175  0.0248
   80CHL1  H26A 8394  -0.160   3.747   8.592 -0.4196  0.0908 -0.0027
   80CHL1  H26B 8395  -0.260   3.748   8.443  0.3357 -1.4289 -1.1683
   80CHL1  H26C 8396  -0.139   3.617   8.485 -1.5971 -0.3240  1.3792
   80CHL1   C27 8397   0.084   3.808   8.467  0.5899  1.1390  0.3347
   80CHL1  H27A 8398   0.160   3.876   8.423 -0.9101  2.2456 -0.5884
   80CHL1  H27B 8399   0.063   3.847   8.569  1.4807  1.6243  0.3378
   80CHL1  H27C 8400   0.132   3.708   8.482 -0.4037  0.5550 -0.3427
   81CHL1    C3 8401   4.284   4.421   6.850 -0.0521  0.2965  0.0541
   81CHL1    H3 8402   4.175   4.403   6.860 -0.2399  1.1295 -0.3856
   81CHL1    O3 8403   4.334   4.376   6.728  0.6367 -0.2849  0.4730
   81CHL1   H3' 8404   4.287   4.429   6.664 -0.5158 -0.7196  0.9295
   81CHL1    C4 8405   4.301   4.571   6.863 -0.4857  0.1460 -0.4630
   81CHL1   H4A 8406   4.406   4.601   6.848 -0.4909 -0.1171 -1.0150
   81CHL1   H4B 8407   4.250   4.621   6.778 -0.5600 -1.6893 -1.5313
   81CHL1    C5 8408   4.258   4.624   6.998  0.5782 -0.5043  0.4492
   81CHL1    C6 8409   4.159   4.715   7.002  0.6947  0.8225 -0.3665
   81CHL1    H6 8410   4.113   4.737   6.904  2.8848  0.5332 -1.4943
   81CHL1    C7 8411   4.099   4.782   7.121 -0.1930 -0.1502  0.3173
   81CHL1   H7A 8412   4.086   4.890   7.099  2.1487 -0.1049 -1.0106
   81CHL1   H7B 8413   3.996   4.744   7.139 -0.1394 -1.5358 -1.9855
   81CHL1    C8 8414   4.188   4.750   7.244 -1.1852  0.5580  0.0581
   81CHL1    H8 8415   4.278   4.815   7.241 -1.4158  0.8860  0.1576
   81CHL1   C14 8416   4.106   4.774   7.375  0.5411 -0.2783  0.4289
   81CHL1   H14 8417   4.031   4.693   7.370 -0.0343  0.2725 -0.0927
   81CHL1   C15 8418   4.034   4.910   7.395 -0.2484  0.8206  0.5931
   81CHL1  H15A 8419   4.102   4.997   7.383 -1.1138  1.3002 -0.9362
   81CHL1  H15B 8420   3.949   4.920   7.324  0.2407 -1.5725 -0.3993
   81CHL1   C16 8421   3.995   4.911   7.539  0.3128  0.8556  0.4927
   81CHL1  H16A 8422   4.025   5.005   7.590  2.2315 -0.2490  1.4316
   81CHL1  H16B 8423   3.884   4.900   7.548  0.3738  0.6398  1.0105
   81CHL1   C17 8424   4.066   4.788   7.606  0.5888 -0.8799 -0.2330
   81CHL1   H17 8425   3.994   4.703   7.606  0.1775 -0.5599 -2.5296
   81CHL1   C13 8426   4.179   4.751   7.510  0.2432  0.2123 -0.1421
   81CHL1   C18 8427   4.290   4.854   7.534 -0.6645 -0.3487 -0.7407
   81CHL1  H18A 8428   4.364   4.848   7.452  0.6806  0.1879  0.4194
   81CHL1  H18B 8429   4.257   4.960   7.544 -0.6614 -0.4206  0.0554
   81CHL1  H18C 8430   4.344   4.835   7.629  1.2227  0.4183 -1.6435
   81CHL1   C12 8431   4.229   4.608   7.509  0.1877  0.0100  0.0442
   81CHL1  H12A 8432   4.291   4.588   7.599 -0.7839 -0.5048  0.6049
   81CHL1  H12B 8433   4.153   4.528   7.517 -0.6551  0.8950  1.0278
   81CHL1   C11 8434   4.305   4.577   7.377  0.1239 -0.5227 -0.1311
   81CHL1  H11A 8435   4.399   4.635   7.388  0.2217 -0.6901 -0.0878
   81CHL1  H11B 8436   4.320   4.467   7.384 -1.6324 -0.7728  0.0552
   81CHL1    C9 8437   4.233   4.600   7.250 -0.0209 -0.0416  0.1421
   81CHL1    H9 8438   4.139   4.541   7.249 -0.1809  0.2058  0.4882
   81CHL1   C10 8439   4.312   4.560   7.122 -0.3972 -0.2038 -0.1436
   81CHL1   C19 8440   4.459   4.601   7.126 -0.2495  0.2886  0.7545
   81CHL1  H19A 8441   4.464   4.711   7.139 -0.1036  0.4247 -0.3880
   81CHL1  H19B 8442   4.512   4.552   7.210 -0.4387 -1.4643 -0.1247
   81CHL1  H19C 8443   4.519   4.587   7.033  2.5496  1.4688  2.2931
   81CHL1    C1 8444   4.299   4.403   7.095  0.8424  0.2413  0.3382
   81CHL1   H1A 8445   4.353   4.358   7.181  0.8628 -2.2258 -0.9412
   81CHL1   H1B 8446   4.194   4.369   7.099  1.5415 -2.1370 -0.8003
   81CHL1    C2 8447   4.356   4.352   6.963  0.5449 -0.3017 -0.2118
   81CHL1   H2A 8448   4.328   4.245   6.953 -0.9881  0.0378  0.3511
   81CHL1   H2B 8449   4.465   4.360   6.944  0.9652 -0.0158  2.2177
   81CHL1   C20 8450   4.095   4.830   7.752 -0.2018 -0.2418  0.2127
   81CHL1   H20 8451   4.157   4.922   7.746  0.5321 -0.8174 -1.5561
   81CHL1   C21 8452   4.163   4.718   7.822 -0.1268  0.0174 -0.3028
   81CHL1  H21A 8453   4.261   4.699   7.773 -0.7201 -1.5067 -0.8960
   81CHL1  H21B 8454   4.092   4.633   7.814 -0.8296  0.6197 -0.5824
   81CHL1  H21C 8455   4.193   4.745   7.925  0.1406  0.1177 -0.4048
   81CHL1   C22 8456   3.959   4.875   7.818 -0.2219 -0.1300 -0.1348
   81CHL1  H22A 8457   3.931   4.975   7.780 -1.4001 -0.3739  0.0677
   81CHL1  H22B 8458   3.872   4.808   7.797  0.9401 -1.0645 -2.0627
   81CHL1   C23 8459   3.971   4.874   7.970 -0.1023  0.3054 -0.4322
   81CHL1  H23A 8460   3.962   4.772   8.013 -0.1616  1.0786  1.4337
   81CHL1  H23B 8461   4.069   4.918   7.999  0.0031 -0.5305  0.5117
   81CHL1   C24 8462   3.857   4.959   8.018 -0.7608 -0.1903  0.6744
   81CHL1  H24A 8463   3.845   5.052   7.958 -0.3452  1.0310  2.4638
   81CHL1  H24B 8464   3.765   4.899   8.000 -1.2098  0.7562 -0.2938
   81CHL1   C25 8465   3.848   5.001   8.163 -0.4596 -0.3084 -0.2757
   81CHL1   H25 8466   3.944   5.050   8.189 -0.5129 -1.8842  3.0839
   81CHL1   C26 8467   3.730   5.094   8.175 -0.5625  0.2741 -0.3603
   81CHL1  H26A 8468   3.748   5.191   8.124  0.7618 -0.6846 -1.7601
   81CHL1  H26B 8469   3.643   5.055   8.117 -0.7230 -0.6455  0.4794
   81CHL1  H26C 8470   3.707   5.119   8.281 -2.7772 -0.1834 -0.7047
   81CHL1   C27 8471   3.823   4.878   8.249  0.3152  0.0918  0.4426
   81CHL1  H27A 8472   3.903   4.850   8.320  1.0367  1.0434  0.0113
   81CHL1  H27B 8473   3.728   4.888   8.305  0.7478 -1.1611  1.4174
   81CHL1  H27C 8474   3.801   4.784   8.193 -0.3840 -0.7046  2.0043
   82CHL1    C3 8475   6.224   5.260   6.822 -0.3062 -0.2068 -0.5056
   82CHL1    H3 8476   6.114   5.261   6.811 -0.3147  0.2220 -0.3934
   82CHL1    O3 8477   6.276   5.282   6.693  0.6181 -0.1738 -0.6235
   82CHL1   H3' 8478   6.369   5.307   6.700 -0.3633  3.2178  1.8471
   82CHL1    C4 8479   6.283   5.366   6.916  0.2394  0.3380  0.1271
   82CHL1   H4A 8480   6.392   5.348   6.929  0.2195  1.3590  1.9428
   82CHL1   H4B 8481   6.269   5.470   6.880 -3.6982 -0.0139  0.4123
   82CHL1    C5 8482   6.217   5.346   7.051  0.0230  0.2142  0.2739
   82CHL1    C6 8483   6.146   5.437   7.109  0.3431 -0.1794 -0.4587
   82CHL1    H6 8484   6.130   5.534   7.058 -1.0714  0.5020  1.2275
   82CHL1    C7 8485   6.091   5.426   7.249 -0.2223  0.4121  1.1495
   82CHL1   H7A 8486   6.110   5.515   7.312  0.6740 -0.2112  1.7851
   82CHL1   H7B 8487   5.981   5.412   7.254  0.0912 -2.3445  1.2967
   82CHL1    C8 8488   6.159   5.314   7.331 -0.4743  0.0390  0.7294
   82CHL1    H8 8489   6.259   5.348   7.367 -1.1893  0.2926  2.5001
   82CHL1   C14 8490   6.079   5.295   7.459 -0.6997 -0.4753  0.1589
   82CHL1   H14 8491   5.980   5.258   7.423 -0.6621 -1.6113  1.2120
   82CHL1   C15 8492   6.045   5.408   7.554  0.1056 -0.4672  0.0959
   82CHL1  H15A 8493   6.109   5.498   7.564  0.3970 -0.6223 -0.3518
   82CHL1  H15B 8494   5.959   5.464   7.510 -1.5047 -1.1911  2.2355
   82CHL1   C16 8495   6.020   5.349   7.688 -0.6165 -0.4607  0.3358
   82CHL1  H16A 8496   6.089   5.402   7.757 -0.5664 -1.0802  0.7632
   82CHL1  H16B 8497   5.917   5.371   7.725 -1.7144 -0.6280 -2.4645
   82CHL1   C17 8498   6.052   5.197   7.671 -0.2145  0.1402 -0.4846
   82CHL1   H17 8499   5.956   5.142   7.664  0.5106 -1.2447  0.0108
   82CHL1   C13 8500   6.143   5.184   7.546  0.5201 -0.5478 -0.1674
   82CHL1   C18 8501   6.281   5.223   7.592 -0.3340 -0.4186  0.1270
   82CHL1  H18A 8502   6.360   5.217   7.514 -0.4531 -0.2383 -0.0069
   82CHL1  H18B 8503   6.299   5.326   7.631 -0.3896 -0.7792  1.1191
   82CHL1  H18C 8504   6.317   5.159   7.675 -0.5762 -0.9003 -0.1327
   82CHL1   C12 8505   6.139   5.052   7.468  0.2823 -0.2180 -0.0593
   82CHL1  H12A 8506   6.173   4.960   7.521 -0.5113  0.7684  2.2119
   82CHL1  H12B 8507   6.036   5.023   7.440  0.9303 -1.5393 -1.1542
   82CHL1   C11 8508   6.210   5.068   7.330  1.1693 -0.1748  0.0227
   82CHL1  H11A 8509   6.319   5.070   7.350  1.1439  1.1181  0.0687
   82CHL1  H11B 8510   6.188   4.976   7.271 -1.2178 -1.5623  2.9030
   82CHL1    C9 8511   6.169   5.193   7.251  0.9820  0.3821  0.3181
   82CHL1    H9 8512   6.066   5.168   7.219  0.8020  0.5045  0.8059
   82CHL1   C10 8513   6.257   5.216   7.120  0.3835  0.7878 -0.3991
   82CHL1   C19 8514   6.407   5.239   7.157 -0.5219 -0.2841 -0.0021
   82CHL1  H19A 8515   6.441   5.156   7.222 -2.7727 -0.5318  0.9031
   82CHL1  H19B 8516   6.478   5.231   7.071  0.8020  2.4801  0.7596
   82CHL1  H19C 8517   6.425   5.338   7.204  3.6679 -0.7748 -0.3562
   82CHL1    C1 8518   6.236   5.101   7.024  0.6530 -0.2139 -0.1855
   82CHL1   H1A 8519   6.296   5.017   7.064 -0.5031 -2.7140 -3.4775
   82CHL1   H1B 8520   6.129   5.073   7.034 -0.0470  2.2194 -0.4468
   82CHL1    C2 8521   6.266   5.122   6.872  0.2848 -0.3631  0.6391
   82CHL1   H2A 8522   6.229   5.047   6.798  2.7846 -1.1836  0.1701
   82CHL1   H2B 8523   6.375   5.119   6.855  0.1020 -0.6299 -0.5566
   82CHL1   C20 8524   6.099   5.143   7.808 -0.0739  0.0171  0.0835
   82CHL1   H20 8525   6.194   5.196   7.830  1.6268 -2.4596 -1.1698
   82CHL1   C21 8526   6.127   4.996   7.789 -0.1292 -0.2927  0.2506
   82CHL1  H21A 8527   6.045   4.939   7.741  0.8759 -1.7249  0.1799
   82CHL1  H21B 8528   6.156   4.938   7.880 -3.5365 -2.0310  0.3069
   82CHL1  H21C 8529   6.214   4.986   7.720  0.8882  0.2040  1.4371
   82CHL1   C22 8530   5.995   5.174   7.922 -0.2678  0.7347 -0.3824
   82CHL1  H22A 8531   5.981   5.284   7.930 -0.1831  0.6289  1.2584
   82CHL1  H22B 8532   5.905   5.124   7.881  1.1382 -0.3623 -2.2370
   82CHL1   C23 8533   6.044   5.119   8.059  0.5346  0.9582 -0.6603
   82CHL1  H23A 8534   5.962   5.152   8.127  0.0661 -0.9203 -0.2846
   82CHL1  H23B 8535   6.048   5.009   8.051  0.2909  0.9635 -0.8690
   82CHL1   C24 8536   6.175   5.172   8.111 -0.3449  0.5683 -0.1974
   82CHL1  H24A 8537   6.262   5.143   8.047  0.3980 -1.3949  1.6419
   82CHL1  H24B 8538   6.168   5.282   8.123 -0.0984  0.8804 -2.6562
   82CHL1   C25 8539   6.224   5.112   8.243 -0.8616 -0.6874  0.2270
   82CHL1   H25 8540   6.278   5.193   8.297 -1.4223 -0.0609 -0.1535
   82CHL1   C26 8541   6.106   5.081   8.339  0.2800 -0.3097 -0.4611
   82CHL1  H26A 8542   6.047   4.992   8.307 -1.5440  0.7131 -0.0401
   82CHL1  H26B 8543   6.148   5.062   8.440 -0.6810  1.3782  0.2653
   82CHL1  H26C 8544   6.033   5.165   8.341  2.2533  1.4001  2.4238
   82CHL1   C27 8545   6.317   4.985   8.223 -0.0891  0.0185  0.0673
   82CHL1  H27A 8546   6.297   4.935   8.126 -1.3061  0.1318  0.2465
   82CHL1  H27B 8547   6.425   5.011   8.222 -0.4005  1.3759  0.1594
   82CHL1  H27C 8548   6.294   4.909   8.300  0.3843 -0.7275 -0.5279
   83CHL1    C3 8549   2.251   6.190   6.884 -0.6452 -0.1036 -0.1112
   83CHL1    H3 8550   2.305   6.282   6.853 -1.3159  0.2305 -0.3187
   83CHL1    O3 8551   2.204   6.146   6.757 -0.0485  0.4837 -0.1433
   83CHL1   H3' 8552   2.147   6.213   6.719  1.8327  1.4431 -1.3188
   83CHL1    C4 8553   2.350   6.078   6.938  0.1813 -0.6783 -0.6952
   83CHL1   H4A 8554   2.299   5.981   6.923 -3.1345  0.6843  1.1372
   83CHL1   H4B 8555   2.442   6.080   6.876  1.1065 -1.4719  0.6246
   83CHL1    C5 8556   2.387   6.090   7.082  0.2443  0.6382  0.6761
   83CHL1    C6 8557   2.514   6.075   7.125 -0.7011  0.1139 -1.0607
   83CHL1    H6 8558   2.595   6.051   7.054 -0.3388  2.2013 -1.3681
   83CHL1    C7 8559   2.552   6.083   7.272 -0.2132 -0.0747  0.4679
   83CHL1   H7A 8560   2.623   6.001   7.296  1.6362  1.7314  1.3073
   83CHL1   H7B 8561   2.592   6.181   7.307 -1.5373  0.6774 -0.0631
   83CHL1    C8 8562   2.431   6.083   7.377  0.2152  0.1649  0.1809
   83CHL1    H8 8563   2.399   5.978   7.397 -1.1435  0.7501  1.1226
   83CHL1   C14 8564   2.453   6.139   7.516  0.5858 -0.2323 -0.6903
   83CHL1   H14 8565   2.472   6.248   7.515 -0.9563  0.0829  1.5316
   83CHL1   C15 8566   2.579   6.095   7.586  0.6904 -0.9772 -0.1764
   83CHL1  H15A 8567   2.588   5.985   7.572  0.1185 -1.3984  2.3968
   83CHL1  H15B 8568   2.668   6.146   7.543  0.9370  0.9273  2.4620
   83CHL1   C16 8569   2.557   6.113   7.735  0.4301  0.3084 -0.0032
   83CHL1  H16A 8570   2.557   6.016   7.789 -1.8621  0.5637  0.4844
   83CHL1  H16B 8571   2.641   6.174   7.775  0.7618 -1.4113  1.9877
   83CHL1   C17 8572   2.412   6.165   7.759  0.8915 -0.1605  0.1011
   83CHL1   H17 8573   2.427   6.275   7.746 -2.2233  0.1142 -1.8812
   83CHL1   C13 8574   2.338   6.128   7.619  0.1767  0.0810  0.1959
   83CHL1   C18 8575   2.278   5.985   7.639  0.4532  0.1131  0.0527
   83CHL1  H18A 8576   2.200   5.983   7.717  1.9485 -1.3339  1.5705
   83CHL1  H18B 8577   2.237   5.948   7.543 -1.4897 -1.2822  1.4102
   83CHL1  H18C 8578   2.361   5.917   7.668  1.1715  0.2237 -1.6548
   83CHL1   C12 8579   2.229   6.219   7.562  0.1481  0.9491  0.1055
   83CHL1  H12A 8580   2.143   6.220   7.633  0.5260 -0.5330  0.5977
   83CHL1  H12B 8581   2.264   6.322   7.539  2.2391  0.0649 -0.7046
   83CHL1   C11 8582   2.196   6.170   7.416 -0.2251 -0.4938  0.6841
   83CHL1  H11A 8583   2.156   6.067   7.432 -0.3360 -0.4938  0.4016
   83CHL1  H11B 8584   2.116   6.236   7.376 -0.9485 -1.9261 -0.2896
   83CHL1    C9 8585   2.315   6.158   7.315 -0.3005 -1.0026  0.2600
   83CHL1    H9 8586   2.354   6.261   7.304 -0.5610 -0.7163  1.8631
   83CHL1   C10 8587   2.266   6.121   7.173  0.9155 -0.5585 -0.1218
   83CHL1   C19 8588   2.173   5.999   7.184 -0.1788  0.0722 -0.3396
   83CHL1  H19A 8589   2.151   5.967   7.080 -1.5049  2.1723 -0.7405
   83CHL1  H19B 8590   2.224   5.917   7.239  1.5498  1.8053  0.6837
   83CHL1  H19C 8591   2.075   6.020   7.233 -0.1721  1.3585 -0.8559
   83CHL1    C1 8592   2.176   6.241   7.118  0.2413  0.3312 -0.4496
   83CHL1   H1A 8593   2.090   6.266   7.183 -1.2840  1.0248 -2.6732
   83CHL1   H1B 8594   2.241   6.331   7.117  0.2019  0.3935 -3.4631
   83CHL1    C2 8595   2.126   6.220   6.972 -0.1196 -0.1917 -0.4239
   83CHL1   H2A 8596   2.066   6.305   6.933 -1.1962 -0.4249  0.7058
   83CHL1   H2B 8597   2.066   6.128   6.985 -0.7244  0.2453 -0.1373
   83CHL1   C20 8598   2.355   6.137   7.903 -0.6083 -0.5060  0.1656
   83CHL1   H20 8599   2.355   6.027   7.922 -0.1946 -0.4207  0.6709
   83CHL1   C21 8600   2.209   6.197   7.913  0.2868 -0.4697  0.4556
   83CHL1  H21A 8601   2.142   6.137   7.848  0.3178 -0.7636  0.6930
   83CHL1  H21B 8602   2.205   6.295   7.862  2.1091 -1.7610 -2.2729
   83CHL1  H21C 8603   2.161   6.195   8.013 -0.6546 -1.0958 -0.0045
   83CHL1   C22 8604   2.450   6.192   8.016 -0.5310 -0.1474  0.2154
   83CHL1  H22A 8605   2.555   6.167   7.991 -1.0457 -3.0366  0.7774
   83CHL1  H22B 8606   2.447   6.303   8.017 -0.8211 -0.1682  1.8135
   83CHL1   C23 8607   2.414   6.134   8.155  0.5077  0.1538  0.2406
   83CHL1  H23A 8608   2.307   6.145   8.182  1.1424  4.2132  1.4602
   83CHL1  H23B 8609   2.436   6.026   8.151  1.6171  0.4079 -1.0686
   83CHL1   C24 8610   2.496   6.196   8.264  0.3595  0.0766 -0.1310
   83CHL1  H24A 8611   2.602   6.199   8.233  0.3398  0.5837 -0.1657
   83CHL1  H24B 8612   2.469   6.304   8.264 -0.2046 -0.0655  0.5304
   83CHL1   C25 8613   2.482   6.130   8.400 -0.2853  0.8215  0.4325
   83CHL1   H25 8614   2.533   6.191   8.478 -0.7467 -0.2623  1.6096
   83CHL1   C26 8615   2.330   6.119   8.435 -0.3081  0.3054  0.1555
   83CHL1  H26A 8616   2.269   6.059   8.364 -0.6438 -0.2332  0.9058
   83CHL1  H26B 8617   2.323   6.061   8.529  1.1749 -0.2287 -0.0448
   83CHL1  H26C 8618   2.292   6.221   8.458 -2.2911 -0.1285 -1.0914
   83CHL1   C27 8619   2.558   5.994   8.409  0.1688  0.4418 -0.9259
   83CHL1  H27A 8620   2.666   6.008   8.390  0.3149  1.7471  0.7833
   83CHL1  H27B 8621   2.547   5.954   8.512  0.1725  0.3333 -0.9687
   83CHL1  H27C 8622   2.517   5.917   8.339  0.9382 -0.5061 -0.3526
   84CHL1    C3 8623   4.475   2.631   6.999  0.0218 -0.0684 -0.3004
   84CHL1    H3 8624   4.560   2.682   7.049  0.4090 -1.7734  0.8377
   84CHL1    O3 8625   4.494   2.635   6.863  0.3786 -0.0113  0.0915
   84CHL1   H3' 8626   4.427   2.576   6.829  0.6229 -0.2378 -0.0032
   84CHL1    C4 8627   4.462   2.485   7.046 -0.1716  0.0670  0.1150
   84CHL1   H4A 8628   4.379   2.440   6.988 -0.2881  2.9641 -2.0680
   84CHL1   H4B 8629   4.549   2.420   7.021 -1.0227 -1.5932  1.3662
   84CHL1    C5 8630   4.434   2.481   7.193  0.0918  0.4088  0.3688
   84CHL1    C6 8631   4.524   2.422   7.275 -1.0138  0.2427 -0.7710
   84CHL1    H6 8632   4.613   2.380   7.226  0.7976  1.5948  1.2571
   84CHL1    C7 8633   4.511   2.426   7.426  1.1384 -0.7591  0.1052
   84CHL1   H7A 8634   4.541   2.331   7.474 -1.4407 -1.7878 -0.2430
   84CHL1   H7B 8635   4.589   2.495   7.466  1.8037 -1.5563  0.1868
   84CHL1    C8 8636   4.369   2.467   7.473 -0.0434 -0.4691 -0.3555
   84CHL1    H8 8637   4.303   2.379   7.460 -0.9735  0.0977  0.4692
   84CHL1   C14 8638   4.375   2.510   7.617 -0.2642 -0.5678  0.0118
   84CHL1   H14 8639   4.443   2.597   7.624 -0.0970 -0.8233  2.1962
   84CHL1   C15 8640   4.447   2.409   7.716 -0.3721  0.7358 -0.3875
   84CHL1  H15A 8641   4.414   2.305   7.692  0.0814  0.4276  0.2943
   84CHL1  H15B 8642   4.558   2.409   7.711 -0.2010  0.9077  2.6749
   84CHL1   C16 8643   4.400   2.460   7.850 -0.5663  0.0722  0.7125
   84CHL1  H16A 8644   4.371   2.368   7.906  3.4312 -0.0889  2.6509
   84CHL1  H16B 8645   4.483   2.510   7.904  0.4328  0.6458 -1.3368
   84CHL1   C17 8646   4.292   2.571   7.829 -0.5484 -0.0721  0.7418
   84CHL1   H17 8647   4.349   2.666   7.826  0.9527 -0.9601  0.6738
   84CHL1   C13 8648   4.243   2.544   7.684  0.3525 -0.3602  0.3283
   84CHL1   C18 8649   4.150   2.414   7.691  0.6017 -0.3230  0.5909
   84CHL1  H18A 8650   4.051   2.454   7.722  1.7749  2.6915  0.6352
   84CHL1  H18B 8651   4.146   2.364   7.592 -2.9264 -2.3865  1.6770
   84CHL1  H18C 8652   4.190   2.348   7.771  1.2980 -0.9886 -0.3064
   84CHL1   C12 8653   4.180   2.662   7.602 -0.7680 -0.2655 -0.3092
   84CHL1  H12A 8654   4.092   2.711   7.651 -0.6220 -0.1047 -0.2063
   84CHL1  H12B 8655   4.246   2.751   7.612 -1.9775  0.7571 -1.1561
   84CHL1   C11 8656   4.168   2.641   7.454  0.7274 -0.0499  0.2708
   84CHL1  H11A 8657   4.102   2.553   7.436  2.0739 -0.7223 -1.5374
   84CHL1  H11B 8658   4.129   2.730   7.399  0.6022 -1.0811 -1.3303
   84CHL1    C9 8659   4.306   2.591   7.399  0.2898 -0.1302 -0.0236
   84CHL1    H9 8660   4.376   2.675   7.419  0.2639  0.1259 -0.9664
   84CHL1   C10 8661   4.310   2.565   7.242 -0.2045  0.0459  0.3558
   84CHL1   C19 8662   4.175   2.501   7.193  0.7063  1.0482  0.9862
   84CHL1  H19A 8663   4.176   2.484   7.083 -0.0487  0.5535  1.0549
   84CHL1  H19B 8664   4.157   2.402   7.239  1.1948  0.6635  0.3549
   84CHL1  H19C 8665   4.090   2.571   7.208  0.0105  0.4884 -0.2797
   84CHL1    C1 8666   4.314   2.706   7.182 -0.3882 -0.3584 -0.7884
   84CHL1   H1A 8667   4.217   2.757   7.199  0.2377  0.4574  0.3855
   84CHL1   H1B 8668   4.387   2.765   7.241 -0.1212 -0.8816 -0.5874
   84CHL1    C2 8669   4.345   2.711   7.030 -0.2833  0.4270  0.4447
   84CHL1   H2A 8670   4.342   2.814   6.988 -0.7778  0.5039  0.6710
   84CHL1   H2B 8671   4.263   2.661   6.975  0.1005 -0.4206  0.6428
   84CHL1   C20 8672   4.199   2.576   7.953  0.1621 -0.4521 -0.2102
   84CHL1   H20 8673   4.155   2.475   7.962 -1.3184  0.3194  1.3974
   84CHL1   C21 8674   4.071   2.674   7.944  0.8255 -0.2657  0.3281
   84CHL1  H21A 8675   4.006   2.641   7.860  0.0630  1.0356  0.3986
   84CHL1  H21B 8676   4.118   2.771   7.916  0.4362 -0.2149 -0.1596
   84CHL1  H21C 8677   4.007   2.684   8.034  0.0315  1.4715 -0.4087
   84CHL1   C22 8678   4.268   2.609   8.084  0.3656  0.2935 -0.8223
   84CHL1  H22A 8679   4.181   2.624   8.152 -1.2678 -3.3227 -1.9744
   84CHL1  H22B 8680   4.337   2.528   8.117 -0.1161  0.0903 -0.3004
   84CHL1   C23 8681   4.348   2.739   8.081 -0.2493  0.6085 -0.4677
   84CHL1  H23A 8682   4.430   2.731   8.007  0.7574 -1.7776  0.8624
   84CHL1  H23B 8683   4.293   2.829   8.044 -0.4623  1.0792  0.9756
   84CHL1   C24 8684   4.409   2.775   8.218  0.4615  0.3427  0.6641
   84CHL1  H24A 8685   4.315   2.795   8.273 -0.5625  3.5989 -2.1121
   84CHL1  H24B 8686   4.475   2.696   8.261 -0.0789 -0.9474 -0.8034
   84CHL1   C25 8687   4.489   2.908   8.221  0.4466 -0.0218  1.1728
   84CHL1   H25 8688   4.443   2.982   8.152  1.0527  0.3730  1.1898
   84CHL1   C26 8689   4.483   2.962   8.369 -0.0719  0.7255  0.2127
   84CHL1  H26A 8690   4.534   3.059   8.389 -0.7823  0.6507  2.5873
   84CHL1  H26B 8691   4.375   2.973   8.393 -0.4480 -0.4307 -0.8795
   84CHL1  H26C 8692   4.519   2.880   8.435  0.6960  0.1994 -0.8612
   84CHL1   C27 8693   4.633   2.889   8.176 -0.1553 -0.1491  0.5122
   84CHL1  H27A 8694   4.688   2.813   8.235 -0.8802 -0.6994  0.4823
   84CHL1  H27B 8695   4.641   2.859   8.069  0.6196  0.1045  0.4964
   84CHL1  H27C 8696   4.686   2.986   8.185  0.7957 -0.6378  0.3232
   85CHL1    C3 8697   3.548   0.349   6.931 -0.5755  0.6502  0.3051
   85CHL1    H3 8698   3.588   0.452   6.939  1.6177 -0.2078  0.7801
   85CHL1    O3 8699   3.499   0.326   6.801 -0.2421  0.0191 -0.5817
   85CHL1   H3' 8700   3.411   0.365   6.805  0.2509  0.9193  3.5968
   85CHL1    C4 8701   3.659   0.249   6.953  0.2143  0.2709 -0.1499
   85CHL1   H4A 8702   3.611   0.150   6.933  2.2135 -0.5323 -1.1065
   85CHL1   H4B 8703   3.741   0.251   6.879  2.8409  0.2851  2.6847
   85CHL1    C5 8704   3.709   0.225   7.096 -0.5495 -0.2316 -0.5288
   85CHL1    C6 8705   3.831   0.243   7.135 -0.5344  0.5600  0.7757
   85CHL1    H6 8706   3.911   0.295   7.079  0.3435 -0.0784  1.4121
   85CHL1    C7 8707   3.888   0.208   7.267  0.0325 -0.0660 -0.4340
   85CHL1   H7A 8708   3.972   0.136   7.258  0.9578  1.1772 -2.0678
   85CHL1   H7B 8709   3.929   0.290   7.330  2.9747 -1.6807 -0.1502
   85CHL1    C8 8710   3.791   0.140   7.363  0.1435  0.0914 -0.7110
   85CHL1    H8 8711   3.797   0.032   7.339 -1.1801 -1.1379  3.9256
   85CHL1   C14 8712   3.826   0.150   7.508  0.2815  0.0147 -0.3123
   85CHL1   H14 8713   3.821   0.259   7.528  1.2231  0.2875 -1.4480
   85CHL1   C15 8714   3.971   0.122   7.550 -0.0216 -0.3632  0.2713
   85CHL1  H15A 8715   4.011   0.029   7.504  2.2778 -1.1762  3.7462
   85CHL1  H15B 8716   4.030   0.211   7.520  0.4486 -0.5079  0.7502
   85CHL1   C16 8717   3.966   0.090   7.704  0.2494  0.0420 -0.3543
   85CHL1  H16A 8718   4.006  -0.013   7.717 -2.4130 -1.1476 -1.2913
   85CHL1  H16B 8719   4.030   0.154   7.768 -1.5651  1.0097  0.5327
   85CHL1   C17 8720   3.816   0.103   7.745 -0.4289  0.2104  0.2852
   85CHL1   H17 8721   3.802   0.209   7.773 -1.3013 -0.7271  3.6474
   85CHL1   C13 8722   3.730   0.089   7.608  0.1566 -0.1751 -0.1157
   85CHL1   C18 8723   3.713  -0.059   7.576 -0.0023  0.1567 -0.0908
   85CHL1  H18A 8724   3.806  -0.115   7.556  0.0770  0.2874 -0.0857
   85CHL1  H18B 8725   3.646  -0.098   7.656 -0.7284  1.5941  0.0164
   85CHL1  H18C 8726   3.663  -0.082   7.479  3.9683 -0.4234 -2.0878
   85CHL1   C12 8727   3.602   0.163   7.599  0.0380  0.1117 -0.1659
   85CHL1  H12A 8728   3.520   0.122   7.662  0.7903 -0.7237  0.2880
   85CHL1  H12B 8729   3.619   0.266   7.637  1.4443 -0.9390  2.1618
   85CHL1   C11 8730   3.542   0.164   7.455  0.5881  0.2723  0.4325
   85CHL1  H11A 8731   3.490   0.067   7.439  1.8066 -0.1457 -1.0846
   85CHL1  H11B 8732   3.457   0.236   7.454  0.2500 -0.1161  1.0012
   85CHL1    C9 8733   3.647   0.197   7.343 -0.4881 -0.4410  0.1265
   85CHL1    H9 8734   3.663   0.306   7.355 -1.5169 -0.5033  2.2770
   85CHL1   C10 8735   3.602   0.188   7.197  0.0249  0.3131  0.0327
   85CHL1   C19 8736   3.546   0.046   7.165 -0.0321 -0.2284  0.0743
   85CHL1  H19A 8737   3.623  -0.034   7.175  0.5374  0.0095 -2.2071
   85CHL1  H19B 8738   3.459   0.025   7.231 -1.2799  1.7304 -0.8965
   85CHL1  H19C 8739   3.499   0.038   7.065 -0.4298 -3.2293  0.4652
   85CHL1    C1 8740   3.493   0.300   7.178 -0.2181 -0.4370  0.2212
   85CHL1   H1A 8741   3.402   0.274   7.235 -0.8103 -1.4176 -1.1454
   85CHL1   H1B 8742   3.519   0.397   7.225  1.7475  0.2472 -2.1598
   85CHL1    C2 8743   3.439   0.322   7.034 -0.5318  0.2417  0.3333
   85CHL1   H2A 8744   3.383   0.417   7.039  1.6042  1.6373 -1.2358
   85CHL1   H2B 8745   3.368   0.242   7.006 -0.5098 -0.5339  2.3690
   85CHL1   C20 8746   3.781   0.012   7.866 -0.4160 -0.2250  0.5412
   85CHL1   H20 8747   3.797  -0.096   7.847  1.0861  0.2451 -0.9576
   85CHL1   C21 8748   3.632   0.031   7.905 -1.0620  0.0703  0.6973
   85CHL1  H21A 8749   3.560  -0.001   7.827 -0.2902  0.4580 -0.1894
   85CHL1  H21B 8750   3.623   0.139   7.929 -0.8388  0.1690  0.3491
   85CHL1  H21C 8751   3.612  -0.041   7.987 -1.7891  2.0618  2.3164
   85CHL1   C22 8752   3.877   0.044   7.989 -0.6282 -0.2300  0.0513
   85CHL1  H22A 8753   3.978   0.007   7.960  0.0244  0.3072  1.5946
   85CHL1  H22B 8754   3.878   0.152   8.015 -0.8475 -0.0760 -0.5692
   85CHL1   C23 8755   3.844  -0.035   8.115 -0.1335 -0.4374 -0.0080
   85CHL1  H23A 8756   3.750   0.007   8.156  0.6998  2.1539 -0.7166
   85CHL1  H23B 8757   3.828  -0.140   8.081  0.0908 -0.2064 -0.8226
   85CHL1   C24 8758   3.949  -0.036   8.221  0.3231 -0.3212  0.2498
   85CHL1  H24A 8759   3.920  -0.107   8.301 -1.3032  1.0549  0.9122
   85CHL1  H24B 8760   4.045  -0.059   8.170  1.3470 -0.5250  2.2603
   85CHL1   C25 8761   3.958   0.111   8.289 -0.6206 -0.1968  0.1341
   85CHL1   H25 8762   3.946   0.188   8.211  2.1915  0.5689  0.3987
   85CHL1   C26 8763   3.853   0.132   8.401 -0.4492  0.0995  0.2698
   85CHL1  H26A 8764   3.871   0.237   8.434 -0.3948 -0.3017  1.5398
   85CHL1  H26B 8765   3.751   0.131   8.359  0.0240  3.3480 -1.0997
   85CHL1  H26C 8766   3.867   0.062   8.485 -0.0931 -0.9390 -0.6426
   85CHL1   C27 8767   4.093   0.130   8.355 -0.2914  0.1037 -0.5157
   85CHL1  H27A 8768   4.122   0.038   8.411 -0.6633  0.4535  0.2522
   85CHL1  H27B 8769   4.176   0.154   8.285  0.0172 -0.2907 -0.2881
   85CHL1  H27C 8770   4.097   0.205   8.436 -2.1760  0.0514 -0.3537
   86CHL1    C3 8771   5.511   4.722   7.038  0.0249  0.3151 -0.8616
   86CHL1    H3 8772   5.538   4.801   7.111  1.5327 -0.2874 -0.7356
   86CHL1    O3 8773   5.557   4.754   6.908 -0.2950  0.1627 -0.5781
   86CHL1   H3' 8774   5.508   4.699   6.846  0.9353 -0.3580 -1.0930
   86CHL1    C4 8775   5.566   4.593   7.091  0.4220  0.1419 -0.1308
   86CHL1   H4A 8776   5.535   4.509   7.027 -0.7530 -0.6093  1.3908
   86CHL1   H4B 8777   5.677   4.592   7.090  0.4226  0.3684 -0.6679
   86CHL1    C5 8778   5.509   4.570   7.226  0.4510  0.5505  0.7964
   86CHL1    C6 8779   5.591   4.556   7.335  0.2328  0.4749  0.4055
   86CHL1    H6 8780   5.697   4.576   7.316  0.0685  2.6290  1.5744
   86CHL1    C7 8781   5.544   4.513   7.471 -0.5129  0.2672  0.6794
   86CHL1   H7A 8782   5.608   4.426   7.497  2.2272  1.9357 -0.3506
   86CHL1   H7B 8783   5.567   4.592   7.545  0.3468  1.5710 -0.9495
   86CHL1    C8 8784   5.392   4.469   7.467  0.0057 -0.1785  0.1242
   86CHL1    H8 8785   5.400   4.362   7.436 -2.4277 -0.5908  0.8144
   86CHL1   C14 8786   5.338   4.473   7.609 -0.2896  0.2432  0.8293
   86CHL1   H14 8787   5.343   4.581   7.635 -0.3726  0.1788  1.1101
   86CHL1   C15 8788   5.431   4.409   7.719  0.3696  0.1527  0.4658
   86CHL1  H15A 8789   5.476   4.318   7.673 -0.8001 -0.7051  0.9913
   86CHL1  H15B 8790   5.522   4.465   7.746 -0.4870  0.8541  1.9453
   86CHL1   C16 8791   5.328   4.386   7.832  0.8413 -0.0511 -0.5783
   86CHL1  H16A 8792   5.329   4.282   7.872  1.2268  0.7751  1.6539
   86CHL1  H16B 8793   5.355   4.458   7.913  0.6171  1.7232 -2.0554
   86CHL1   C17 8794   5.181   4.429   7.775 -0.5890  0.2091  0.0369
   86CHL1   H17 8795   5.171   4.536   7.801  1.2366  0.4077  0.0306
   86CHL1   C13 8796   5.195   4.418   7.616 -0.0703 -0.2278  0.2585
   86CHL1   C18 8797   5.177   4.273   7.565 -0.4999 -0.7433  0.6840
   86CHL1  H18A 8798   5.068   4.249   7.564 -1.1990  2.2324  1.2205
   86CHL1  H18B 8799   5.203   4.252   7.459  0.6479  0.6460  0.6745
   86CHL1  H18C 8800   5.214   4.197   7.637 -0.5074 -2.3843 -1.0064
   86CHL1   C12 8801   5.105   4.512   7.534  0.3710 -0.6973 -0.9547
   86CHL1  H12A 8802   4.995   4.496   7.543  0.4775 -2.0461 -2.0326
   86CHL1  H12B 8803   5.122   4.613   7.577  0.4569 -0.1152 -2.3240
   86CHL1   C11 8804   5.146   4.529   7.392 -0.5658 -0.0106  0.0109
   86CHL1  H11A 8805   5.123   4.433   7.342 -2.3108 -0.3252  1.3705
   86CHL1  H11B 8806   5.102   4.617   7.341 -0.9048 -0.3738 -0.3282
   86CHL1    C9 8807   5.304   4.553   7.378  0.6182 -0.4261 -0.4413
   86CHL1    H9 8808   5.331   4.650   7.426  1.8040 -1.1940  0.4846
   86CHL1   C10 8809   5.357   4.556   7.232 -0.6137 -0.4980  0.2905
   86CHL1   C19 8810   5.324   4.425   7.150 -0.1499  0.2060  0.5269
   86CHL1  H19A 8811   5.379   4.337   7.189 -1.2149  0.0864  1.8390
   86CHL1  H19B 8812   5.223   4.387   7.176 -0.4349  1.5858  1.4940
   86CHL1  H19C 8813   5.324   4.425   7.039  0.1943 -3.0349  0.4994
   86CHL1    C1 8814   5.300   4.685   7.165 -0.5189 -0.2480 -0.4076
   86CHL1   H1A 8815   5.191   4.672   7.148 -0.2481 -0.6296 -1.9835
   86CHL1   H1B 8816   5.315   4.777   7.225 -0.4979 -0.9362  0.6480
   86CHL1    C2 8817   5.359   4.710   7.025  0.5697 -0.1726 -0.3535
   86CHL1   H2A 8818   5.322   4.811   6.997  2.1274  0.1993 -1.1002
   86CHL1   H2B 8819   5.324   4.637   6.949  0.1282  1.9836 -2.2645
   86CHL1   C20 8820   5.077   4.348   7.844 -0.1341 -0.1294 -0.0018
   86CHL1   H20 8821   5.082   4.242   7.811  2.8951 -0.4339  1.2669
   86CHL1   C21 8822   4.937   4.407   7.807  0.3988 -0.4255  0.1582
   86CHL1  H21A 8823   4.924   4.517   7.811 -0.5661 -0.5622  1.0876
   86CHL1  H21B 8824   4.855   4.370   7.872  1.1919  1.3515  2.2323
   86CHL1  H21C 8825   4.908   4.380   7.703  0.1463  3.0054 -0.7199
   86CHL1   C22 8826   5.096   4.341   7.998 -0.1332  0.1155  0.5505
   86CHL1  H22A 8827   5.007   4.286   8.037  0.5738 -0.4866  1.3236
   86CHL1  H22B 8828   5.186   4.278   8.012  1.4946  2.3150  0.3340
   86CHL1   C23 8829   5.109   4.472   8.073  0.6722  0.4513  0.3852
   86CHL1  H23A 8830   5.193   4.534   8.037 -1.4626  4.1956  1.5358
   86CHL1  H23B 8831   5.025   4.540   8.047 -0.0025 -0.5256 -0.0220
   86CHL1   C24 8832   5.135   4.455   8.223 -0.0718  0.1118 -0.0061
   86CHL1  H24A 8833   5.054   4.383   8.247 -0.0621 -0.0642 -0.4894
   86CHL1  H24B 8834   5.236   4.413   8.242 -1.2460 -1.7303  2.5311
   86CHL1   C25 8835   5.114   4.579   8.310 -0.1124 -0.3502  0.1514
   86CHL1   H25 8836   5.017   4.618   8.272  0.1543 -0.7965 -1.0023
   86CHL1   C26 8837   5.089   4.546   8.454 -0.3531  0.2275 -0.4331
   86CHL1  H26A 8838   5.049   4.630   8.514  0.9427 -0.0170  0.7917
   86CHL1  H26B 8839   5.027   4.455   8.469  1.3222 -1.0927 -1.1563
   86CHL1  H26C 8840   5.187   4.520   8.501 -0.0364  0.3437 -1.0148
   86CHL1   C27 8841   5.227   4.685   8.296  0.0654  0.4167 -0.1685
   86CHL1  H27A 8842   5.213   4.768   8.369  2.5848 -1.2174  2.2579
   86CHL1  H27B 8843   5.320   4.634   8.329  0.3454 -0.9008 -2.8796
   86CHL1  H27C 8844   5.234   4.727   8.194  2.5918  0.7900  0.1323
   87CHL1    C3 8845   6.261   2.848   7.007 -0.5220 -0.2419 -0.2364
   87CHL1    H3 8846   6.347   2.786   6.973  0.7816  2.2930 -1.7045
   87CHL1    O3 8847   6.232   2.927   6.895  0.5971  0.0651  0.0997
   87CHL1   H3' 8848   6.299   2.995   6.885 -0.4993  0.8749 -1.8495
   87CHL1    C4 8849   6.132   2.774   7.048 -0.2631  0.1459  0.5443
   87CHL1   H4A 8850   6.050   2.846   7.068  0.1381  0.9033 -0.4748
   87CHL1   H4B 8851   6.108   2.717   6.956 -1.2789  1.7647 -0.2244
   87CHL1    C5 8852   6.153   2.698   7.172  0.1883 -0.5438  0.0605
   87CHL1    C6 8853   6.130   2.569   7.168 -0.0973  0.1640  0.1679
   87CHL1    H6 8854   6.102   2.520   7.074 -0.5341  0.2458  0.2540
   87CHL1    C7 8855   6.124   2.484   7.294  0.0661  0.0074 -0.1390
   87CHL1   H7A 8856   6.049   2.402   7.292 -0.0342  0.1157 -0.7105
   87CHL1   H7B 8857   6.225   2.439   7.287  1.5674  3.0023  1.4893
   87CHL1    C8 8858   6.125   2.562   7.426 -0.3163 -0.1620 -0.1958
   87CHL1    H8 8859   6.025   2.606   7.447  0.1833  0.8121  0.1999
   87CHL1   C14 8860   6.164   2.471   7.537 -0.3366 -0.5468  0.0187
   87CHL1   H14 8861   6.271   2.444   7.521  0.1465  0.6240  1.1766
   87CHL1   C15 8862   6.088   2.339   7.563  0.6221  0.2427  0.1983
   87CHL1  H15A 8863   5.980   2.367   7.561  0.9142  1.2616 -1.0599
   87CHL1  H15B 8864   6.107   2.258   7.489 -0.7627  0.8811 -0.8822
   87CHL1   C16 8865   6.118   2.309   7.707 -0.7751 -0.2221  0.3765
   87CHL1  H16A 8866   6.018   2.297   7.755 -1.8050  2.6252 -0.9051
   87CHL1  H16B 8867   6.187   2.223   7.711  2.2177  2.2113  3.3613
   87CHL1   C17 8868   6.182   2.435   7.771  0.7019  0.0418 -0.3746
   87CHL1   H17 8869   6.289   2.410   7.757  1.5498  2.2057  1.9740
   87CHL1   C13 8870   6.155   2.550   7.670 -0.1290  0.1797  0.0562
   87CHL1   C18 8871   6.014   2.603   7.706 -0.1732  0.4101  0.1170
   87CHL1  H18A 8872   5.990   2.693   7.646 -2.2876  0.3880  0.9159
   87CHL1  H18B 8873   5.931   2.530   7.705 -0.2270  0.4214  1.9997
   87CHL1  H18C 8874   6.017   2.654   7.805 -0.3571 -1.0640  0.8849
   87CHL1   C12 8875   6.260   2.667   7.677 -0.4965  0.3907 -0.2448
   87CHL1  H12A 8876   6.253   2.728   7.770 -1.0604 -1.8576  1.2386
   87CHL1  H12B 8877   6.363   2.625   7.682 -0.6664  0.0820  0.8182
   87CHL1   C11 8878   6.241   2.759   7.553  0.3158  0.4676 -1.2075
   87CHL1  H11A 8879   6.156   2.825   7.580 -0.1888 -0.6823  0.1076
   87CHL1  H11B 8880   6.328   2.829   7.553 -0.9978  2.1305 -0.8096
   87CHL1    C9 8881   6.231   2.674   7.414  0.3075 -0.4318 -0.3303
   87CHL1    H9 8882   6.329   2.627   7.391  0.2567 -1.1006  0.8097
   87CHL1   C10 8883   6.195   2.773   7.297  0.2112 -0.5104 -0.0793
   87CHL1   C19 8884   6.088   2.878   7.339  0.1230 -0.4336  0.4378
   87CHL1  H19A 8885   6.036   2.922   7.252  1.1640 -0.2072 -0.0877
   87CHL1  H19B 8886   6.012   2.831   7.404 -2.3470  3.8906  0.8635
   87CHL1  H19C 8887   6.128   2.957   7.406 -0.8597  0.7117 -0.3147
   87CHL1    C1 8888   6.324   2.857   7.257  0.5007 -0.4282 -1.0546
   87CHL1   H1A 8889   6.352   2.929   7.337  4.1460  1.0281 -3.4884
   87CHL1   H1B 8890   6.394   2.778   7.222  0.4944 -1.4077  1.0915
   87CHL1    C2 8891   6.301   2.939   7.126  0.4588  0.0930  1.1052
   87CHL1   H2A 8892   6.397   2.980   7.089  0.5610 -0.7002  0.4789
   87CHL1   H2B 8893   6.227   3.021   7.132  1.1429  0.6974  1.3062
   87CHL1   C20 8894   6.176   2.450   7.924 -0.5231  0.2054  0.5051
   87CHL1   H20 8895   6.100   2.530   7.940 -0.4402  0.0529  1.6769
   87CHL1   C21 8896   6.322   2.491   7.958 -0.4791 -0.7167 -0.0645
   87CHL1  H21A 8897   6.391   2.405   7.939  0.1688 -0.5733  1.5509
   87CHL1  H21B 8898   6.340   2.519   8.064  0.5049  0.5028 -0.5501
   87CHL1  H21C 8899   6.356   2.575   7.895 -0.4170 -0.1505  0.7189
   87CHL1   C22 8900   6.137   2.326   8.006 -0.3744 -0.4235  0.8442
   87CHL1  H22A 8901   6.045   2.283   7.963 -0.8760 -1.4070  2.8352
   87CHL1  H22B 8902   6.218   2.252   7.991  1.3952  1.9030 -1.5653
   87CHL1   C23 8903   6.099   2.347   8.158  0.3685  0.6080 -0.5008
   87CHL1  H23A 8904   6.183   2.384   8.220  0.3704 -0.4064  0.1190
   87CHL1  H23B 8905   6.006   2.409   8.163 -1.8188 -2.5681 -0.1498
   87CHL1   C24 8906   6.054   2.207   8.219 -0.4245 -0.5645 -0.0417
   87CHL1  H24A 8907   5.973   2.174   8.150 -0.4580 -0.4330 -0.0668
   87CHL1  H24B 8908   6.145   2.144   8.230  0.4427  0.4887 -1.0263
   87CHL1   C25 8909   5.997   2.220   8.365 -0.0905 -0.5347  0.4428
   87CHL1   H25 8910   6.085   2.252   8.424  1.0201 -1.3192 -0.7444
   87CHL1   C26 8911   5.889   2.324   8.364  0.2572  0.1214 -0.0479
   87CHL1  H26A 8912   5.834   2.335   8.268  1.2435  2.1962 -0.4049
   87CHL1  H26B 8913   5.812   2.282   8.433  0.9473 -0.3256  0.4577
   87CHL1  H26C 8914   5.913   2.428   8.394 -0.2279  0.5933 -1.3057
   87CHL1   C27 8915   5.950   2.084   8.418 -0.4904  0.4943  0.5308
   87CHL1  H27A 8916   5.917   2.076   8.523 -1.0618 -0.2495  0.3052
   87CHL1  H27B 8917   5.860   2.064   8.355  0.2744 -1.8109  0.1027
   87CHL1  H27C 8918   6.031   2.013   8.390 -1.3597 -0.5019  0.4973
   88CHL1    C3 8919   3.398   1.249   7.004 -0.0997  0.2789 -0.9694
   88CHL1    H3 8920   3.451   1.346   7.017 -1.5534  0.7381  1.9169
   88CHL1    O3 8921   3.362   1.238   6.872  0.2528  0.6479 -0.4490
   88CHL1   H3' 8922   3.297   1.168   6.878 -1.5230  2.3305  0.6684
   88CHL1    C4 8923   3.472   1.124   7.049  0.0892  0.0440 -0.4374
   88CHL1   H4A 8924   3.415   1.035   7.017 -0.6317  0.4567 -0.3126
   88CHL1   H4B 8925   3.571   1.129   6.999  1.3914 -2.4637  1.7823
   88CHL1    C5 8926   3.508   1.117   7.197  0.0486 -0.0136  0.7100
   88CHL1    C6 8927   3.631   1.089   7.238  0.1568 -0.3064  0.2866
   88CHL1    H6 8928   3.705   1.071   7.159 -0.0727  1.3516 -0.3221
   88CHL1    C7 8929   3.667   1.076   7.385  0.6441 -0.4557  0.6252
   88CHL1   H7A 8930   3.733   0.988   7.399  2.2231  0.9581  2.3239
   88CHL1   H7B 8931   3.731   1.160   7.419  1.6825 -0.8545 -0.3235
   88CHL1    C8 8932   3.541   1.058   7.472  0.7312  0.3720 -0.4870
   88CHL1    H8 8933   3.507   0.953   7.462  2.7261 -0.4266  0.8883
   88CHL1   C14 8934   3.592   1.083   7.613  0.3372 -0.4979  0.0930
   88CHL1   H14 8935   3.622   1.190   7.609 -2.5987  0.3948  0.6581
   88CHL1   C15 8936   3.711   1.003   7.665 -1.0140  0.1689  0.1895
   88CHL1  H15A 8937   3.691   0.897   7.640  1.9372 -0.4271  0.1453
   88CHL1  H15B 8938   3.802   1.042   7.614 -2.0515  0.7200 -1.2927
   88CHL1   C16 8939   3.705   1.026   7.813 -0.0866  0.0610  0.1189
   88CHL1  H16A 8940   3.710   0.922   7.851  0.5785 -0.1814 -0.6141
   88CHL1  H16B 8941   3.787   1.085   7.861 -0.2384  1.7031 -1.5671
   88CHL1   C17 8942   3.570   1.109   7.844 -0.9172  0.2780  0.8288
   88CHL1   H17 8943   3.588   1.218   7.843 -3.6865  0.7757  1.2828
   88CHL1   C13 8944   3.489   1.074   7.720  0.0702 -0.7128  0.7954
   88CHL1   C18 8945   3.437   0.926   7.734  0.4584  0.0503  0.8688
   88CHL1  H18A 8946   3.502   0.856   7.790  0.5681 -0.0803  0.5843
   88CHL1  H18B 8947   3.334   0.926   7.774 -0.4794  0.5035 -1.4401
   88CHL1  H18C 8948   3.420   0.873   7.638 -0.0576 -1.4075  1.7546
   88CHL1   C12 8949   3.379   1.183   7.681 -0.3283 -0.1669 -0.8021
   88CHL1  H12A 8950   3.286   1.186   7.743  0.6959  2.0198  0.7047
   88CHL1  H12B 8951   3.426   1.283   7.679 -0.8011  0.0642 -0.5758
   88CHL1   C11 8952   3.317   1.156   7.541 -0.0863 -0.0159 -0.8866
   88CHL1  H11A 8953   3.258   1.061   7.544 -1.8889  1.0700 -1.4484
   88CHL1  H11B 8954   3.237   1.232   7.530 -1.9038 -1.0703  3.7012
   88CHL1    C9 8955   3.424   1.155   7.431 -0.1435  0.4576 -0.6345
   88CHL1    H9 8956   3.473   1.254   7.442  1.3917 -0.3295 -0.2093
   88CHL1   C10 8957   3.385   1.139   7.289 -0.5910 -0.3875 -0.0247
   88CHL1   C19 8958   3.296   1.017   7.282  0.3910  0.4272 -0.2054
   88CHL1  H19A 8959   3.251   1.009   7.181 -0.0559 -1.0391  0.0854
   88CHL1  H19B 8960   3.360   0.930   7.309  1.9325  1.2661 -1.1358
   88CHL1  H19C 8961   3.207   1.028   7.348 -0.0316 -1.7738 -0.3418
   88CHL1    C1 8962   3.308   1.270   7.240 -0.2591  0.5681  0.3419
   88CHL1   H1A 8963   3.214   1.283   7.297  0.8282  1.2506  2.0478
   88CHL1   H1B 8964   3.376   1.356   7.262  4.8383 -3.1942  0.4035
   88CHL1    C2 8965   3.266   1.261   7.086  0.6466 -0.1944 -0.5831
   88CHL1   H2A 8966   3.210   1.349   7.048  0.0004 -0.7017 -0.7947
   88CHL1   H2B 8967   3.195   1.177   7.073  0.2478  0.2198 -1.1180
   88CHL1   C20 8968   3.510   1.079   7.984  0.1774 -0.0911  0.3170
   88CHL1   H20 8969   3.472   0.975   7.984  0.4796 -0.2897 -4.1171
   88CHL1   C21 8970   3.402   1.177   8.025  0.2662 -0.5727 -0.1996
   88CHL1  H21A 8971   3.341   1.155   8.115 -3.1196  0.1214 -2.2469
   88CHL1  H21B 8972   3.325   1.190   7.945 -2.1795  0.4849  2.2427
   88CHL1  H21C 8973   3.446   1.275   8.052 -0.1350 -0.9125  1.7667
   88CHL1   C22 8974   3.622   1.098   8.090  0.1389 -0.1210 -0.2089
   88CHL1  H22A 8975   3.707   1.028   8.077 -0.1178 -0.6029  0.6822
   88CHL1  H22B 8976   3.664   1.200   8.079 -0.3092  0.1188  0.2901
   88CHL1   C23 8977   3.586   1.090   8.234  0.5654  0.5533 -0.3584
   88CHL1  H23A 8978   3.581   1.193   8.274  2.1368 -0.0096  1.3330
   88CHL1  H23B 8979   3.496   1.029   8.257  0.5791  2.2429  4.6417
   88CHL1   C24 8980   3.706   1.027   8.322  0.1446  0.6614  0.6766
   88CHL1  H24A 8981   3.726   0.931   8.270  3.1441  2.4307 -1.5772
   88CHL1  H24B 8982   3.806   1.074   8.314  1.2358 -1.5987  0.7737
   88CHL1   C25 8983   3.672   0.995   8.472  0.0670 -0.4426  0.6260
   88CHL1   H25 8984   3.616   0.900   8.470  2.7722 -2.0821 -0.0978
   88CHL1   C26 8985   3.788   0.948   8.555 -0.0761  0.6843 -0.5157
   88CHL1  H26A 8986   3.766   0.911   8.657  1.5926  2.5551  0.5614
   88CHL1  H26B 8987   3.846   0.868   8.503  0.3031  0.9434 -0.4863
   88CHL1  H26C 8988   3.869   1.024   8.556 -0.9940  1.6969 -1.4837
   88CHL1   C27 8989   3.582   1.104   8.545 -0.5695 -0.0422  0.1529
   88CHL1  H27A 8990   3.477   1.103   8.508 -0.8891 -1.0918  1.0315
   88CHL1  H27B 8991   3.569   1.066   8.649  2.2978 -1.5366 -0.0000
   88CHL1  H27C 8992   3.619   1.208   8.541 -0.7438  0.0002 -0.3284
   89CHL1    C3 8993   0.943   3.791   7.031  0.0999 -0.0218 -0.1268
   89CHL1    H3 8994   1.003   3.881   7.056  0.5642 -0.6337  1.0469
   89CHL1    O3 8995   0.933   3.762   6.894 -0.0115 -0.1399  0.6519
   89CHL1   H3' 8996   0.907   3.670   6.887 -3.0500  0.6422  0.6652
   89CHL1    C4 8997   0.980   3.659   7.105  0.6430  0.0896 -0.1746
   89CHL1   H4A 8998   0.914   3.573   7.080  1.4647 -0.1452 -1.5932
   89CHL1   H4B 8999   1.081   3.629   7.071  1.0611  1.1135  0.1357
   89CHL1    C5 9000   0.977   3.683   7.259 -0.2515  0.0404  0.2799
   89CHL1    C6 9001   1.078   3.668   7.342 -0.6921 -0.2235 -0.2552
   89CHL1    H6 9002   1.172   3.640   7.293 -1.6316  1.1744 -2.9543
   89CHL1    C7 9003   1.087   3.699   7.488 -0.0405 -0.2928 -0.1732
   89CHL1   H7A 9004   1.143   3.623   7.548 -1.9001 -0.2464  1.6688
   89CHL1   H7B 9005   1.144   3.795   7.495 -0.2165 -0.1848 -0.2283
   89CHL1    C8 9006   0.944   3.715   7.554 -0.5545  0.6432 -0.6202
   89CHL1    H8 9007   0.899   3.614   7.565 -0.5177  0.7155  0.2381
   89CHL1   C14 9008   0.956   3.779   7.692 -0.1151 -0.4674 -1.0830
   89CHL1   H14 9009   1.005   3.877   7.677  0.7290 -0.4623  1.5003
   89CHL1   C15 9010   1.034   3.703   7.800  0.4881  0.0209  1.8897
   89CHL1  H15A 9011   1.017   3.594   7.787  0.1986  0.3830 -0.9518
   89CHL1  H15B 9012   1.137   3.740   7.785  0.3077 -0.5102 -1.0110
   89CHL1   C16 9013   0.979   3.754   7.934  0.4596 -0.1280  0.0114
   89CHL1  H16A 9014   0.943   3.661   7.983 -0.1433  1.2224  2.2198
   89CHL1  H16B 9015   1.055   3.801   8.000 -0.4681  1.0958  0.2399
   89CHL1   C17 9016   0.869   3.849   7.891  0.2877 -0.0449  0.2387
   89CHL1   H17 9017   0.914   3.946   7.859 -2.0408  1.3350  0.9958
   89CHL1   C13 9018   0.822   3.797   7.759  0.0422  0.4418 -0.5140
   89CHL1   C18 9019   0.738   3.665   7.786  0.5813 -0.5937 -0.1919
   89CHL1  H18A 9020   0.717   3.612   7.690  0.9795 -1.2897  0.1001
   89CHL1  H18B 9021   0.788   3.588   7.849 -0.9134 -0.3993  1.2675
   89CHL1  H18C 9022   0.638   3.689   7.826  1.3025  1.0520  0.6698
   89CHL1   C12 9023   0.742   3.900   7.669 -0.5618 -0.0006 -0.4853
   89CHL1  H12A 9024   0.649   3.939   7.715 -0.0698  1.5702 -0.8064
   89CHL1  H12B 9025   0.811   3.987   7.668  0.0752 -0.5059 -1.8109
   89CHL1   C11 9026   0.725   3.842   7.528  0.8326 -0.5647 -0.0558
   89CHL1  H11A 9027   0.667   3.747   7.526 -0.4925  0.2252 -0.2797
   89CHL1  H11B 9028   0.658   3.912   7.472 -2.0528 -2.2749  1.1111
   89CHL1    C9 9029   0.859   3.793   7.461  0.2151 -0.1899 -0.3738
   89CHL1    H9 9030   0.921   3.884   7.452 -0.6264  0.5301  0.9083
   89CHL1   C10 9031   0.845   3.736   7.315 -0.0755 -0.0288 -0.5491
   89CHL1   C19 9032   0.734   3.621   7.302 -0.6345 -0.2707 -0.4216
   89CHL1  H19A 9033   0.731   3.578   7.200  1.4892 -1.0250 -0.1877
   89CHL1  H19B 9034   0.763   3.531   7.360  0.6489 -0.0350 -0.6727
   89CHL1  H19C 9035   0.638   3.671   7.328 -0.6587 -0.2254 -0.6000
   89CHL1    C1 9036   0.802   3.866   7.242 -0.8400 -0.7571 -0.0543
   89CHL1   H1A 9037   0.704   3.906   7.276 -2.0951 -1.6947 -2.4315
   89CHL1   H1B 9038   0.882   3.940   7.264 -2.5707  0.6561  1.6969
   89CHL1    C2 9039   0.806   3.841   7.083 -0.0902 -0.2936  0.3308
   89CHL1   H2A 9040   0.776   3.934   7.029 -1.7600 -1.2582 -0.4658
   89CHL1   H2B 9041   0.727   3.765   7.063 -0.7324 -0.2663  2.6497
   89CHL1   C20 9042   0.773   3.892   8.003 -0.7674  0.6226  0.5410
   89CHL1   H20 9043   0.683   3.933   7.953 -3.2497 -3.1892  1.7356
   89CHL1   C21 9044   0.834   4.008   8.083 -0.2631 -0.1017  0.1615
   89CHL1  H21A 9045   0.869   4.092   8.020 -0.4081  0.2453  0.5445
   89CHL1  H21B 9046   0.926   3.977   8.138 -0.9511 -1.6590  0.4802
   89CHL1  H21C 9047   0.755   4.046   8.152  1.2067  2.5989  0.4071
   89CHL1   C22 9048   0.722   3.788   8.105 -0.3359 -0.4425 -0.3608
   89CHL1  H22A 9049   0.722   3.688   8.057 -1.7752 -0.6498  0.0539
   89CHL1  H22B 9050   0.798   3.776   8.185 -0.2819  0.7138 -0.2195
   89CHL1   C23 9051   0.575   3.811   8.144  0.3398 -0.3035  0.7929
   89CHL1  H23A 9052   0.572   3.909   8.197  2.3972  0.5117 -0.5634
   89CHL1  H23B 9053   0.514   3.820   8.052  1.4079 -0.9843  0.0118
   89CHL1   C24 9054   0.508   3.697   8.225 -0.6491  0.3947 -0.1496
   89CHL1  H24A 9055   0.398   3.706   8.224 -1.3133 -5.2089  1.8460
   89CHL1  H24B 9056   0.529   3.609   8.160  0.8036  1.0094 -0.5209
   89CHL1   C25 9057   0.575   3.669   8.366 -0.7047 -0.1620  0.5570
   89CHL1   H25 9058   0.680   3.636   8.352 -0.0268  1.5241  1.4322
   89CHL1   C26 9059   0.577   3.790   8.452  0.1220 -0.6167 -0.2876
   89CHL1  H26A 9060   0.635   3.871   8.403  0.8109 -1.0965 -0.2747
   89CHL1  H26B 9061   0.472   3.826   8.459  0.5725  1.2206 -2.2326
   89CHL1  H26C 9062   0.608   3.776   8.558 -2.5190  2.4540  0.9513
   89CHL1   C27 9063   0.505   3.545   8.433 -0.3715 -0.1529  0.4784
   89CHL1  H27A 9064   0.511   3.459   8.362  3.5275 -0.0509  0.5717
   89CHL1  H27B 9065   0.563   3.519   8.524  0.5266  1.4247  0.3652
   89CHL1  H27C 9066   0.399   3.565   8.459 -0.3508 -1.9004  2.0584
   90CHL1    C3 9067   6.614   5.708   6.924  0.5214 -0.2056  0.3537
   90CHL1    H3 9068   6.508   5.740   6.935  0.2881 -0.3019 -1.4999
   90CHL1    O3 9069   6.656   5.740   6.788 -0.0981  0.1421  0.0158
   90CHL1   H3' 9070   6.744   5.779   6.794  0.1638 -0.3154 -0.7309
   90CHL1    C4 9071   6.693   5.809   7.017  1.0694  0.4538 -0.1452
   90CHL1   H4A 9072   6.803   5.800   7.009  0.9854 -1.2146  0.4031
   90CHL1   H4B 9073   6.670   5.915   6.992  0.8060  0.5105  0.3384
   90CHL1    C5 9074   6.640   5.786   7.157 -1.0340 -0.1389  0.2215
   90CHL1    C6 9075   6.584   5.882   7.229 -0.5282 -0.6173 -0.0597
   90CHL1    H6 9076   6.569   5.978   7.177 -1.1620 -1.4761 -1.5063
   90CHL1    C7 9077   6.543   5.865   7.374 -0.4538  0.1318 -0.5766
   90CHL1   H7A 9078   6.572   5.954   7.434  1.8473 -0.7325 -0.3642
   90CHL1   H7B 9079   6.434   5.844   7.381 -0.0063 -2.2604 -0.2691
   90CHL1    C8 9080   6.602   5.745   7.449  0.1197 -0.6595 -0.3239
   90CHL1    H8 9081   6.706   5.762   7.484 -0.1884 -0.0564  0.3120
   90CHL1   C14 9082   6.532   5.718   7.584  0.7069  0.2303 -0.1259
   90CHL1   H14 9083   6.423   5.711   7.563  0.7728 -1.5429  0.0693
   90CHL1   C15 9084   6.532   5.824   7.688  0.3001  0.4294  0.0835
   90CHL1  H15A 9085   6.635   5.864   7.691 -0.3531  2.1354  0.6851
   90CHL1  H15B 9086   6.470   5.909   7.651  1.3200  1.1848  0.0822
   90CHL1   C16 9087   6.504   5.745   7.814  0.4756 -0.7821  0.3856
   90CHL1  H16A 9088   6.570   5.766   7.900 -0.1647 -0.5748  0.8327
   90CHL1  H16B 9089   6.401   5.771   7.848  0.5381 -1.7643  1.3360
   90CHL1   C17 9090   6.504   5.595   7.778  0.7097 -0.3615  0.7965
   90CHL1   H17 9091   6.400   5.559   7.763  0.8387 -0.0052 -1.1112
   90CHL1   C13 9092   6.585   5.588   7.645 -0.3110  0.3925 -0.1576
   90CHL1   C18 9093   6.733   5.588   7.688 -0.7878  0.4645 -0.5309
   90CHL1  H18A 9094   6.779   5.497   7.730 -0.9664  1.1981  1.2911
   90CHL1  H18B 9095   6.786   5.609   7.592  1.7195  0.7766  0.8884
   90CHL1  H18C 9096   6.763   5.662   7.765 -0.2787 -0.5574  0.2547
   90CHL1   C12 9097   6.559   5.473   7.553  0.9426 -0.0712  0.6645
   90CHL1  H12A 9098   6.590   5.376   7.598  0.9963  0.5777  2.0653
   90CHL1  H12B 9099   6.450   5.471   7.531  0.4206 -0.9907  3.1838
   90CHL1   C11 9100   6.629   5.493   7.415  0.6220  0.1135 -0.5612
   90CHL1  H11A 9101   6.738   5.484   7.436  0.1501  1.3718  2.8374
   90CHL1  H11B 9102   6.605   5.408   7.348 -0.0151  0.0455 -0.2500
   90CHL1    C9 9103   6.594   5.618   7.349  1.0093  0.0397 -0.4164
   90CHL1    H9 9104   6.485   5.609   7.329  0.8156  1.6011 -0.1144
   90CHL1   C10 9105   6.653   5.644   7.212 -0.6342  0.6116  1.0886
   90CHL1   C19 9106   6.808   5.620   7.224 -0.6977 -0.1835  0.2627
   90CHL1  H19A 9107   6.834   5.665   7.322 -0.1906 -2.2259  1.0956
   90CHL1  H19B 9108   6.823   5.511   7.238  2.8922  0.1843 -0.3641
   90CHL1  H19C 9109   6.871   5.661   7.142 -1.6792  0.6372 -0.0925
   90CHL1    C1 9110   6.590   5.555   7.104  0.7975  0.5385 -0.4654
   90CHL1   H1A 9111   6.604   5.449   7.133  1.0347  0.7982  0.3697
   90CHL1   H1B 9112   6.481   5.578   7.098  0.6153 -0.2817 -0.3473
   90CHL1    C2 9113   6.652   5.569   6.963 -0.3401  0.1404  0.1705
   90CHL1   H2A 9114   6.605   5.489   6.902 -0.8091 -0.2895  1.0847
   90CHL1   H2B 9115   6.762   5.555   6.951 -0.0363  2.2608  0.3755
   90CHL1   C20 9116   6.557   5.516   7.900 -0.0908  0.3534 -0.1002
   90CHL1   H20 9117   6.661   5.546   7.928 -0.0246  0.6697 -0.6703
   90CHL1   C21 9118   6.537   5.362   7.882  0.1463  0.3198  0.2340
   90CHL1  H21A 9119   6.434   5.320   7.875  0.0577  0.4898  0.4834
   90CHL1  H21B 9120   6.596   5.318   7.966  1.9520  0.6911 -0.8100
   90CHL1  H21C 9121   6.593   5.323   7.795  1.1489  0.0160  1.0009
   90CHL1   C22 9122   6.468   5.550   8.024 -0.1459 -0.4051 -0.1945
   90CHL1  H22A 9123   6.449   5.659   8.036  1.1922  0.0930 -2.2853
   90CHL1  H22B 9124   6.367   5.505   8.016  0.0866 -1.8856  3.8880
   90CHL1   C23 9125   6.529   5.502   8.163 -0.8263 -0.0337  0.1835
   90CHL1  H23A 9126   6.496   5.399   8.190 -0.1897 -0.4007 -0.4228
   90CHL1  H23B 9127   6.639   5.499   8.149 -0.6079  2.7017  0.9367
   90CHL1   C24 9128   6.494   5.592   8.281 -0.1145  1.0054  0.2304
   90CHL1  H24A 9129   6.552   5.686   8.273 -0.5360  1.5363  3.0425
   90CHL1  H24B 9130   6.383   5.600   8.279 -0.4084 -2.0673  1.0106
   90CHL1   C25 9131   6.537   5.532   8.415 -0.1090 -0.2805 -0.1741
   90CHL1   H25 9132   6.544   5.421   8.415  0.9837 -0.2220 -0.8876
   90CHL1   C26 9133   6.682   5.564   8.452 -0.3691 -0.0473  0.3046
   90CHL1  H26A 9134   6.701   5.673   8.438  0.0025 -0.4106 -2.2465
   90CHL1  H26B 9135   6.708   5.527   8.553  1.6875  1.9245  0.5407
   90CHL1  H26C 9136   6.755   5.514   8.385  0.6207  0.6844  0.8261
   90CHL1   C27 9137   6.442   5.587   8.525 -0.1877 -0.0307 -0.0658
   90CHL1  H27A 9138   6.426   5.693   8.497  0.2513  1.1983  3.9580
   90CHL1  H27B 9139   6.344   5.534   8.524  1.6702 -3.7392  2.7284
   90CHL1  H27C 9140   6.486   5.575   8.626 -2.4024 -0.1343  0.9235
   91CHL1    C3 9141   1.338   0.389   7.323 -0.5963  0.0976  0.1753
   91CHL1    H3 9142   1.393   0.485   7.320  1.8181 -1.2255  0.8771
   91CHL1    O3 9143   1.303   0.356   7.188  0.1536 -0.8561  0.0468
   91CHL1   H3' 9144   1.228   0.406   7.154  0.7327  0.6975  0.9916
   91CHL1    C4 9145   1.422   0.278   7.384  0.6475 -0.5105  0.4163
   91CHL1   H4A 9146   1.369   0.182   7.371  1.7455 -0.9282 -1.1196
   91CHL1   H4B 9147   1.516   0.283   7.324 -0.0988  1.3726 -0.6352
   91CHL1    C5 9148   1.442   0.308   7.534 -0.2874  0.0016  0.0330
   91CHL1    C6 9149   1.563   0.302   7.589  0.3061  0.3608  0.0764
   91CHL1    H6 9150   1.649   0.287   7.523  2.6630 -0.4155  3.2322
   91CHL1    C7 9151   1.585   0.303   7.733  0.3098 -0.4516  0.2460
   91CHL1   H7A 9152   1.669   0.236   7.765  1.0974 -0.2213 -1.2824
   91CHL1   H7B 9153   1.618   0.405   7.761 -1.3598  0.5366 -1.3389
   91CHL1    C8 9154   1.459   0.262   7.815 -0.4672  0.1600  0.1374
   91CHL1    H8 9155   1.432   0.156   7.796  0.2749 -0.0031 -0.0410
   91CHL1   C14 9156   1.480   0.288   7.964  0.1770  0.2988 -0.0833
   91CHL1   H14 9157   1.493   0.398   7.965  0.3410  0.2874 -0.9450
   91CHL1   C15 9158   1.595   0.224   8.036 -0.1896  0.0995 -0.6061
   91CHL1  H15A 9159   1.591   0.116   8.013  1.2483 -0.7926  2.9692
   91CHL1  H15B 9160   1.692   0.260   7.996 -1.0441  0.9984 -1.9078
   91CHL1   C16 9161   1.566   0.256   8.182 -0.6754 -0.1686 -0.0897
   91CHL1  H16A 9162   1.587   0.168   8.247 -1.8265  0.1298  0.6911
   91CHL1  H16B 9163   1.636   0.327   8.232 -0.7996 -1.2789  1.6854
   91CHL1   C17 9164   1.416   0.287   8.192  0.9312 -0.1233 -0.0962
   91CHL1   H17 9165   1.410   0.398   8.197 -0.5674 -0.1774 -0.3139
   91CHL1   C13 9166   1.358   0.262   8.050  0.1971  0.2967 -0.1406
   91CHL1   C18 9167   1.308   0.115   8.040 -0.2474  0.7845 -0.5735
   91CHL1  H18A 9168   1.215   0.093   8.097 -0.3586  2.2698 -0.1647
   91CHL1  H18B 9169   1.286   0.086   7.935 -1.5176 -0.1921 -0.0584
   91CHL1  H18C 9170   1.385   0.042   8.073 -0.9352  1.4973  2.8016
   91CHL1   C12 9171   1.253   0.368   8.003  0.4100 -0.0022  0.4081
   91CHL1  H12A 9172   1.155   0.353   8.052 -0.3528  1.2588 -0.6872
   91CHL1  H12B 9173   1.292   0.469   8.030 -0.8981  0.2464  1.3946
   91CHL1   C11 9174   1.218   0.354   7.856 -0.3815 -0.9928 -0.2163
   91CHL1  H11A 9175   1.171   0.253   7.851 -1.7828 -0.3028 -1.4740
   91CHL1  H11B 9176   1.137   0.425   7.829 -0.1118 -1.3388 -2.0059
   91CHL1    C9 9177   1.340   0.347   7.762  0.6241 -0.5400 -0.4980
   91CHL1    H9 9178   1.375   0.453   7.763 -1.3536  0.1306  0.7553
   91CHL1   C10 9179   1.314   0.321   7.613 -0.0354 -0.5784 -0.0918
   91CHL1   C19 9180   1.223   0.194   7.598 -0.7518 -0.8777  1.0259
   91CHL1  H19A 9181   1.134   0.210   7.662 -0.1600  1.4648  1.3261
   91CHL1  H19B 9182   1.190   0.181   7.492  1.6127  1.6889 -0.0970
   91CHL1  H19C 9183   1.282   0.104   7.625  1.1013 -0.0007  0.0101
   91CHL1    C1 9184   1.234   0.440   7.543 -0.8041  0.4665  0.0346
   91CHL1   H1A 9185   1.141   0.451   7.602 -0.1847  0.2580  1.0668
   91CHL1   H1B 9186   1.291   0.535   7.552 -0.5176  0.3617 -0.6747
   91CHL1    C2 9187   1.203   0.428   7.399 -0.1008 -0.1766 -0.3867
   91CHL1   H2A 9188   1.174   0.526   7.355 -0.5502 -0.1295  0.0177
   91CHL1   H2B 9189   1.128   0.348   7.385  2.0924 -1.9705 -2.4966
   91CHL1   C20 9190   1.350   0.226   8.317  0.0435 -0.2302  0.1704
   91CHL1   H20 9191   1.373   0.117   8.313  0.2575 -0.2065  0.6999
   91CHL1   C21 9192   1.198   0.240   8.325  0.2113 -0.5663 -0.1917
   91CHL1  H21A 9193   1.142   0.203   8.413 -0.0915  0.0457 -0.1233
   91CHL1  H21B 9194   1.154   0.196   8.233  0.8491 -0.1138 -0.7162
   91CHL1  H21C 9195   1.190   0.351   8.333 -0.8138 -0.4173 -2.6834
   91CHL1   C22 9196   1.405   0.279   8.454  0.7103  0.0825 -0.7494
   91CHL1  H22A 9197   1.516   0.280   8.466  0.8453  1.2017 -1.9574
   91CHL1  H22B 9198   1.355   0.377   8.468 -0.2907 -0.2732 -1.7510
   91CHL1   C23 9199   1.370   0.192   8.574 -0.1162  1.0499  0.3559
   91CHL1  H23A 9200   1.260   0.197   8.588 -0.0648 -0.5092  1.5255
   91CHL1  H23B 9201   1.410   0.089   8.556 -0.7025  1.0160 -0.7728
   91CHL1   C24 9202   1.427   0.243   8.710 -0.3859 -0.3598 -0.6044
   91CHL1  H24A 9203   1.526   0.193   8.709  0.8172  1.9072  0.3762
   91CHL1  H24B 9204   1.426   0.354   8.701  1.3953 -0.0262  2.6162
   91CHL1   C25 9205   1.344   0.219   8.834 -0.7308  0.6012  0.2169
   91CHL1   H25 9206   1.257   0.287   8.833 -2.3535 -1.4468 -2.1410
   91CHL1   C26 9207   1.294   0.081   8.840 -0.1135 -0.0961 -0.2799
   91CHL1  H26A 9208   1.229   0.074   8.750  2.9135 -3.0583 -2.3773
   91CHL1  H26B 9209   1.367  -0.003   8.830 -0.2980 -0.0602 -2.0560
   91CHL1  H26C 9210   1.238   0.059   8.934 -2.9293  0.2651 -1.8390
   91CHL1   C27 9211   1.439   0.248   8.946  0.5800 -0.1839 -0.7678
   91CHL1  H27A 9212   1.381   0.225   9.038  1.1348 -0.9043 -0.5934
   91CHL1  H27B 9213   1.525   0.182   8.922 -0.3392 -1.3035 -1.0066
   91CHL1  H27C 9214   1.479   0.351   8.943 -0.5870  0.2920 -0.2690
   92CHL1    C3 9215   4.417   2.081   6.746 -0.0393  0.1810 -0.2594
   92CHL1    H3 9216   4.508   2.022   6.772 -0.5094  0.1431  1.3752
   92CHL1    O3 9217   4.445   2.139   6.618  0.1797  1.4726 -0.3709
   92CHL1   H3' 9218   4.369   2.196   6.601 -0.4315 -0.0780 -3.1343
   92CHL1    C4 9219   4.289   1.987   6.748  0.3277  0.5105  0.1487
   92CHL1   H4A 9220   4.207   2.048   6.704 -1.2290 -0.5058  1.6304
   92CHL1   H4B 9221   4.302   1.904   6.675 -3.8507 -0.1973  0.1138
   92CHL1    C5 9222   4.263   1.944   6.889 -0.2810  0.0624  0.2954
   92CHL1    C6 9223   4.252   1.816   6.923 -0.6577 -0.0470 -0.3445
   92CHL1    H6 9224   4.263   1.744   6.840 -1.5102 -0.8062  0.1807
   92CHL1    C7 9225   4.225   1.769   7.067 -0.0395 -0.2902  0.3119
   92CHL1   H7A 9226   4.162   1.678   7.068  0.6307 -0.7625  0.7241
   92CHL1   H7B 9227   4.321   1.741   7.115 -0.4762 -1.5947  0.4350
   92CHL1    C8 9228   4.167   1.885   7.160 -0.0236 -0.1133  0.5604
   92CHL1    H8 9229   4.062   1.905   7.127 -0.6160 -0.2969  2.2741
   92CHL1   C14 9230   4.172   1.841   7.306  0.6606  0.6397 -0.1182
   92CHL1   H14 9231   4.277   1.844   7.340  1.0959  1.6954 -1.4730
   92CHL1   C15 9232   4.126   1.691   7.349 -0.2089 -0.6248  0.6612
   92CHL1  H15A 9233   4.030   1.678   7.293 -0.8116 -2.4228  2.0440
   92CHL1  H15B 9234   4.199   1.614   7.316  1.5836  0.2014  2.6186
   92CHL1   C16 9235   4.097   1.705   7.496  0.4432 -0.8160 -0.1444
   92CHL1  H16A 9236   3.999   1.667   7.531 -0.0868  2.1866  1.8514
   92CHL1  H16B 9237   4.164   1.635   7.550  1.4281  0.5287  0.4229
   92CHL1   C17 9238   4.120   1.862   7.538  0.2084 -0.1617  0.4064
   92CHL1   H17 9239   4.227   1.871   7.568  0.1143  0.5449  0.5379
   92CHL1   C13 9240   4.105   1.937   7.409  0.0525  0.3252  0.3259
   92CHL1   C18 9241   3.959   1.953   7.378 -0.7319 -0.4056 -0.0644
   92CHL1  H18A 9242   3.945   2.013   7.285 -3.1549 -0.6029  0.1497
   92CHL1  H18B 9243   3.894   1.863   7.372 -0.9314 -0.2886  0.3516
   92CHL1  H18C 9244   3.914   2.021   7.453  0.8134 -0.2294  0.7167
   92CHL1   C12 9245   4.177   2.074   7.399  0.7956  0.0994  0.1737
   92CHL1  H12A 9246   4.112   2.151   7.446  1.1709  0.3320  0.3140
   92CHL1  H12B 9247   4.274   2.080   7.452 -0.5098  0.8602  2.5532
   92CHL1   C11 9248   4.199   2.119   7.251  0.1026  0.1647  0.1138
   92CHL1  H11A 9249   4.117   2.186   7.217  0.1880  0.2683  0.1126
   92CHL1  H11B 9250   4.283   2.192   7.257 -1.0847  1.6537 -1.0647
   92CHL1    C9 9251   4.249   2.014   7.142 -0.2732 -0.0849  0.1194
   92CHL1    H9 9252   4.351   1.985   7.174 -0.0475  2.0464  1.3867
   92CHL1   C10 9253   4.254   2.058   6.993  0.7333 -0.7807 -0.4462
   92CHL1   C19 9254   4.132   2.144   6.952  0.1161 -0.3558  0.1841
   92CHL1  H19A 9255   4.110   2.155   6.843  1.3872 -0.1351 -0.0646
   92CHL1  H19B 9256   4.040   2.104   7.000  0.5532  1.6356  2.8132
   92CHL1  H19C 9257   4.143   2.246   6.996  1.5682 -0.2149 -0.4894
   92CHL1    C1 9258   4.373   2.145   6.985 -0.2453  0.2228 -0.0595
   92CHL1   H1A 9259   4.378   2.236   7.049 -0.6344  2.3636 -2.9629
   92CHL1   H1B 9260   4.466   2.098   7.022 -0.3879  0.0757  0.1090
   92CHL1    C2 9261   4.401   2.196   6.837  0.4304 -0.3694  0.0566
   92CHL1   H2A 9262   4.491   2.260   6.835  1.2947 -1.5848 -1.4994
   92CHL1   H2B 9263   4.308   2.244   6.799 -0.2105 -0.4434  1.4775
   92CHL1   C20 9264   4.040   1.905   7.661  0.0360  0.0568 -0.0707
   92CHL1   H20 9265   3.933   1.876   7.651 -0.3802  0.5342  2.6602
   92CHL1   C21 9266   4.047   2.056   7.685 -0.3961  0.5941 -0.0033
   92CHL1  H21A 9267   4.026   2.070   7.793  0.9045  0.8189  0.2268
   92CHL1  H21B 9268   3.967   2.108   7.628 -1.8013  0.3467  1.7181
   92CHL1  H21C 9269   4.151   2.094   7.677  0.7207 -2.1004  1.2016
   92CHL1   C22 9270   4.091   1.841   7.797  0.0955 -0.1983 -0.6437
   92CHL1  H22A 9271   4.031   1.874   7.885 -1.8174 -1.7782 -1.3080
   92CHL1  H22B 9272   4.062   1.733   7.792 -2.4313  0.2551  2.3370
   92CHL1   C23 9273   4.242   1.844   7.832 -0.4213  0.1268 -0.0455
   92CHL1  H23A 9274   4.295   1.797   7.746  0.0140 -0.5438  0.5813
   92CHL1  H23B 9275   4.273   1.950   7.842 -0.1825 -0.0095  0.6726
   92CHL1   C24 9276   4.278   1.789   7.969  0.3551 -0.6010  0.0985
   92CHL1  H24A 9277   4.247   1.867   8.042 -2.2070 -1.6871  0.2381
   92CHL1  H24B 9278   4.225   1.697   8.000  2.7043 -2.5562 -1.5705
   92CHL1   C25 9279   4.431   1.777   7.992  0.1294 -0.3452  0.1401
   92CHL1   H25 9280   4.460   1.685   7.937 -2.5881 -0.5633 -1.0110
   92CHL1   C26 9281   4.518   1.897   7.944  0.1992  0.7394 -0.1972
   92CHL1  H26A 9282   4.625   1.888   7.971 -0.6827 -1.2966  2.8876
   92CHL1  H26B 9283   4.509   1.916   7.835  2.8762  2.7913 -0.1001
   92CHL1  H26C 9284   4.487   1.993   7.991  0.2447  0.4946  0.3382
   92CHL1   C27 9285   4.459   1.748   8.141 -0.4134 -0.6587 -0.2714
   92CHL1  H27A 9286   4.453   1.839   8.204  1.6348 -0.8077  0.1738
   92CHL1  H27B 9287   4.391   1.667   8.177 -1.6710  0.8151  0.7504
   92CHL1  H27C 9288   4.565   1.715   8.135 -0.5490 -1.2239  0.3773
   93CHL1    C3 9289   2.370   6.729   6.898  0.0186 -0.0176  0.7397
   93CHL1    H3 9290   2.340   6.830   6.933  3.4880  2.0552 -1.9699
   93CHL1    O3 9291   2.334   6.710   6.766 -0.2570 -0.2921  0.2080
   93CHL1   H3' 9292   2.280   6.631   6.760  0.0799 -0.6024  1.3116
   93CHL1    C4 9293   2.526   6.718   6.908 -0.3751  1.1581 -0.0278
   93CHL1   H4A 9294   2.554   6.624   6.856 -1.8242  1.6106 -1.6500
   93CHL1   H4B 9295   2.566   6.801   6.846  1.2443  1.0744  0.8596
   93CHL1    C5 9296   2.567   6.712   7.056  0.2953 -0.0146 -0.1075
   93CHL1    C6 9297   2.670   6.790   7.098  0.1853 -1.1176 -0.3780
   93CHL1    H6 9298   2.735   6.847   7.031 -0.7810  1.7254  1.0309
   93CHL1    C7 9299   2.707   6.790   7.241  0.2494 -0.0142 -0.3919
   93CHL1   H7A 9300   2.813   6.820   7.253 -0.2605  1.5818  0.3337
   93CHL1   H7B 9301   2.657   6.879   7.284 -1.7290 -0.5857 -1.4603
   93CHL1    C8 9302   2.661   6.667   7.323 -0.1913 -0.6054  0.6536
   93CHL1    H8 9303   2.727   6.579   7.305  1.3146  0.6736 -0.1996
   93CHL1   C14 9304   2.689   6.708   7.473  0.0759 -0.2990  0.4341
   93CHL1   H14 9305   2.623   6.795   7.491 -1.6705 -1.2246 -1.1880
   93CHL1   C15 9306   2.828   6.756   7.509 -0.3065 -0.0546  0.6251
   93CHL1  H15A 9307   2.895   6.685   7.457  0.0699  1.0573 -0.4133
   93CHL1  H15B 9308   2.843   6.863   7.485 -1.3555 -0.1939 -0.6860
   93CHL1   C16 9309   2.836   6.740   7.659  0.1237 -0.3179 -1.0098
   93CHL1  H16A 9310   2.911   6.660   7.675 -0.8635 -1.4449 -1.9760
   93CHL1  H16B 9311   2.875   6.830   7.712 -1.9609 -0.4205  0.7653
   93CHL1   C17 9312   2.697   6.676   7.699 -0.0200 -0.3603 -0.4330
   93CHL1   H17 9313   2.630   6.759   7.729  1.2900  0.3597  0.4922
   93CHL1   C13 9314   2.652   6.608   7.572  0.2071  0.7296  0.1137
   93CHL1   C18 9315   2.729   6.477   7.541 -0.3550  0.3761 -0.0885
   93CHL1  H18A 9316   2.707   6.442   7.438  1.2245  1.3849 -0.8026
   93CHL1  H18B 9317   2.838   6.498   7.547 -0.2277 -0.0639 -0.7887
   93CHL1  H18C 9318   2.708   6.397   7.615  1.3049  0.5859  0.6459
   93CHL1   C12 9319   2.501   6.582   7.552  0.1843 -0.0629  0.1951
   93CHL1  H12A 9320   2.463   6.502   7.621  0.1259  1.3338  1.8210
   93CHL1  H12B 9321   2.440   6.670   7.580 -0.4380 -0.6905  0.8423
   93CHL1   C11 9322   2.463   6.543   7.408  0.3660  0.1204  0.5893
   93CHL1  H11A 9323   2.507   6.442   7.390 -0.9210 -0.2684 -0.5076
   93CHL1  H11B 9324   2.352   6.535   7.418  0.1429  0.1412 -1.6296
   93CHL1    C9 9325   2.517   6.647   7.299  0.2764  0.3716  0.2157
   93CHL1    H9 9326   2.476   6.746   7.329  0.3854  1.0203 -1.7336
   93CHL1   C10 9327   2.485   6.620   7.154  0.4062  1.0947  0.0098
   93CHL1   C19 9328   2.531   6.471   7.132 -0.4969 -0.2569 -0.4176
   93CHL1  H19A 9329   2.520   6.439   7.026 -1.8030 -0.9044 -0.0900
   93CHL1  H19B 9330   2.634   6.457   7.169 -1.3905 -0.8615  1.9075
   93CHL1  H19C 9331   2.456   6.408   7.185 -0.2555  0.3819  0.7077
   93CHL1    C1 9332   2.333   6.621   7.121 -0.3635  0.6439 -0.1791
   93CHL1   H1A 9333   2.285   6.536   7.173 -0.3235  0.0241 -1.1458
   93CHL1   H1B 9334   2.286   6.715   7.157  0.4648  0.8049  0.5111
   93CHL1    C2 9335   2.304   6.618   6.972  0.5180  0.6649  0.3474
   93CHL1   H2A 9336   2.194   6.625   6.958  0.1990 -0.7893  2.0508
   93CHL1   H2B 9337   2.327   6.523   6.919  2.0380  2.2847 -1.9542
   93CHL1   C20 9338   2.708   6.588   7.834  0.1200  0.3786  0.2457
   93CHL1   H20 9339   2.748   6.487   7.809  1.1768  1.0443 -0.8251
   93CHL1   C21 9340   2.568   6.575   7.889  0.0072 -0.7076  0.6616
   93CHL1  H21A 9341   2.540   6.671   7.939 -1.6685 -0.2956 -1.0168
   93CHL1  H21B 9342   2.547   6.494   7.962 -0.6404  0.2333  1.5303
   93CHL1  H21C 9343   2.496   6.577   7.804  4.0276  2.5991 -2.9201
   93CHL1   C22 9344   2.800   6.648   7.941 -0.2382 -0.5135  1.4168
   93CHL1  H22A 9345   2.897   6.675   7.896 -2.6474  2.9080 -2.0296
   93CHL1  H22B 9346   2.756   6.748   7.962 -2.6410 -1.5823  1.6700
   93CHL1   C23 9347   2.795   6.576   8.073 -0.5989  0.1370  0.1188
   93CHL1  H23A 9348   2.697   6.596   8.121 -0.0574  2.0412  0.4785
   93CHL1  H23B 9349   2.809   6.468   8.053  0.1854  0.4928 -1.2918
   93CHL1   C24 9350   2.907   6.607   8.173  0.0434 -0.2486  1.1725
   93CHL1  H24A 9351   3.003   6.625   8.120 -0.7635 -2.4896 -1.1130
   93CHL1  H24B 9352   2.890   6.698   8.235  3.8959  1.3079  0.1375
   93CHL1   C25 9353   2.938   6.498   8.270 -0.3605 -0.2822 -0.1729
   93CHL1   H25 9354   2.972   6.414   8.205  0.7710 -0.1612  0.2511
   93CHL1   C26 9355   3.057   6.536   8.365 -0.4582  0.0765 -0.0316
   93CHL1  H26A 9356   3.140   6.561   8.295 -1.9852 -0.1537 -1.9831
   93CHL1  H26B 9357   3.037   6.626   8.426  1.3265  0.2332  0.3338
   93CHL1  H26C 9358   3.080   6.453   8.435  0.2392 -0.0468 -0.4085
   93CHL1   C27 9359   2.825   6.436   8.355  0.0738  0.2071 -0.1456
   93CHL1  H27A 9360   2.757   6.504   8.411  0.0082  0.5269 -0.6087
   93CHL1  H27B 9361   2.759   6.373   8.293  0.1970 -0.8244  0.7490
   93CHL1  H27C 9362   2.871   6.374   8.436 -0.6658  0.5350  0.5322
   94CHL1    C3 9363   5.083   2.711   6.945  1.1055 -0.1419  0.3034
   94CHL1    H3 9364   5.097   2.815   6.980  1.9788  0.2682 -1.1987
   94CHL1    O3 9365   5.106   2.686   6.808 -0.0251  0.3463  0.1217
   94CHL1   H3' 9366   5.019   2.684   6.769  0.2146  2.2819 -0.5361
   94CHL1    C4 9367   5.188   2.626   7.024 -0.0798  0.3175 -0.2042
   94CHL1   H4A 9368   5.176   2.522   6.986  2.0223  0.1250 -0.4072
   94CHL1   H4B 9369   5.290   2.665   7.006  0.5915 -0.5253  1.7168
   94CHL1    C5 9370   5.167   2.636   7.173 -0.6116 -0.5833  0.9829
   94CHL1    C6 9371   5.271   2.677   7.253 -0.0242 -0.6441 -0.2756
   94CHL1    H6 9372   5.368   2.700   7.207 -1.0577 -0.2319 -2.2954
   94CHL1    C7 9373   5.267   2.677   7.410  0.4579  0.1075 -0.0752
   94CHL1   H7A 9374   5.357   2.627   7.452  1.2164  1.3403 -0.2040
   94CHL1   H7B 9375   5.273   2.783   7.445  2.0979 -0.4150  1.2649
   94CHL1    C8 9376   5.130   2.617   7.468 -0.9249  0.0012 -0.7731
   94CHL1    H8 9377   5.136   2.506   7.461 -2.5085 -0.0153 -2.2669
   94CHL1   C14 9378   5.101   2.666   7.612 -0.7311  0.1683  0.1699
   94CHL1   H14 9379   5.104   2.777   7.604  0.5307  0.0278 -1.6159
   94CHL1   C15 9380   5.204   2.632   7.721  0.6599  0.2519  0.3403
   94CHL1  H15A 9381   5.240   2.530   7.696  0.8094  0.4768 -0.3743
   94CHL1  H15B 9382   5.292   2.696   7.699 -0.8739  2.2035 -0.2298
   94CHL1   C16 9383   5.132   2.628   7.851 -0.7723  0.2062 -0.1197
   94CHL1  H16A 9384   5.139   2.527   7.898 -0.0700 -0.1822 -1.0467
   94CHL1  H16B 9385   5.161   2.707   7.923 -1.0476  0.8603 -0.7238
   94CHL1   C17 9386   4.984   2.656   7.822 -0.4122 -0.0726  0.4833
   94CHL1   H17 9387   4.978   2.767   7.825  1.8491  0.0867 -0.2763
   94CHL1   C13 9388   4.972   2.617   7.670 -0.3683 -0.1998  0.1930
   94CHL1   C18 9389   4.959   2.463   7.665 -0.2101  0.2215  0.7229
   94CHL1  H18A 9390   5.035   2.408   7.725 -0.7334 -0.9153  0.3509
   94CHL1  H18B 9391   4.861   2.430   7.705 -0.5771 -1.3270 -1.3647
   94CHL1  H18C 9392   4.972   2.434   7.559 -0.1772  2.7066  0.0248
   94CHL1   C12 9393   4.858   2.673   7.584 -0.1807  0.0366 -1.0403
   94CHL1  H12A 9394   4.762   2.630   7.618  0.7882 -1.6921 -0.4610
   94CHL1  H12B 9395   4.850   2.784   7.583 -1.0696 -0.0175 -0.5749
   94CHL1   C11 9396   4.873   2.632   7.436 -0.5794  0.1380 -0.1307
   94CHL1  H11A 9397   4.855   2.522   7.435  2.0706 -0.3352  0.7159
   94CHL1  H11B 9398   4.788   2.675   7.379 -0.7920 -0.7292 -0.4728
   94CHL1    C9 9399   5.014   2.659   7.376  0.2735  0.5176 -0.1523
   94CHL1    H9 9400   5.019   2.770   7.370  0.0740  0.4577 -1.6459
   94CHL1   C10 9401   5.028   2.606   7.228 -0.5620  0.0571 -0.0266
   94CHL1   C19 9402   4.989   2.459   7.216  0.2836 -0.6306  0.2270
   94CHL1  H19A 9403   4.880   2.441   7.228 -0.1362  1.2085 -0.6158
   94CHL1  H19B 9404   5.014   2.419   7.116 -3.9222  1.6926 -1.8588
   94CHL1  H19C 9405   5.041   2.406   7.299  1.4452 -0.5853 -0.4536
   94CHL1    C1 9406   4.932   2.689   7.142 -0.2923 -0.2867  0.1289
   94CHL1   H1A 9407   4.830   2.660   7.173 -0.8573 -0.4872 -1.8276
   94CHL1   H1B 9408   4.940   2.797   7.166 -1.8091 -0.3487  0.9412
   94CHL1    C2 9409   4.943   2.660   6.992  0.2537 -0.3421  1.2486
   94CHL1   H2A 9410   4.867   2.714   6.933  0.3801 -0.9756  0.4899
   94CHL1   H2B 9411   4.930   2.552   6.968  1.0801  0.2612 -2.1539
   94CHL1   C20 9412   4.888   2.596   7.927  0.7576 -0.3657  0.5726
   94CHL1   H20 9413   4.896   2.486   7.917 -1.8279 -0.5009 -0.2399
   94CHL1   C21 9414   4.733   2.617   7.904 -0.7202  0.3195  0.1209
   94CHL1  H21A 9415   4.705   2.555   7.816  1.6813  0.8484 -1.0461
   94CHL1  H21B 9416   4.716   2.725   7.881  0.8261  0.7220  0.8032
   94CHL1  H21C 9417   4.666   2.587   7.987  1.0065 -0.6662  1.1765
   94CHL1   C22 9418   4.908   2.643   8.069  0.0181  0.7495 -0.6082
   94CHL1  H22A 9419   5.017   2.651   8.091 -0.3135  0.2701  1.3045
   94CHL1  H22B 9420   4.871   2.746   8.089  1.8531  1.1753  0.8185
   94CHL1   C23 9421   4.840   2.553   8.178 -0.0902 -0.6822 -0.4313
   94CHL1  H23A 9422   4.730   2.569   8.178 -0.2421 -1.7061  0.0871
   94CHL1  H23B 9423   4.871   2.448   8.159 -2.1841 -1.2129 -1.0544
   94CHL1   C24 9424   4.898   2.606   8.308 -0.1341  0.3114  0.8598
   94CHL1  H24A 9425   5.007   2.588   8.307 -0.2511 -0.4053  0.6942
   94CHL1  H24B 9426   4.880   2.716   8.306  0.2307  0.3736  0.9360
   94CHL1   C25 9427   4.828   2.543   8.433 -0.0802  0.3837  0.0198
   94CHL1   H25 9428   4.821   2.432   8.427 -2.2679  0.4377  1.1546
   94CHL1   C26 9429   4.905   2.568   8.562  0.5005 -0.2736  0.2357
   94CHL1  H26A 9430   4.941   2.673   8.574 -0.1649  0.2131 -1.6738
   94CHL1  H26B 9431   4.860   2.525   8.653 -0.7270  1.5980  0.5381
   94CHL1  H26C 9432   5.004   2.521   8.546  0.4433 -0.6094  0.8802
   94CHL1   C27 9433   4.685   2.600   8.440 -0.7640 -0.3646 -0.4238
   94CHL1  H27A 9434   4.688   2.710   8.426  1.6897 -0.5581 -1.5731
   94CHL1  H27B 9435   4.623   2.564   8.355 -2.8946  0.4234  0.7430
   94CHL1  H27C 9436   4.626   2.564   8.528 -0.4886 -0.9697 -0.4847
   95CHL1    C3 9437   4.849   1.571   6.524  0.4765 -0.4486  0.3761
   95CHL1    H3 9438   4.826   1.463   6.511 -0.3554 -0.0896 -1.2660
   95CHL1    O3 9439   4.890   1.630   6.398  0.1214  1.0856 -0.2528
   95CHL1   H3' 9440   4.810   1.617   6.346 -0.3537 -0.4440  0.8488
   95CHL1    C4 9441   4.717   1.629   6.585  0.6417  0.1002  0.5934
   95CHL1   H4A 9442   4.715   1.740   6.592  1.8209  0.0956  1.0103
   95CHL1   H4B 9443   4.639   1.600   6.511 -1.3994  0.6238  2.4769
   95CHL1    C5 9444   4.666   1.585   6.718 -0.2412  0.1652 -0.5236
   95CHL1    C6 9445   4.547   1.528   6.737  0.0695  0.4567 -0.9498
   95CHL1    H6 9446   4.482   1.511   6.650 -0.1451 -2.2018 -0.3237
   95CHL1    C7 9447   4.507   1.476   6.873  0.3224 -0.5395 -0.5035
   95CHL1   H7A 9448   4.401   1.487   6.903  0.8617  3.2617  0.2800
   95CHL1   H7B 9449   4.513   1.366   6.863 -3.0004 -1.0235  2.0477
   95CHL1    C8 9450   4.589   1.535   6.991 -0.3338 -0.7847 -0.0327
   95CHL1    H8 9451   4.565   1.643   7.005  1.4488 -0.2444 -0.9378
   95CHL1   C14 9452   4.566   1.451   7.130 -0.2360 -0.2349  0.1116
   95CHL1   H14 9453   4.605   1.350   7.104  0.9117 -0.4150  2.4129
   95CHL1   C15 9454   4.423   1.415   7.176 -0.5803  0.2646 -0.7474
   95CHL1  H15A 9455   4.377   1.516   7.171  1.9239  1.3665 -2.8145
   95CHL1  H15B 9456   4.373   1.340   7.112  0.4382 -2.8566  1.9968
   95CHL1   C16 9457   4.448   1.367   7.319 -0.1586  0.2034  0.3126
   95CHL1  H16A 9458   4.379   1.414   7.391 -2.2271 -2.4028  0.1333
   95CHL1  H16B 9459   4.437   1.256   7.319  0.9317  0.0363 -2.9606
   95CHL1   C17 9460   4.600   1.392   7.352  0.9757  1.3048 -0.6454
   95CHL1   H17 9461   4.665   1.305   7.329  0.8715  1.2026 -0.5592
   95CHL1   C13 9462   4.648   1.502   7.250  0.3032  0.1404  0.2479
   95CHL1   C18 9463   4.599   1.636   7.304 -0.1190 -0.2185  0.4711
   95CHL1  H18A 9464   4.492   1.631   7.334 -0.4431  0.1050 -0.6021
   95CHL1  H18B 9465   4.661   1.662   7.392 -0.6928  1.9417  0.2567
   95CHL1  H18C 9466   4.616   1.708   7.221 -1.4496 -0.4440 -0.0132
   95CHL1   C12 9467   4.793   1.501   7.210 -0.1685  0.9968 -0.1485
   95CHL1  H12A 9468   4.857   1.545   7.290  1.3825  0.5934 -1.1627
   95CHL1  H12B 9469   4.827   1.396   7.194  0.4892  1.1596  0.1785
   95CHL1   C11 9470   4.833   1.571   7.081 -0.3702  0.3922  0.5586
   95CHL1  H11A 9471   4.828   1.679   7.108  1.3634  0.3634  1.0449
   95CHL1  H11B 9472   4.936   1.541   7.054 -1.0794 -1.8343  0.2919
   95CHL1    C9 9473   4.741   1.535   6.955 -0.0035 -0.3063  0.3708
   95CHL1    H9 9474   4.763   1.426   6.953 -0.1679 -0.3775  1.9590
   95CHL1   C10 9475   4.779   1.600   6.823 -0.6535  0.0438  0.3972
   95CHL1   C19 9476   4.800   1.752   6.856 -0.0924 -0.1951 -0.1523
   95CHL1  H19A 9477   4.707   1.787   6.904 -0.8404  0.0669 -1.7572
   95CHL1  H19B 9478   4.885   1.771   6.925 -0.2470 -0.9518  0.2528
   95CHL1  H19C 9479   4.802   1.828   6.775  0.8298  0.7390  0.7347
   95CHL1    C1 9480   4.916   1.542   6.774  0.7016  0.4800  0.4081
   95CHL1   H1A 9481   4.993   1.566   6.850 -0.2935 -0.1531  1.6160
   95CHL1   H1B 9482   4.907   1.432   6.772 -1.1133  0.6142  0.5685
   95CHL1    C2 9483   4.960   1.591   6.631  0.2520 -0.4938  0.1746
   95CHL1   H2A 9484   5.045   1.526   6.603  0.3553  0.2936 -1.3691
   95CHL1   H2B 9485   4.972   1.702   6.636  1.0190 -0.6348  1.8514
   95CHL1   C20 9486   4.622   1.426   7.502  0.7214 -0.4662 -0.1050
   95CHL1   H20 9487   4.601   1.530   7.535 -1.3724 -1.1413  0.7193
   95CHL1   C21 9488   4.774   1.410   7.532  0.5090 -0.2573  0.1701
   95CHL1  H21A 9489   4.809   1.314   7.487  0.4044 -0.6437  0.9098
   95CHL1  H21B 9490   4.801   1.436   7.636  1.3527 -2.2891  0.4880
   95CHL1  H21C 9491   4.834   1.482   7.472  0.1547 -1.1382 -1.2821
   95CHL1   C22 9492   4.536   1.350   7.601 -0.1934  0.9690  0.2708
   95CHL1  H22A 9493   4.434   1.393   7.591 -0.5533 -0.0747 -0.6072
   95CHL1  H22B 9494   4.531   1.241   7.578  1.2221  0.6447  1.4274
   95CHL1   C23 9495   4.578   1.359   7.749  0.1309  1.0392 -0.8351
   95CHL1  H23A 9496   4.663   1.292   7.772 -4.0779 -4.4328 -0.2063
   95CHL1  H23B 9497   4.612   1.461   7.778  2.0145  0.1456  0.1987
   95CHL1   C24 9498   4.466   1.313   7.842  0.3468  0.6759 -0.3260
   95CHL1  H24A 9499   4.379   1.382   7.834  0.9412  1.4261 -0.3872
   95CHL1  H24B 9500   4.433   1.209   7.818  0.8831  0.0256  1.6716
   95CHL1   C25 9501   4.511   1.300   7.987  0.3567 -0.2264  0.7890
   95CHL1   H25 9502   4.562   1.397   8.009 -0.5317  0.5361 -0.4545
   95CHL1   C26 9503   4.390   1.291   8.074  0.7596  0.1980 -0.1543
   95CHL1  H26A 9504   4.341   1.197   8.041  2.4845  0.3069 -3.2656
   95CHL1  H26B 9505   4.410   1.274   8.182  0.0640  0.3650 -0.0011
   95CHL1  H26C 9506   4.321   1.378   8.070  0.7285  0.1819  0.0225
   95CHL1   C27 9507   4.592   1.178   8.012  0.4407  0.0408  0.1605
   95CHL1  H27A 9508   4.687   1.177   7.956  1.0817 -1.9524  1.2605
   95CHL1  H27B 9509   4.620   1.169   8.119  0.0962 -0.9957  0.1607
   95CHL1  H27C 9510   4.536   1.088   7.979  1.4152 -1.1725  1.7558
   96CHL1    C3 9511   5.144   1.041   6.724  0.6702  0.0410 -0.0755
   96CHL1    H3 9512   5.060   0.992   6.778  0.0630  0.8636 -0.2784
   96CHL1    O3 9513   5.121   1.044   6.587 -0.1073  0.4880 -0.0867
   96CHL1   H3' 9514   5.156   1.129   6.559  1.0466  0.2026  0.4531
   96CHL1    C4 9515   5.151   1.188   6.766  0.2808  0.1386 -0.3263
   96CHL1   H4A 9516   5.239   1.237   6.719  0.3584  1.3347  0.9972
   96CHL1   H4B 9517   5.065   1.242   6.721  1.3405  0.4267 -2.0458
   96CHL1    C5 9518   5.175   1.200   6.918 -0.4411 -0.1991  0.0313
   96CHL1    C6 9519   5.082   1.274   6.992 -0.1956  0.2558 -0.7316
   96CHL1    H6 9520   4.995   1.319   6.941 -0.7065  0.4223  0.2689
   96CHL1    C7 9521   5.096   1.296   7.143 -0.2858  0.0459 -0.4636
   96CHL1   H7A 9522   5.100   1.404   7.167 -0.4430  0.8879 -3.9053
   96CHL1   H7B 9523   5.006   1.253   7.191 -1.5528  2.7509 -0.3512
   96CHL1    C8 9524   5.223   1.233   7.204  0.3010 -0.6472  0.1389
   96CHL1    H8 9525   5.307   1.306   7.200 -1.4674  1.3623 -1.8221
   96CHL1   C14 9526   5.195   1.187   7.343  0.4851 -0.3254  0.4369
   96CHL1   H14 9527   5.127   1.100   7.328  1.5617 -0.7906 -2.0025
   96CHL1   C15 9528   5.116   1.288   7.436  0.0582 -0.1659  0.0925
   96CHL1  H15A 9529   5.156   1.392   7.433 -0.6040  0.1824  2.4050
   96CHL1  H15B 9530   5.010   1.309   7.412 -0.1311  0.4281  1.3742
   96CHL1   C16 9531   5.137   1.226   7.575  0.3345  0.0773  0.5095
   96CHL1  H16A 9532   5.173   1.309   7.639 -1.7013 -0.6653  2.6708
   96CHL1  H16B 9533   5.044   1.192   7.625 -0.9719 -1.8204 -2.9876
   96CHL1   C17 9534   5.237   1.107   7.559 -0.5955  0.0417 -0.6818
   96CHL1   H17 9535   5.182   1.011   7.548 -1.3711  0.4057 -0.0373
   96CHL1   C13 9536   5.317   1.133   7.418 -0.5705 -0.1141 -0.8375
   96CHL1   C18 9537   5.422   1.248   7.439  0.1129 -0.6361 -0.0457
   96CHL1  H18A 9538   5.481   1.267   7.346  0.3556  0.2111  0.2776
   96CHL1  H18B 9539   5.374   1.344   7.466 -0.4255 -0.5076 -1.4027
   96CHL1  H18C 9540   5.501   1.219   7.512 -0.0822  0.1358  0.4765
   96CHL1   C12 9541   5.362   1.014   7.339 -0.0580 -0.0016  0.1102
   96CHL1  H12A 9542   5.448   0.976   7.398  1.2973  0.6069 -1.4625
   96CHL1  H12B 9543   5.280   0.940   7.349  0.1234  0.2058  3.7809
   96CHL1   C11 9544   5.393   1.038   7.196 -0.2656  0.0838 -0.8414
   96CHL1  H11A 9545   5.478   1.107   7.177 -0.8482  0.6539 -1.4098
   96CHL1  H11B 9546   5.423   0.941   7.151  0.7339  0.8031 -1.7654
   96CHL1    C9 9547   5.275   1.102   7.120 -0.1100  0.4245  0.0362
   96CHL1    H9 9548   5.179   1.046   7.131 -0.4010  0.9376  0.1064
   96CHL1   C10 9549   5.292   1.120   6.970 -0.3309 -0.6005  0.0598
   96CHL1   C19 9550   5.426   1.179   6.929 -0.5139  0.5116 -0.2204
   96CHL1  H19A 9551   5.433   1.212   6.823 -0.3128  1.1230 -0.0197
   96CHL1  H19B 9552   5.444   1.270   6.990 -0.5908  0.0750  0.4631
   96CHL1  H19C 9553   5.508   1.105   6.936 -0.0257  0.8545 -2.1431
   96CHL1    C1 9554   5.280   0.975   6.909  0.2120 -0.2865 -0.1073
   96CHL1   H1A 9555   5.379   0.927   6.928  0.5672 -0.4435 -2.2742
   96CHL1   H1B 9556   5.210   0.902   6.955  1.4023 -1.2375  0.2260
   96CHL1    C2 9557   5.271   0.966   6.756  0.5223  0.2245  0.3564
   96CHL1   H2A 9558   5.270   0.861   6.719 -0.9376  0.4850 -0.3665
   96CHL1   H2B 9559   5.356   1.012   6.701  1.8319 -1.5350  0.8610
   96CHL1   C20 9560   5.329   1.084   7.685 -0.1251  0.2077  0.5573
   96CHL1   H20 9561   5.387   1.179   7.689 -1.8021  1.1857  2.5351
   96CHL1   C21 9562   5.426   0.971   7.666 -0.3248 -0.3356  0.2842
   96CHL1  H21A 9563   5.368   0.883   7.631 -0.5206  0.4320 -1.3391
   96CHL1  H21B 9564   5.479   0.953   7.762 -0.4452 -2.7471 -0.0719
   96CHL1  H21C 9565   5.502   0.979   7.585 -0.6551 -4.0011 -0.4703
   96CHL1   C22 9566   5.262   1.073   7.813 -0.2448 -0.0741  0.4330
   96CHL1  H22A 9567   5.163   1.124   7.809 -0.0421  0.2477 -0.6512
   96CHL1  H22B 9568   5.248   0.963   7.824  0.8052 -0.3699 -1.0152
   96CHL1   C23 9569   5.355   1.147   7.913 -0.0598 -0.5670 -0.1340
   96CHL1  H23A 9570   5.461   1.115   7.916  0.9176  2.3007 -2.0622
   96CHL1  H23B 9571   5.362   1.256   7.891  1.6161 -0.8990 -1.3725
   96CHL1   C24 9572   5.302   1.141   8.064 -0.3506  0.3791  0.2934
   96CHL1  H24A 9573   5.200   1.183   8.063 -0.8267 -0.6535  2.2796
   96CHL1  H24B 9574   5.303   1.034   8.094 -0.3366 -0.0142 -1.0576
   96CHL1   C25 9575   5.401   1.218   8.158 -0.6228  0.8563 -0.0174
   96CHL1   H25 9576   5.422   1.316   8.111  2.4884  1.2037  1.9593
   96CHL1   C26 9577   5.331   1.235   8.298 -0.2479 -0.1021  0.8629
   96CHL1  H26A 9578   5.402   1.219   8.382  0.6965  2.1060  0.5353
   96CHL1  H26B 9579   5.276   1.332   8.301  0.3139  0.3215 -1.7396
   96CHL1  H26C 9580   5.254   1.156   8.296 -0.1841 -0.1541  0.4906
   96CHL1   C27 9581   5.528   1.135   8.172 -0.0677  0.1826 -0.1011
   96CHL1  H27A 9582   5.497   1.043   8.227 -2.8245  1.1322  0.0101
   96CHL1  H27B 9583   5.582   1.116   8.077  2.4132 -0.1339  1.3187
   96CHL1  H27C 9584   5.593   1.184   8.248  1.0346  1.2308 -1.6944
   97OSM      N 9585   3.542   1.540  11.266 -0.5909  0.2657 -0.0548
   97OSM    C15 9586   3.677   1.575  11.215  0.0022  0.5086  0.1744
   97OSM   H15A 9587   3.748   1.549  11.293 -1.3098  1.0759  1.5811
   97OSM   H15B 9588   3.689   1.679  11.188  0.1592  0.9082  1.7337
   97OSM   H15C 9589   3.700   1.513  11.130 -0.8217  1.6552 -0.8922
   97OSM    C14 9590   3.541   1.405  11.326  0.0310 -0.2915  0.6132
   97OSM   H14A 9591   3.444   1.370  11.357 -0.7913 -0.5086 -2.0278
   97OSM   H14B 9592   3.610   1.407  11.408 -0.1533  0.1785  0.7582
   97OSM   H14C 9593   3.579   1.329  11.259  0.7058 -0.6296  1.3709
   97OSM    C13 9594   3.510   1.625  11.388 -0.0280  0.2859  0.0243
   97OSM   H13A 9595   3.590   1.613  11.459  0.5259  1.2374 -0.4297
   97OSM   H13B 9596   3.421   1.587  11.436 -0.9963  1.5619 -0.7303
   97OSM   H13C 9597   3.503   1.731  11.370 -0.3714  0.0926 -0.9968
   97OSM    C12 9598   3.437   1.548  11.156  0.2202  0.3574 -0.9209
   97OSM   H12A 9599   3.342   1.558  11.207  0.1970 -1.4566 -0.5798
   97OSM   H12B 9600   3.439   1.458  11.097  0.0384 -0.2437 -0.0178
   97OSM    C11 9601   3.463   1.662  11.051  0.5216 -0.4369  0.6715
   97OSM   H11A 9602   3.383   1.666  10.975  0.5987 -1.4566  0.5339
   97OSM   H11B 9603   3.554   1.648  10.988  1.5399  1.8082  1.5613
   97OSM      P 9604   3.580   1.907  11.087  0.1917 -0.3812 -0.0451
   97OSM    O13 9605   3.527   2.038  11.138  0.2756  0.6430  0.4261
   97OSM    O14 9606   3.701   1.861  11.147  0.2588 -0.2908  0.1680
   97OSM    O11 9607   3.604   1.916  10.933  0.0760 -0.0707  0.2108
   97OSM    O12 9608   3.473   1.791  11.113  0.1602  0.4807 -0.0926
   97OSM    C1S 9609   3.493   1.958  10.857  0.7023 -0.5834 -0.7401
   97OSM    H1S 9610   3.469   2.062  10.888 -0.0724 -0.9428 -0.1076
   97OSM    H1T 9611   3.407   1.892  10.882 -0.8640  1.7435  0.2891
   97OSM     NF 9612   3.373   2.016  10.654  0.0475 -0.6834  0.5336
   97OSM    HNF 9613   3.313   1.940  10.630  0.5567 -1.3152  1.2335
   97OSM    C2S 9614   3.502   1.962  10.697 -0.0487 -0.2264 -0.7244
   97OSM    H2S 9615   3.576   2.037  10.661 -1.3855  1.8111  0.6717
   97OSM    C3S 9616   3.541   1.817  10.659 -0.2820  0.1800 -0.7799
   97OSM    H3S 9617   3.457   1.758  10.700 -0.9030 -0.7702 -3.2907
   97OSM     O3 9618   3.662   1.766  10.712 -0.8774 -0.0465 -0.4721
   97OSM    HO3 9619   3.691   1.835  10.772 -0.5353  0.9037 -1.7153
   97OSM    C4S 9620   3.522   1.789  10.511 -0.2380 -0.1624  0.3896
   97OSM    H4S 9621   3.577   1.866  10.455 -0.8215 -0.2330 -0.2837
   97OSM    C5S 9622   3.460   1.693  10.447  0.6259  0.3490 -0.0470
   97OSM    H5S 9623   3.423   1.611  10.511 -0.3034  0.1598 -0.8158
   97OSM    C6S 9624   3.448   1.674  10.298  0.4280 -0.2266  0.3084
   97OSM    H6S 9625   3.343   1.651  10.273  0.3870 -0.3378  0.5800
   97OSM    H6T 9626   3.516   1.600  10.251  1.8779  1.7324 -0.7286
   97OSM    C7S 9627   3.484   1.799  10.212  0.3138 -0.1063 -0.1701
   97OSM    H7S 9628   3.592   1.827  10.216 -0.3415  2.4230  0.5800
   97OSM    H7T 9629   3.422   1.887  10.238 -0.5150 -0.2159 -1.7348
   97OSM    C8S 9630   3.458   1.779  10.062 -0.3191  0.5830 -0.1480
   97OSM    H8S 9631   3.543   1.735  10.006  0.9995  2.0610  0.6281
   97OSM    H8T 9632   3.444   1.875  10.008  1.2286  0.5316 -0.6539
   97OSM    C9S 9633   3.330   1.697  10.012 -0.0723  0.3413  0.6641
   97OSM    H9S 9634   3.236   1.743  10.050 -0.1649  0.5568  0.1722
   97OSM    H9T 9635   3.329   1.598  10.062  0.8210  1.0986  2.2331
   97OSM   C10S 9636   3.324   1.677   9.855 -0.0942 -0.3672  0.2877
   97OSM   H10S 9637   3.392   1.597   9.819 -1.0688 -0.8455 -0.5092
   97OSM   H10T 9638   3.368   1.769   9.810 -1.7535 -1.0016 -2.7210
   97OSM   C11S 9639   3.188   1.646   9.807  0.5352  0.1308  0.8605
   97OSM   H11S 9640   3.114   1.728   9.815  0.5273  0.1218  0.8790
   97OSM   H11T 9641   3.146   1.565   9.870  0.5562 -1.1006 -0.6849
   97OSM   C12S 9642   3.179   1.586   9.663  0.7916 -0.1309 -0.9064
   97OSM   H12S 9643   3.230   1.487   9.668  0.3935 -0.2313  2.0710
   97OSM   H12T 9644   3.238   1.661   9.607  0.5947  0.8904  0.2518
   97OSM   C13S 9645   3.034   1.562   9.612 -0.5240 -0.5450 -0.6045
   97OSM   H13S 9646   2.993   1.664   9.595  2.6894  1.0296  0.5130
   97OSM   H13T 9647   2.995   1.501   9.696 -0.6658  0.8535  0.3592
   97OSM   C14S 9648   3.023   1.477   9.480  0.1448  0.2962  0.7326
   97OSM   H14S 9649   2.915   1.461   9.459 -0.2544  1.0870  2.1537
   97OSM   H14T 9650   3.058   1.376   9.510 -0.1295 -0.2653 -0.7820
   97OSM   C15S 9651   3.110   1.534   9.368  0.2693  0.1753 -0.4245
   97OSM   H15S 9652   3.217   1.550   9.392  0.0504 -1.7385  1.9380
   97OSM   H15T 9653   3.072   1.635   9.342 -0.5409 -0.0744 -0.2308
   97OSM   C16S 9654   3.111   1.450   9.244 -0.0635  0.2339 -0.3271
   97OSM   H16S 9655   3.179   1.362   9.248 -1.5277 -1.0713 -2.9911
   97OSM   H16T 9656   3.147   1.509   9.156  0.4090 -0.4666 -0.6076
   97OSM   C17S 9657   2.977   1.398   9.205  0.4444  0.0358 -0.5358
   97OSM   H17S 9658   2.895   1.472   9.208 -0.8961 -1.4285  0.0986
   97OSM   H17T 9659   2.935   1.334   9.286  0.2914  0.8095  0.0012
   97OSM   C18S 9660   2.989   1.323   9.078 -0.4864 -0.1736 -0.5981
   97OSM   H18S 9661   3.013   1.387   8.990  1.3510  2.1396  1.5085
   97OSM   H18T 9662   2.900   1.266   9.044  0.0581 -0.7092 -1.1345
   97OSM   H18U 9663   3.068   1.247   9.093  0.4618  1.2256  1.6967
   97OSM    C1F 9664   3.343   2.143  10.655  0.2916  0.3741  0.9619
   97OSM     OF 9665   3.423   2.230  10.689  0.1665 -0.4150 -0.8833
   97OSM    C2F 9666   3.200   2.182  10.620 -0.6827 -0.9221  0.3753
   97OSM    H2F 9667   3.147   2.212  10.713 -0.2477  0.3462  0.2270
   97OSM    H2G 9668   3.139   2.098  10.580  0.1249 -0.8095 -1.0943
   97OSM    C3F 9669   3.206   2.302  10.527 -0.0422  0.0861 -0.4382
   97OSM    H3F 9670   3.243   2.380  10.597  1.6518 -0.5157 -0.6489
   97OSM    H3G 9671   3.102   2.328  10.496 -0.6645 -0.3821  1.2214
   97OSM    C4F 9672   3.300   2.278  10.403 -0.2408  0.5007 -0.3608
   97OSM    H4F 9673   3.399   2.231  10.424  0.6908  2.4106 -0.3284
   97OSM    H4G 9674   3.318   2.379  10.359  1.7803 -0.0519 -0.8722
   97OSM    C5F 9675   3.224   2.192  10.292 -0.6583  0.4316 -0.2072
   97OSM    H5F 9676   3.123   2.237  10.287  0.3119  2.8936  1.7954
   97OSM    H5G 9677   3.224   2.085  10.321  0.3740  0.3730 -0.3943
   97OSM    C6F 9678   3.281   2.196  10.145 -0.4013 -0.7508 -0.3795
   97OSM    H6F 9679   3.387   2.161  10.147  0.4415  1.8051  2.0275
   97OSM    H6G 9680   3.288   2.302  10.113 -0.8562 -0.3282  0.9064
   97OSM    C7F 9681   3.204   2.117  10.040 -0.1581 -0.0290  0.0085
   97OSM    H7F 9682   3.095   2.138  10.042 -0.3123 -0.9076  1.1830
   97OSM    H7G 9683   3.211   2.006  10.047  0.7519  0.0552  0.5814
   97OSM    C8F 9684   3.255   2.159   9.895  0.0603 -0.2637  0.1918
   97OSM    H8F 9685   3.363   2.176   9.912  0.1401 -2.3008  1.8934
   97OSM    H8G 9686   3.199   2.252   9.868  0.4544 -0.5101 -1.5360
   97OSM    C9F 9687   3.235   2.049   9.799  0.3215  0.0790 -0.1481
   97OSM    H9F 9688   3.147   1.988   9.821  0.1094  1.2520  2.4371
   97OSM   C10F 9689   3.316   2.008   9.696 -0.3029  0.0012  0.3550
   97OSM   H10F 9690   3.295   1.924   9.628 -0.0984 -0.5927  1.0184
   97OSM   C11F 9691   3.450   2.081   9.664 -0.0480  0.2597  0.6997
   97OSM   H11F 9692   3.533   2.007   9.659 -1.0873 -0.8199 -0.9229
   97OSM   H11G 9693   3.473   2.164   9.735 -0.0167  1.3859 -0.6011
   97OSM   C12F 9694   3.435   2.132   9.521  0.3932  0.4957  0.4461
   97OSM   H12F 9695   3.372   2.223   9.525 -1.3473 -0.6631 -0.4810
   97OSM   H12G 9696   3.391   2.066   9.444  0.3356  1.6710 -0.5295
   97OSM   C13F 9697   3.572   2.165   9.457 -0.3442 -0.2991  0.6989
   97OSM   H13F 9698   3.627   2.072   9.431  0.9522  0.7236 -0.3251
   97OSM   H13G 9699   3.626   2.216   9.539  3.4982  0.0385 -1.9175
   97OSM   C14F 9700   3.550   2.263   9.338  1.0505 -0.6438  0.0629
   97OSM   H14F 9701   3.653   2.283   9.301  0.3224 -1.2559 -2.4296
   97OSM   H14G 9702   3.514   2.360   9.378 -0.4563 -0.2853 -2.0314
   97OSM   C15F 9703   3.461   2.225   9.223  0.3309 -0.3081 -0.2807
   97OSM   H15F 9704   3.363   2.276   9.226  0.3529 -0.2995  3.1352
   97OSM   H15G 9705   3.441   2.116   9.219  0.1593 -0.2696 -0.4619
   97OSM   C16F 9706   3.525   2.260   9.091 -0.8839  0.4190 -0.3823
   97OSM   H16F 9707   3.629   2.223   9.075 -0.0300  1.2508  2.7638
   97OSM   H16G 9708   3.519   2.371   9.091  0.9006  0.5331 -0.4214
   97OSM   C17F 9709   3.450   2.197   8.970  0.0676 -0.3795  0.1482
   97OSM   H17F 9710   3.347   2.238   8.977  0.4043  0.7013 -1.2301
   97OSM   H17G 9711   3.448   2.087   8.988 -0.3125 -0.3194  0.4953
   97OSM   C18F 9712   3.503   2.243   8.835 -0.0930 -0.3772  0.4814
   97OSM   H18F 9713   3.457   2.200   8.744  0.3587 -0.9641  0.5294
   97OSM   H18G 9714   3.613   2.226   8.835 -0.5539 -3.7189 -1.6356
   97OSM   H18H 9715   3.489   2.352   8.821 -0.5314 -0.8208 -2.8459
   98OSM      N 9716   3.080   1.889  11.278  0.2862  0.7712 -0.7660
   98OSM    C15 9717   2.956   1.808  11.294 -0.3545 -0.2631  0.0752
   98OSM   H15A 9718   2.964   1.765  11.393  0.0143 -3.6189 -1.3468
   98OSM   H15B 9719   2.956   1.726  11.224 -0.8305 -0.8337  0.7354
   98OSM   H15C 9720   2.863   1.862  11.289 -0.2120  0.2637  2.5500
   98OSM    C14 9721   3.078   1.992  11.385 -0.2013 -0.2662 -0.3621
   98OSM   H14A 9722   3.108   1.950  11.480  1.0961  3.5534  0.9984
   98OSM   H14B 9723   2.979   2.034  11.402 -0.8755 -2.7039  2.2378
   98OSM   H14C 9724   3.156   2.064  11.368  0.2126 -1.0100 -1.6683
   98OSM    C13 9725   3.194   1.795  11.303  0.1375 -0.1249  0.7578
   98OSM   H13A 9726   3.287   1.849  11.296  0.8934 -1.5405 -0.3154
   98OSM   H13B 9727   3.203   1.717  11.229 -0.3877  0.5334 -0.0042
   98OSM   H13C 9728   3.193   1.753  11.402 -2.9904 -1.9572  0.0129
   98OSM    C12 9729   3.087   1.943  11.139  0.4498 -0.0296  0.2628
   98OSM   H12A 9730   3.173   2.009  11.143  0.7702 -0.5838  3.9595
   98OSM   H12B 9731   3.004   2.012  11.133  0.7581  0.2231 -1.4396
   98OSM    C11 9732   3.095   1.859  11.016  0.1817  0.0134  0.9233
   98OSM   H11A 9733   3.204   1.840  11.012  0.1884  0.4597 -1.9481
   98OSM   H11B 9734   3.066   1.933  10.938  2.2139  0.1022  0.2231
   98OSM      P 9735   3.062   1.610  10.965 -0.1721  0.3028 -0.4529
   98OSM    O13 9736   3.163   1.632  10.860  0.2189  0.6565  0.0620
   98OSM    O14 9737   3.103   1.533  11.086  0.4415  0.3429  0.2472
   98OSM    O11 9738   2.925   1.545  10.898  0.2414  0.4508  0.2042
   98OSM    O12 9739   3.005   1.747  11.015  0.4102  0.3576 -0.2039
   98OSM    C1S 9740   2.871   1.599  10.782 -0.3564  0.0164  0.4069
   98OSM    H1S 9741   2.916   1.697  10.756 -0.1280  0.4764  2.4184
   98OSM    H1T 9742   2.763   1.622  10.798 -0.1799  0.1849  1.4083
   98OSM     NF 9743   2.841   1.586  10.534  0.1308  0.3798  0.5592
   98OSM    HNF 9744   2.746   1.613  10.520  0.3349  2.8784  3.3819
   98OSM    C2S 9745   2.874   1.508  10.655 -0.1555  0.4656  0.0788
   98OSM    H2S 9746   2.975   1.464  10.647 -0.1815  0.3716  0.2625
   98OSM    C3S 9747   2.772   1.399  10.687  0.5578  0.1957  0.2344
   98OSM    H3S 9748   2.670   1.441  10.674  1.4145  1.5252 -2.6533
   98OSM     O3 9749   2.786   1.349  10.822  0.6216  0.2958  0.3064
   98OSM    HO3 9750   2.840   1.411  10.872  1.3443  0.7453 -1.0145
   98OSM    C4S 9751   2.795   1.291  10.581  0.6551  0.4012  0.4952
   98OSM    H4S 9752   2.880   1.222  10.599  0.8471  0.9665  1.8281
   98OSM    C5S 9753   2.713   1.266  10.477  0.2678  0.3523 -0.3934
   98OSM    H5S 9754   2.612   1.310  10.467 -0.1249  0.1493  2.3213
   98OSM    C6S 9755   2.742   1.160  10.366 -0.0579 -0.9429 -0.5346
   98OSM    H6S 9756   2.842   1.111  10.375 -0.2074 -1.1874 -0.1858
   98OSM    H6T 9757   2.729   1.209  10.268 -0.1560 -0.4465 -0.2722
   98OSM    C7S 9758   2.643   1.040  10.373  0.1592  0.1587  0.1049
   98OSM    H7S 9759   2.621   1.011  10.478 -2.6017 -0.4975 -0.6166
   98OSM    H7T 9760   2.711   0.964  10.328  0.7383  0.5744  0.2758
   98OSM    C8S 9761   2.516   1.059  10.298 -0.4348  0.1138  0.3534
   98OSM    H8S 9762   2.471   1.154  10.335  1.8377  1.0080  0.8940
   98OSM    H8T 9763   2.433   0.988  10.318 -0.3679 -0.0501  0.0405
   98OSM    C9S 9764   2.536   1.064  10.146  0.6620 -0.2181  0.4990
   98OSM    H9S 9765   2.607   0.982  10.123  1.0041  0.8042 -2.1705
   98OSM    H9T 9766   2.577   1.161  10.112 -0.9167 -0.6755 -2.9077
   98OSM   C10S 9767   2.406   1.042  10.061  0.2179 -0.4378  0.1179
   98OSM   H10S 9768   2.336   1.125  10.082 -0.1934 -1.1873  1.7889
   98OSM   H10T 9769   2.358   0.948  10.094  0.4685  0.0163  1.7894
   98OSM   C11S 9770   2.442   1.026   9.913  0.6726  0.1136 -0.2413
   98OSM   H11S 9771   2.535   0.965   9.918  0.3562 -0.3753 -0.2823
   98OSM   H11T 9772   2.458   1.123   9.863 -1.1274  0.2981 -0.4945
   98OSM   C12S 9773   2.328   0.952   9.846  0.3598 -0.0921  0.9292
   98OSM   H12S 9774   2.228   1.001   9.848  0.0002 -0.7849  0.3044
   98OSM   H12T 9775   2.308   0.857   9.899 -0.5576  0.2015  1.1248
   98OSM   C13S 9776   2.344   0.914   9.701 -0.3679  0.1248  0.4235
   98OSM   H13S 9777   2.427   0.840   9.697  0.0859  0.5352  2.0411
   98OSM   H13T 9778   2.383   1.002   9.647  0.2199  1.4204  2.9075
   98OSM   C14S 9779   2.218   0.849   9.637 -0.7807 -0.0821 -0.2881
   98OSM   H14S 9780   2.131   0.919   9.636  0.4442  1.4556 -0.4440
   98OSM   H14T 9781   2.188   0.773   9.713 -2.5392  0.8318 -0.0364
   98OSM   C15S 9782   2.245   0.773   9.503 -0.1389  0.2884  0.2810
   98OSM   H15S 9783   2.155   0.715   9.472  1.3731 -1.3715 -1.1236
   98OSM   H15T 9784   2.324   0.696   9.517 -2.7234 -2.4693  0.0551
   98OSM   C16S 9785   2.270   0.867   9.385 -0.1297  0.1357 -0.0777
   98OSM   H16S 9786   2.343   0.950   9.398 -1.2097  1.0542  0.2372
   98OSM   H16T 9787   2.172   0.919   9.391 -1.9060 -3.2593  1.7410
   98OSM   C17S 9788   2.292   0.789   9.251 -0.1412  0.3924 -0.4332
   98OSM   H17S 9789   2.387   0.731   9.258  0.3525  1.3710  1.2411
   98OSM   H17T 9790   2.314   0.865   9.173 -0.9066  3.0110  1.8328
   98OSM   C18S 9791   2.167   0.722   9.199 -0.2752 -0.8605  0.3407
   98OSM   H18S 9792   2.100   0.802   9.161 -0.8355 -1.5272 -0.0857
   98OSM   H18T 9793   2.125   0.646   9.268 -1.6725 -0.2697  0.1688
   98OSM   H18U 9794   2.182   0.666   9.105 -0.6908 -0.5493  0.0846
   98OSM    C1F 9795   2.938   1.645  10.470 -0.2121 -0.1225  0.5019
   98OSM     OF 9796   3.053   1.604  10.479 -0.0760  0.2272  0.3989
   98OSM    C2F 9797   2.897   1.759  10.390  0.3181 -0.2652  0.0685
   98OSM    H2F 9798   2.940   1.849  10.438  4.3570 -2.8048  1.4992
   98OSM    H2G 9799   2.786   1.758  10.382  0.3223 -0.6939  0.0132
   98OSM    C3F 9800   2.959   1.756  10.238 -0.5474  0.6647 -0.1539
   98OSM    H3F 9801   3.069   1.746  10.242 -0.8472 -2.7446  0.3736
   98OSM    H3G 9802   2.945   1.859  10.199  1.0278  0.5528 -1.0529
   98OSM    C4F 9803   2.886   1.659  10.140  0.6700  0.2282 -0.0914
   98OSM    H4F 9804   2.897   1.702  10.038 -0.3461  1.1628  0.1853
   98OSM    H4G 9805   2.779   1.637  10.157  0.9929 -1.3490  0.0369
   98OSM    C5F 9806   2.945   1.520  10.147  0.4078  0.1328  0.4017
   98OSM    H5F 9807   2.919   1.469  10.242 -0.3485 -0.5241 -0.1493
   98OSM    H5G 9808   3.056   1.517  10.138  0.5665 -2.1839  2.5871
   98OSM    C6F 9809   2.889   1.436  10.034  0.4561 -0.5079 -0.2419
   98OSM    H6F 9810   2.932   1.465   9.935  0.9897 -0.8875 -0.1231
   98OSM    H6G 9811   2.778   1.441  10.035  0.5226  1.6271 -0.4662
   98OSM    C7F 9812   2.926   1.287  10.041 -0.4610  0.2354  0.2296
   98OSM    H7F 9813   2.891   1.250  10.140 -1.1523 -1.1417 -0.5275
   98OSM    H7G 9814   3.037   1.287  10.033 -0.3850 -0.0631  1.2248
   98OSM    C8F 9815   2.871   1.189   9.927 -0.2191  0.5732  0.7513
   98OSM    H8F 9816   2.763   1.215   9.913  0.2235  2.8912  1.3228
   98OSM    H8G 9817   2.850   1.092   9.976  1.0707 -0.8169 -1.4285
   98OSM    C9F 9818   2.964   1.187   9.819  0.0024  0.7354  0.6303
   98OSM    H9F 9819   3.068   1.194   9.853  0.2447 -2.2993  0.6885
   98OSM   C10F 9820   2.925   1.184   9.692 -0.0950 -0.4408 -0.2811
   98OSM   H10F 9821   2.997   1.193   9.609 -0.4932  0.8447 -0.5026
   98OSM   C11F 9822   2.788   1.179   9.632  0.3462  0.5230  0.0175
   98OSM   H11F 9823   2.757   1.277   9.588 -0.6951  0.0293 -0.3567
   98OSM   H11G 9824   2.711   1.156   9.708 -0.1975  0.1850 -0.6315
   98OSM   C12F 9825   2.793   1.070   9.514  0.1319 -0.1983  0.3214
   98OSM   H12F 9826   2.824   0.973   9.557 -1.4817 -1.6174 -1.6354
   98OSM   H12G 9827   2.876   1.098   9.446  0.3389  0.5691  0.8851
   98OSM   C13F 9828   2.661   1.049   9.445 -0.4408  0.2323 -0.0987
   98OSM   H13F 9829   2.616   1.134   9.390  0.1972  0.1903 -0.6889
   98OSM   H13G 9830   2.585   1.031   9.525  0.6638 -0.0434  0.9072
   98OSM   C14F 9831   2.682   0.945   9.330  0.1799 -0.3067  0.8801
   98OSM   H14F 9832   2.595   0.876   9.334  0.0315 -0.1896 -0.3199
   98OSM   H14G 9833   2.770   0.881   9.352 -0.2501 -1.4185 -0.5863
   98OSM   C15F 9834   2.695   1.003   9.188 -0.6402  0.3972  0.0844
   98OSM   H15F 9835   2.773   1.079   9.172 -0.9505  0.0300 -3.4997
   98OSM   H15G 9836   2.594   1.047   9.170 -1.0722 -1.1204 -1.3756
   98OSM   C16F 9837   2.727   0.896   9.084 -0.9817  0.0375 -0.2410
   98OSM   H16F 9838   2.640   0.827   9.078 -0.8868 -0.0599 -0.5018
   98OSM   H16G 9839   2.814   0.834   9.113 -1.3694 -0.6335 -0.5135
   98OSM   C17F 9840   2.747   0.956   8.943 -0.2307 -0.5464  0.0021
   98OSM   H17F 9841   2.829   1.030   8.953 -0.1391 -0.4700 -1.2428
   98OSM   H17G 9842   2.652   1.010   8.924  0.0703 -0.5062 -1.4220
   98OSM   C18F 9843   2.781   0.850   8.843 -0.2093 -0.3520  0.5767
   98OSM   H18F 9844   2.778   0.904   8.747  1.2952 -0.2986  0.5600
   98OSM   H18G 9845   2.702   0.772   8.853 -0.9954  0.3896  0.2257
   98OSM   H18H 9846   2.883   0.808   8.858  0.1993  0.7336  0.8520
   99OSM      N 9847   5.582   2.558  10.935 -0.1261 -0.0686 -0.0154
   99OSM    C15 9848   5.469   2.516  11.029 -0.1412 -0.3717  0.3163
   99OSM   H15A 9849   5.447   2.600  11.094  1.4880  1.1470 -1.0463
   99OSM   H15B 9850   5.491   2.430  11.091 -2.1532 -0.0820  1.4732
   99OSM   H15C 9851   5.378   2.499  10.974  0.6488 -0.8851 -0.8531
   99OSM    C14 9852   5.553   2.681  10.853 -0.3933 -0.6726 -0.4843
   99OSM   H14A 9853   5.552   2.764  10.921  2.3280  0.5250 -1.8073
   99OSM   H14B 9854   5.457   2.675  10.803 -2.0502  4.2565  1.8815
   99OSM   H14C 9855   5.631   2.708  10.783  2.9180 -0.1942  3.2549
   99OSM    C13 9856   5.708   2.574  11.029  0.4538 -0.3825  0.8871
   99OSM   H13A 9857   5.717   2.486  11.091  0.0219 -0.5515  0.7145
   99OSM   H13B 9858   5.693   2.660  11.092 -0.8859 -0.1919  0.3173
   99OSM   H13C 9859   5.797   2.587  10.968  1.1612 -0.4994  1.8819
   99OSM    C12 9860   5.624   2.437  10.843 -0.4369  0.3109  0.5405
   99OSM   H12A 9861   5.645   2.352  10.906  4.6523  2.1852  1.6173
   99OSM   H12B 9862   5.724   2.461  10.812 -0.6571  1.0101  0.3596
   99OSM    C11 9863   5.530   2.390  10.728 -0.6050  0.2586 -0.5539
   99OSM   H11A 9864   5.579   2.302  10.682 -0.2869 -0.2847  0.8003
   99OSM   H11B 9865   5.533   2.477  10.658  2.0344  2.2465  1.8966
   99OSM      P 9866   5.379   2.219  10.844 -0.0049  0.1925  0.0147
   99OSM    O13 9867   5.500   2.182  10.921  0.3200 -0.7158 -0.0158
   99OSM    O14 9868   5.257   2.204  10.925  0.6190 -0.2647 -0.1613
   99OSM    O11 9869   5.357   2.130  10.708  0.3241 -0.1779 -0.7175
   99OSM    O12 9870   5.399   2.365  10.782 -0.1489  0.1421 -0.2514
   99OSM    C1S 9871   5.268   2.194  10.616  0.1341 -0.1825  0.0095
   99OSM    H1S 9872   5.322   2.280  10.572  1.6511 -1.0436  0.1531
   99OSM    H1T 9873   5.176   2.233  10.665 -0.4588  1.5058 -2.3510
   99OSM     NF 9874   5.190   2.150  10.375  0.0908 -0.1044 -0.2436
   99OSM    HNF 9875   5.094   2.149  10.348  0.1588  0.0323 -0.4937
   99OSM    C2S 9876   5.235   2.089  10.504  0.1606  0.1171  0.0969
   99OSM    H2S 9877   5.330   2.038  10.476  0.6979  1.5063 -0.6269
   99OSM    C3S 9878   5.125   1.993  10.555 -0.0901 -0.3851  0.6908
   99OSM    H3S 9879   5.029   2.048  10.562 -0.5230 -0.9005 -1.1443
   99OSM     O3 9880   5.154   1.935  10.683  0.6462  0.3132 -0.2494
   99OSM    HO3 9881   5.231   1.972  10.727  0.3260 -0.6777  1.1970
   99OSM    C4S 9882   5.094   1.880  10.456 -0.1669  0.2526 -0.3793
   99OSM    H4S 9883   4.991   1.887  10.419  0.3479 -1.9638 -2.3790
   99OSM    C5S 9884   5.176   1.772  10.448 -0.0255  0.0797  0.0579
   99OSM    H5S 9885   5.269   1.770  10.507 -1.0619 -1.3593  1.6914
   99OSM    C6S 9886   5.159   1.654  10.361  0.0290 -0.0889  0.1144
   99OSM    H6S 9887   5.160   1.559  10.418  1.3070  0.0227  0.3032
   99OSM    H6T 9888   5.252   1.656  10.300  0.6876  2.0761  1.1339
   99OSM    C7S 9889   5.032   1.661  10.267 -0.2153  0.6103 -0.1938
   99OSM    H7S 9890   5.040   1.746  10.195 -1.2305  1.1830  0.3621
   99OSM    H7T 9891   4.941   1.684  10.326 -0.0770 -0.2172  0.3526
   99OSM    C8S 9892   5.003   1.533  10.187  0.1913  0.0380 -0.8095
   99OSM    H8S 9893   4.951   1.457  10.250 -0.1628  0.3742 -0.6929
   99OSM    H8T 9894   5.103   1.494  10.157  0.0503 -2.1543  1.4510
   99OSM    C9S 9895   4.921   1.548  10.057  0.4119 -0.4701 -0.5468
   99OSM    H9S 9896   4.961   1.626   9.989  0.6585  0.8300  1.0400
   99OSM    H9T 9897   4.823   1.579  10.099  1.6044  0.9750  1.2481
   99OSM   C10S 9898   4.912   1.418   9.974 -0.4842  0.2081 -0.1564
   99OSM   H10S 9899   4.873   1.344  10.046 -2.1853  0.3476 -0.9267
   99OSM   H10T 9900   5.010   1.377   9.939  0.2566 -0.8354  3.0309
   99OSM   C11S 9901   4.816   1.435   9.863 -0.6985 -0.1557  0.7125
   99OSM   H11S 9902   4.819   1.536   9.818  2.0380 -1.8763 -3.2437
   99OSM   H11T 9903   4.713   1.419   9.902 -0.6245 -1.7608  0.3136
   99OSM   C12S 9904   4.837   1.337   9.745 -0.0698 -0.2640 -0.2800
   99OSM   H12S 9905   4.943   1.331   9.712 -0.7576 -1.1815 -2.3949
   99OSM   H12T 9906   4.800   1.234   9.764 -0.7002 -0.1903 -1.0865
   99OSM   C13S 9907   4.748   1.385   9.628 -0.3035 -0.6569  0.4040
   99OSM   H13S 9908   4.775   1.493   9.627  3.0625 -1.4650 -1.8739
   99OSM   H13T 9909   4.639   1.374   9.645 -0.4000 -1.0746 -0.4627
   99OSM   C14S 9910   4.775   1.321   9.489 -0.0708  0.4745 -0.4273
   99OSM   H14S 9911   4.737   1.218   9.472  2.6365 -0.1418 -3.0052
   99OSM   H14T 9912   4.884   1.306   9.478  0.6008  1.0315  4.1344
   99OSM   C15S 9913   4.722   1.406   9.374  0.1623  0.1619  0.0334
   99OSM   H15S 9914   4.771   1.505   9.372  1.1034 -0.2319  2.3091
   99OSM   H15T 9915   4.618   1.439   9.392  0.6455  1.0946  1.1357
   99OSM   C16S 9916   4.756   1.351   9.233 -0.0380 -0.2205  0.1579
   99OSM   H16S 9917   4.728   1.243   9.230  0.3808 -0.3184 -0.2638
   99OSM   H16T 9918   4.867   1.356   9.230  0.0252  1.4475  3.1247
   99OSM   C17S 9919   4.700   1.425   9.109  0.0341 -0.3877  0.1846
   99OSM   H17S 9920   4.751   1.523   9.094  2.0016 -1.7631 -2.2648
   99OSM   H17T 9921   4.591   1.442   9.122 -0.3229 -1.5071 -1.2833
   99OSM   C18S 9922   4.729   1.342   8.981 -0.3935  0.2664  0.4714
   99OSM   H18S 9923   4.670   1.391   8.899 -3.0452  0.0617  2.1854
   99OSM   H18T 9924   4.698   1.236   8.995  0.9073 -0.2389 -0.3992
   99OSM   H18U 9925   4.836   1.347   8.952 -0.5590  1.3695  0.0047
   99OSM    C1F 9926   5.279   2.213  10.297  0.1505 -0.1796 -0.1250
   99OSM     OF 9927   5.398   2.194  10.315 -0.4156  0.3416 -0.7512
   99OSM    C2F 9928   5.218   2.300  10.189 -0.0643 -0.2951  0.0210
   99OSM    H2F 9929   5.205   2.397  10.242  0.9383 -0.4740  0.5952
   99OSM    H2G 9930   5.120   2.261  10.154 -1.4416  1.6558  1.5519
   99OSM    C3F 9931   5.307   2.324  10.062 -0.0561 -0.4120 -0.3182
   99OSM    H3F 9932   5.412   2.344  10.090 -0.7733  2.1030  0.7321
   99OSM    H3G 9933   5.303   2.234   9.996  0.5078 -0.7773  0.1346
   99OSM    C4F 9934   5.248   2.436   9.973  0.2687 -0.0180 -0.3066
   99OSM    H4F 9935   5.285   2.532  10.016  2.3062 -0.5617 -0.7683
   99OSM    H4G 9936   5.138   2.435   9.958  0.1847  0.4574  0.2258
   99OSM    C5F 9937   5.308   2.430   9.832  1.0881 -0.8040 -0.2745
   99OSM    H5F 9938   5.251   2.360   9.767 -2.9283  0.9024  1.2571
   99OSM    H5G 9939   5.412   2.391   9.836  1.2410 -0.4386 -0.6695
   99OSM    C6F 9940   5.313   2.564   9.765 -1.3912  0.1703 -0.1146
   99OSM    H6F 9941   5.342   2.647   9.832  1.8311 -0.4570 -0.6455
   99OSM    H6G 9942   5.210   2.580   9.727 -1.3612  1.2989  0.2895
   99OSM    C7F 9943   5.406   2.561   9.643 -0.5982  0.1467  0.1499
   99OSM    H7F 9944   5.401   2.475   9.573  2.5833 -0.2260  0.2794
   99OSM    H7G 9945   5.509   2.555   9.684 -0.8150  4.0627  1.4514
   99OSM    C8F 9946   5.397   2.689   9.561 -0.0071  0.1491 -0.0967
   99OSM    H8F 9947   5.402   2.784   9.618 -0.5780  0.2470 -0.2078
   99OSM    H8G 9948   5.300   2.685   9.508 -0.1443  0.1538  0.1494
   99OSM    C9F 9949   5.507   2.693   9.453 -0.3087 -0.4479 -0.0052
   99OSM    H9F 9950   5.602   2.649   9.485 -0.7040  1.1270  3.5666
   99OSM   C10F 9951   5.502   2.740   9.328  0.4430 -0.2313 -0.1255
   99OSM   H10F 9952   5.595   2.750   9.270 -0.8255 -0.0329 -2.1972
   99OSM   C11F 9953   5.385   2.794   9.254 -0.4934 -0.3856 -0.1086
   99OSM   H11F 9954   5.313   2.844   9.321 -1.3017 -1.5898 -0.0629
   99OSM   H11G 9955   5.335   2.708   9.204 -1.8350  1.0277 -1.2464
   99OSM   C12F 9956   5.419   2.886   9.141  0.0025 -0.8286 -0.6226
   99OSM   H12F 9957   5.468   2.978   9.180 -0.2286 -1.6296  1.6703
   99OSM   H12G 9958   5.329   2.920   9.085  0.7335 -1.9809 -2.5164
   99OSM   C13F 9959   5.513   2.834   9.034 -0.3786 -0.4203 -0.1394
   99OSM   H13F 9960   5.453   2.779   8.958 -1.5299  0.2130  0.2927
   99OSM   H13G 9961   5.590   2.773   9.085  0.9689  2.2198  1.1036
   99OSM   C14F 9962   5.589   2.948   8.969 -0.8587 -0.7225 -0.1290
   99OSM   H14F 9963   5.640   3.015   9.041  0.9177 -1.6016 -0.5698
   99OSM   H14G 9964   5.520   3.017   8.916 -1.0674  0.7155  1.9512
   99OSM   C15F 9965   5.705   2.894   8.883 -0.8823 -0.6676  0.3992
   99OSM   H15F 9966   5.780   2.858   8.958 -2.1786  1.7800  2.9776
   99OSM   H15G 9967   5.746   2.981   8.828 -1.2018  0.4687  1.9187
   99OSM   C16F 9968   5.677   2.771   8.795  0.0839  0.2138  0.5287
   99OSM   H16F 9969   5.594   2.800   8.727  1.3629 -0.5357 -1.4097
   99OSM   H16G 9970   5.646   2.692   8.867 -0.7861  1.5305  1.6088
   99OSM   C17F 9971   5.795   2.721   8.706  0.4405 -0.1705  0.0360
   99OSM   H17F 9972   5.881   2.677   8.761 -1.1156 -1.5746  1.4295
   99OSM   H17G 9973   5.840   2.810   8.659 -1.2461  0.0203 -1.2367
   99OSM   C18F 9974   5.753   2.622   8.596  0.2144 -0.0786 -0.0457
   99OSM   H18F 9975   5.688   2.540   8.632  1.6622 -1.1480  0.1978
   99OSM   H18G 9976   5.833   2.569   8.540 -0.5033 -0.4805 -0.6980
   99OSM   H18H 9977   5.693   2.678   8.521  0.3014  0.8662  0.5704
  100OSM      N 9978   0.237   2.150  11.239 -0.5342 -0.9139 -0.3822
  100OSM    C15 9979   0.342   2.047  11.223  0.1900  0.3966  0.2913
  100OSM   H15A 9980   0.295   1.960  11.180 -0.9288  1.1434 -0.0216
  100OSM   H15B 9981   0.390   2.007  11.311 -0.9147 -2.7003 -0.4335
  100OSM   H15C 9982   0.424   2.073  11.158  1.3903  0.8992  1.9791
  100OSM    C14 9983   0.143   2.104  11.341  0.2294  0.2296  0.4337
  100OSM   H14A 9984   0.087   2.015  11.314 -2.3024  0.9098  3.1761
  100OSM   H14B 9985   0.075   2.184  11.368 -0.2262 -0.5155  1.5081
  100OSM   H14C 9986   0.193   2.065  11.428 -2.8005  0.4375  2.3633
  100OSM    C13 9987   0.306   2.272  11.294 -0.4157 -0.2474  0.2519
  100OSM   H13A 9988   0.239   2.341  11.343  1.2075  0.2502  1.8211
  100OSM   H13B 9989   0.352   2.324  11.212 -2.0000 -0.9557 -1.1332
  100OSM   H13C 9990   0.388   2.250  11.360  0.0920 -1.9982 -0.9382
  100OSM    C12 9991   0.165   2.189  11.111 -0.0796  0.0089  0.3666
  100OSM   H12A 9992   0.106   2.272  11.146 -2.2410 -1.7931  1.1692
  100OSM   H12B 9993   0.100   2.106  11.086  0.9080 -1.0268  1.1521
  100OSM    C11 9994   0.258   2.234  10.990 -0.2209 -0.3534 -0.4107
  100OSM   H11A 9995   0.192   2.261  10.905 -1.1481 -0.0748  0.3890
  100OSM   H11B 9996   0.321   2.152  10.952  2.8140  1.5676  0.2861
  100OSM      P 9997   0.271   2.493  11.008 -0.3773 -0.2689 -0.1994
  100OSM    O13 9998   0.140   2.491  11.076  0.1275  0.0946 -0.0607
  100OSM    O14 9999   0.369   2.596  11.056 -0.3089  0.3341  0.2125
  100OSM    O1110000   0.244   2.508  10.852  0.4788  0.4470  0.1305
  100OSM    O1210001   0.344   2.351  11.021  0.3068  0.0037 -0.4349
  100OSM    C1S10002   0.323   2.451  10.740  0.1787  0.1640  0.3391
  100OSM    H1S10003   0.292   2.347  10.715 -0.4109  0.5261 -0.4550
  100OSM    H1T10004   0.431   2.448  10.765  0.0889 -0.5776  0.6597
  100OSM     NF10005   0.399   2.482  10.518  0.6326 -0.3767  0.2318
  100OSM    HNF10006   0.491   2.519  10.505 -0.0815  1.2671 -0.2504
  100OSM    C2S10007   0.315   2.539  10.612 -0.2355  0.0616  0.1575
  100OSM    H2S10008   0.208   2.529  10.583 -0.0563 -0.2750 -0.3957
  100OSM    C3S10009   0.351   2.686  10.647  0.6218 -0.4421 -0.2438
  100OSM    H3S10010   0.451   2.697  10.694  0.4323  0.2646  0.0070
  100OSM     O310011   0.259   2.739  10.741  1.2921  0.0952 -0.5092
  100OSM    HO310012   0.227   2.656  10.779  1.6625 -0.0885 -0.5921
  100OSM    C4S10013   0.346   2.774  10.527  0.4477  0.3753  0.5029
  100OSM    H4S10014   0.250   2.775  10.473  0.5602  0.8956  0.3125
  100OSM    C5S10015   0.453   2.836  10.477  0.0174  0.0568 -0.3028
  100OSM    H5S10016   0.548   2.834  10.531 -0.0619 -0.5342 -0.1806
  100OSM    C6S10017   0.455   2.918  10.344  0.4988  0.0405 -0.7040
  100OSM    H6S10018   0.533   2.888  10.270  1.9203 -0.0082  0.7785
  100OSM    H6T10019   0.474   3.025  10.367 -2.7432  0.3940  0.5276
  100OSM    C7S10020   0.322   2.907  10.257  0.2398 -0.0983  0.4579
  100OSM    H7S10021   0.238   2.955  10.310 -0.1471 -0.0021 -0.2363
  100OSM    H7T10022   0.291   2.804  10.230  1.5783 -0.1285 -1.0962
  100OSM    C8S10023   0.323   2.981  10.116 -0.5022  0.2046 -0.7056
  100OSM    H8S10024   0.421   2.954  10.073  1.0541  3.5243  0.6085
  100OSM    H8T10025   0.332   3.084  10.156 -3.4954 -0.2130  1.2728
  100OSM    C9S10026   0.214   2.965  10.012 -0.2621 -0.4918 -0.4606
  100OSM    H9S10027   0.250   3.006   9.915  0.7234  0.0538  0.1298
  100OSM    H9T10028   0.129   3.023  10.055  0.0184 -1.4484  1.4359
  100OSM   C10S10029   0.175   2.820   9.972 -0.6052 -0.0104 -0.3822
  100OSM   H10S10030   0.149   2.766  10.065  0.7089  0.1568  0.0837
  100OSM   H10T10031   0.258   2.765   9.923  1.2061  2.1984  0.1399
  100OSM   C11S10032   0.054   2.812   9.871 -0.2125  0.1308 -0.2251
  100OSM   H11S10033  -0.029   2.878   9.904  0.0151  0.6849 -0.7585
  100OSM   H11T10034   0.020   2.707   9.881  0.8349 -0.0903  1.3260
  100OSM   C12S10035   0.080   2.844   9.728 -0.3320  0.2752 -0.0121
  100OSM   H12S10036   0.168   2.782   9.703 -2.0221 -2.4930  0.6232
  100OSM   H12T10037   0.101   2.949   9.698 -2.2316  0.7801  0.3523
  100OSM   C13S10038  -0.033   2.791   9.635 -0.2615 -0.3075  0.3378
  100OSM   H13S10039  -0.111   2.868   9.651 -0.9905 -0.6846 -1.2663
  100OSM   H13T10040  -0.072   2.693   9.671 -1.8304 -0.0198 -0.5012
  100OSM   C14S10041   0.005   2.790   9.481  0.1246 -0.5067  0.1510
  100OSM   H14S10042  -0.076   2.742   9.423  0.2002 -1.5719  0.9149
  100OSM   H14T10043   0.094   2.725   9.464  0.3199 -0.5379  1.2229
  100OSM   C15S10044   0.028   2.931   9.414  0.1315 -0.3020  0.2826
  100OSM   H15S10045   0.105   3.002   9.451  1.0873 -1.1043 -0.1603
  100OSM   H15T10046  -0.071   2.981   9.421 -0.3262 -1.0483 -0.7909
  100OSM   C16S10047   0.072   2.923   9.262 -0.7582 -0.7481 -0.4216
  100OSM   H16S10048  -0.015   2.896   9.199 -1.3223 -0.6334  0.3080
  100OSM   H16T10049   0.159   2.854   9.251 -0.5998 -0.4489 -1.1242
  100OSM   C17S10050   0.129   3.065   9.202 -0.7454  0.4928 -0.2705
  100OSM   H17S10051   0.228   3.095   9.244  0.8415 -2.3416 -1.7949
  100OSM   H17T10052   0.054   3.142   9.230 -0.6030  1.2823 -2.0446
  100OSM   C18S10053   0.135   3.047   9.051 -0.5481 -0.8478  1.0229
  100OSM   H18S10054   0.172   3.144   9.011  0.8652 -1.3435  1.1103
  100OSM   H18T10055   0.038   3.034   8.999  0.9885  2.5479 -3.0112
  100OSM   H18U10056   0.203   2.964   9.021 -3.1461 -2.1451 -1.5012
  100OSM    C1F10057   0.361   2.384  10.430  0.4258  0.1617  0.5811
  100OSM     OF10058   0.278   2.298  10.461  0.5765  0.1688  0.6206
  100OSM    C2F10059   0.427   2.389  10.294 -0.8806 -0.2322  0.1227
  100OSM    H2F10060   0.479   2.291  10.286  1.4698  1.0051 -0.3778
  100OSM    H2G10061   0.483   2.485  10.288 -1.5844  0.1652 -0.1570
  100OSM    C3F10062   0.308   2.393  10.192  0.1338  1.0551  0.7162
  100OSM    H3F10063   0.256   2.489  10.212 -1.0556  0.3192  1.2257
  100OSM    H3G10064   0.236   2.310  10.213 -0.4673  1.2448 -0.5674
  100OSM    C4F10065   0.343   2.386  10.042 -0.2058 -0.6804  0.1799
  100OSM    H4F10066   0.419   2.307  10.023  1.0878  0.5502  0.0833
  100OSM    H4G10067   0.390   2.481  10.008  2.0976 -1.8294  0.0723
  100OSM    C5F10068   0.222   2.370   9.953  1.1175 -0.3122  0.0229
  100OSM    H5F10069   0.145   2.443   9.988 -0.8105 -3.3460  2.3969
  100OSM    H5G10070   0.174   2.271   9.969  0.8261 -0.2795 -0.6455
  100OSM    C6F10071   0.253   2.400   9.807  0.4319  0.3034 -1.1095
  100OSM    H6F10072   0.317   2.319   9.766 -1.6458 -1.9151 -0.0804
  100OSM    H6G10073   0.316   2.491   9.796  1.5354 -0.0569  1.8119
  100OSM    C7F10074   0.136   2.426   9.709 -0.5127 -0.9752  0.5840
  100OSM    H7F10075   0.174   2.439   9.606 -0.1696 -2.1456  0.5530
  100OSM    H7G10076   0.094   2.521   9.749  1.1406  0.5038 -1.1584
  100OSM    C8F10077   0.037   2.313   9.702  0.1569  0.2090  0.1605
  100OSM    H8F10078   0.030   2.259   9.799 -0.0202  0.2011  0.1428
  100OSM    H8G10079   0.047   2.239   9.620 -3.4028  0.9321 -1.0238
  100OSM    C9F10080  -0.095   2.378   9.661  0.3032  0.0178  0.2409
  100OSM    H9F10081  -0.149   2.427   9.744 -0.1344 -0.1969  0.0845
  100OSM   C10F10082  -0.145   2.395   9.544  0.2040  0.6079 -0.4503
  100OSM   H10F10083  -0.238   2.455   9.540 -0.1481  0.1987  1.0630
  100OSM   C11F10084  -0.090   2.349   9.415 -0.1897 -0.2202  0.2104
  100OSM   H11F10085  -0.118   2.241   9.410 -0.9190 -0.1441  2.2980
  100OSM   H11G10086   0.020   2.350   9.422 -0.1607 -0.7833 -0.1012
  100OSM   C12F10087  -0.149   2.432   9.300  0.4283  0.5072  0.0632
  100OSM   H12F10088  -0.108   2.535   9.311 -0.2034  1.0607 -2.4158
  100OSM   H12G10089  -0.260   2.433   9.290  0.4870 -1.5149 -1.0310
  100OSM   C13F10090  -0.103   2.378   9.164 -0.4513 -0.3710 -0.0002
  100OSM   H13F10091  -0.141   2.273   9.166 -1.1302 -0.1054  1.5941
  100OSM   H13G10092   0.008   2.386   9.166 -0.4677 -0.2041  0.2623
  100OSM   C14F10093  -0.153   2.456   9.037 -0.1910 -0.2018 -0.1734
  100OSM   H14F10094  -0.101   2.554   9.035  2.6296 -1.6511 -0.9370
  100OSM   H14G10095  -0.263   2.468   9.033 -0.3407 -1.1479  1.1258
  100OSM   C15F10096  -0.116   2.383   8.903 -0.1855 -0.7185 -0.7956
  100OSM   H15F10097  -0.122   2.272   8.912  0.6541 -0.7528 -0.6159
  100OSM   H15G10098  -0.011   2.411   8.880 -0.4839  1.3664  0.2958
  100OSM   C16F10099  -0.193   2.431   8.780 -0.5592 -0.8602 -0.6487
  100OSM   H16F10100  -0.174   2.540   8.777 -0.6319 -0.8576 -1.1544
  100OSM   H16G10101  -0.303   2.424   8.788 -0.7549  0.2508 -2.1239
  100OSM   C17F10102  -0.158   2.350   8.654 -0.7330 -0.7176  0.6356
  100OSM   H17F10103  -0.050   2.322   8.653 -0.2468  1.0986 -0.2432
  100OSM   H17G10104  -0.167   2.410   8.561  1.8615 -0.5703  0.4292
  100OSM   C18F10105  -0.225   2.208   8.644  0.0218  0.5761 -0.7459
  100OSM   H18F10106  -0.187   2.139   8.565  0.6823  0.2742 -0.1596
  100OSM   H18G10107  -0.334   2.217   8.624 -0.1538 -1.4651 -0.8547
  100OSM   H18H10108  -0.207   2.158   8.741  2.4964  2.9110  0.0747
  101OSM      N10109   3.025   3.138  11.291  0.7514  0.3861 -0.1591
  101OSM    C1510110   3.149   3.163  11.220  1.1309  0.0117 -0.3866
  101OSM   H15A10111   3.134   3.140  11.115 -0.1965 -1.0294  0.0169
  101OSM   H15B10112   3.240   3.117  11.254  0.8741  1.5735  2.5722
  101OSM   H15C10113   3.175   3.268  11.223 -0.8005  0.6036 -2.4057
  101OSM    C1410114   3.046   3.161  11.440 -0.4511  0.1264 -1.1466
  101OSM   H14A10115   3.101   3.253  11.449  1.0858 -0.9357  0.7789
  101OSM   H14B10116   3.098   3.078  11.487 -0.1666  0.0110 -1.6609
  101OSM   H14C10117   2.954   3.176  11.494  0.7347 -0.8783  1.2632
  101OSM    C1310118   2.915   3.227  11.241 -0.0064 -0.2732 -0.4690
  101OSM   H13A10119   2.899   3.221  11.134 -1.2550 -2.1052 -0.1990
  101OSM   H13B10120   2.930   3.332  11.260 -0.0543 -0.7233  2.2699
  101OSM   H13C10121   2.822   3.195  11.286 -0.2724  0.8186 -0.2145
  101OSM    C1210122   2.986   2.995  11.270 -0.5232 -0.1486 -0.5611
  101OSM   H12A10123   2.893   2.971  11.319 -1.0470 -1.3469 -2.0897
  101OSM   H12B10124   3.066   2.938  11.316 -0.6217  1.9182  2.2531
  101OSM    C1110125   2.983   2.938  11.120 -0.6604  0.7093  1.0256
  101OSM   H11A10126   2.942   3.018  11.054  2.5709  1.0028 -0.7380
  101OSM   H11B10127   2.922   2.845  11.113 -0.3348  0.1720  4.3812
  101OSM      P10128   3.185   2.772  11.073 -0.1588 -0.0709 -0.2564
  101OSM    O1310129   3.331   2.787  11.074  0.2001  0.0487 -0.2364
  101OSM    O1410130   3.131   2.688  11.184 -0.0674  0.0531 -0.0657
  101OSM    O1110131   3.131   2.712  10.937  0.1298 -0.0132  0.1021
  101OSM    O1210132   3.116   2.911  11.078 -0.2629  0.8156 -0.5155
  101OSM    C1S10133   3.162   2.766  10.813 -0.2969  0.0400 -0.6122
  101OSM    H1S10134   3.264   2.809  10.805  0.7995 -2.2165  0.7603
  101OSM    H1T10135   3.114   2.866  10.806 -0.3352  0.1375  0.8067
  101OSM     NF10136   3.209   2.719  10.590  0.1564 -0.1746  0.4264
  101OSM    HNF10137   3.164   2.781  10.526 -0.5172 -1.6591 -0.5831
  101OSM    C2S10138   3.126   2.674  10.698 -0.7067  0.4089 -0.6152
  101OSM    H2S10139   3.151   2.569  10.727  0.1555  0.3323 -1.6270
  101OSM    C3S10140   2.969   2.677  10.667  0.1071 -0.1545  0.4727
  101OSM    H3S10141   2.938   2.782  10.646  1.6403  0.2210  0.0113
  101OSM     O310142   2.886   2.628  10.782  0.4102 -0.0216  0.8004
  101OSM    HO310143   2.956   2.631  10.848  0.4992  0.5731  0.6828
  101OSM    C4S10144   2.921   2.594  10.548 -0.8476 -0.2318  0.2024
  101OSM    H4S10145   2.915   2.489  10.581  0.3115 -0.5175 -0.4841
  101OSM    C5S10146   2.903   2.643  10.421 -0.4471  0.2425  0.1949
  101OSM    H5S10147   2.916   2.752  10.410  2.4755  0.0032  0.7430
  101OSM    C6S10148   2.847   2.568  10.305  1.2418  1.3069  0.5878
  101OSM    H6S10149   2.749   2.612  10.276  1.8870  2.3808  0.0349
  101OSM    H6T10150   2.834   2.460  10.329  0.5266  1.3892  0.5916
  101OSM    C7S10151   2.929   2.564  10.170 -0.3261  0.4208 -0.6985
  101OSM    H7S10152   3.026   2.521  10.203 -0.3026  0.3881 -0.8113
  101OSM    H7T10153   2.953   2.659  10.117 -1.5737  1.9446  1.3661
  101OSM    C8S10154   2.852   2.480  10.065  0.0834  0.2535 -0.5238
  101OSM    H8S10155   2.752   2.526  10.047 -1.4089 -2.5135  0.4158
  101OSM    H8T10156   2.836   2.379  10.107 -0.6836  0.5862 -0.0057
  101OSM    C9S10157   2.931   2.455   9.944 -0.6090  0.0368 -0.2489
  101OSM    H9S10158   3.025   2.398   9.959 -1.7402 -1.5596  0.8820
  101OSM    H9T10159   2.962   2.556   9.908 -0.1161  0.7009  2.0090
  101OSM   C10S10160   2.853   2.380   9.830 -0.1839 -0.1154 -0.7945
  101OSM   H10S10161   2.751   2.424   9.829 -0.4436 -0.7017 -0.7550
  101OSM   H10T10162   2.839   2.276   9.867 -1.5865  0.4114  0.1972
  101OSM   C11S10163   2.909   2.401   9.691 -0.6575 -0.7513  0.1538
  101OSM   H11S10164   2.974   2.490   9.691 -0.5553 -0.8094 -1.3698
  101OSM   H11T10165   2.821   2.416   9.625 -0.9775  1.8104  1.1132
  101OSM   C12S10166   2.983   2.279   9.642 -0.7099 -0.2564  0.0208
  101OSM   H12S10167   2.933   2.187   9.679 -1.0374  0.7647  2.2247
  101OSM   H12T10168   3.088   2.282   9.678 -0.5787  0.5508 -0.4203
  101OSM   C13S10169   2.994   2.277   9.490 -0.1046 -0.4915  0.0432
  101OSM   H13S10170   3.041   2.375   9.463  0.7641 -0.7478  0.5991
  101OSM   H13T10171   2.891   2.287   9.451  0.2213  0.3017 -0.6375
  101OSM   C14S10172   3.046   2.150   9.424 -1.1853  0.3399 -0.2699
  101OSM   H14S10173   3.023   2.071   9.498 -0.9711 -0.3920 -0.9622
  101OSM   H14T10174   3.155   2.172   9.428 -0.9904 -0.1186 -2.3234
  101OSM   C15S10175   2.993   2.108   9.287  0.0220 -0.6125  0.4221
  101OSM   H15S10176   3.045   2.165   9.207 -1.5349 -1.7144 -1.4173
  101OSM   H15T10177   2.887   2.140   9.300  0.4008  1.6325 -1.5875
  101OSM   C16S10178   3.003   1.959   9.263  0.8036  0.2813  0.0195
  101OSM   H16S10179   2.947   1.915   9.348 -2.5915  1.5419 -1.4664
  101OSM   H16T10180   3.107   1.919   9.272  0.2878 -1.7503 -2.3609
  101OSM   C17S10181   2.939   1.900   9.133 -0.7500  0.0169  0.0250
  101OSM   H17S10182   2.997   1.934   9.045 -1.3734  0.3915 -0.2445
  101OSM   H17T10183   2.836   1.941   9.129 -0.4577  1.1961  3.0672
  101OSM   C18S10184   2.933   1.749   9.129 -0.1108 -0.2975  0.0998
  101OSM   H18S10185   2.874   1.723   9.219 -0.4737 -0.0683 -0.0668
  101OSM   H18T10186   3.034   1.706   9.139 -0.2179 -0.7354 -0.6229
  101OSM   H18U10187   2.875   1.712   9.041 -1.1785  0.2767  0.5474
  101OSM    C1F10188   3.335   2.692  10.580  0.3196  0.5999 -0.4407
  101OSM     OF10189   3.384   2.618  10.660 -0.3871 -0.7196  0.6565
  101OSM    C2F10190   3.408   2.761  10.470 -0.2303 -0.8339 -0.6464
  101OSM    H2F10191   3.515   2.739  10.493 -1.0541 -3.1556  1.0719
  101OSM    H2G10192   3.373   2.866  10.474 -0.9013 -1.0613 -0.5686
  101OSM    C3F10193   3.360   2.707  10.335  0.3348 -0.6567 -0.5251
  101OSM    H3F10194   3.254   2.738  10.324  0.5127  1.1171  2.1659
  101OSM    H3G10195   3.383   2.599  10.329 -1.5074 -1.0575 -0.6215
  101OSM    C4F10196   3.446   2.776  10.231  0.1663  0.5962 -0.8651
  101OSM    H4F10197   3.554   2.774  10.257  0.7842  0.6575 -3.3323
  101OSM    H4G10198   3.421   2.884  10.224 -0.0120  0.5346 -1.1859
  101OSM    C5F10199   3.442   2.685  10.100 -0.5759  0.5698  0.0409
  101OSM    H5F10200   3.495   2.592  10.129  0.1932  1.5073  1.7098
  101OSM    H5G10201   3.494   2.721  10.009 -0.0909 -0.3862 -0.0693
  101OSM    C6F10202   3.302   2.631  10.058  0.5541  0.2080  0.0129
  101OSM    H6F10203   3.262   2.568  10.141  2.5027 -0.7078  0.2761
  101OSM    H6G10204   3.240   2.721  10.040 -0.2154  0.2560  2.6525
  101OSM    C7F10205   3.312   2.557   9.924  0.5702 -0.0780  0.0491
  101OSM    H7F10206   3.249   2.468   9.943 -1.0786  1.1845  0.5682
  101OSM    H7G10207   3.419   2.529   9.907  0.7555  1.9220 -2.2910
  101OSM    C8F10208   3.251   2.637   9.809  0.4795  0.2497 -0.7893
  101OSM    H8F10209   3.297   2.738   9.804  1.8318 -0.3183 -0.1455
  101OSM    H8G10210   3.144   2.657   9.831  0.4877  1.9941 -2.1859
  101OSM    C9F10211   3.265   2.546   9.685  0.5452  0.4772 -0.3273
  101OSM    H9F10212   3.221   2.446   9.695 -0.8721  1.2105  1.0116
  101OSM   C10F10213   3.350   2.566   9.582  0.2597  0.2179 -0.0511
  101OSM   H10F10214   3.350   2.490   9.503  0.7153  0.7328 -0.5482
  101OSM   C11F10215   3.436   2.690   9.563 -0.3933 -0.1523  0.0723
  101OSM   H11F10216   3.495   2.705   9.656 -3.9092 -4.3911  3.2314
  101OSM   H11G10217   3.367   2.773   9.536  0.7119  0.7909  0.1216
  101OSM   C12F10218   3.533   2.677   9.447  0.7269 -0.4602 -0.0256
  101OSM   H12F10219   3.582   2.578   9.453  0.5622 -0.6671 -1.8255
  101OSM   H12G10220   3.612   2.755   9.455  0.7745 -0.3212 -1.6405
  101OSM   C13F10221   3.466   2.696   9.309 -0.0654 -0.2992  0.6456
  101OSM   H13F10222   3.405   2.789   9.317  0.6244  0.2783 -0.6377
  101OSM   H13G10223   3.386   2.620   9.298 -1.8051  1.7684 -1.5144
  101OSM   C14F10224   3.567   2.677   9.193  0.4762  0.4417 -0.3229
  101OSM   H14F10225   3.626   2.587   9.222 -0.6589 -0.3300 -0.3880
  101OSM   H14G10226   3.640   2.761   9.201  0.2214  0.6490 -0.1635
  101OSM   C15F10227   3.500   2.670   9.058 -0.3243  0.1298 -0.2477
  101OSM   H15F10228   3.443   2.763   9.035  0.3239  0.1604 -1.8200
  101OSM   H15G10229   3.440   2.580   9.037 -2.3999  1.1580  1.1531
  101OSM   C16F10230   3.616   2.659   8.953 -0.7009 -0.1992 -0.4705
  101OSM   H16F10231   3.675   2.569   8.981 -3.9322 -1.8307  1.4072
  101OSM   H16G10232   3.682   2.744   8.928 -0.2804 -0.0945  0.9510
  101OSM   C17F10233   3.544   2.633   8.819  0.4504  0.0329  0.0443
  101OSM   H17F10234   3.485   2.723   8.790  2.6334  0.9614 -1.6129
  101OSM   H17G10235   3.471   2.550   8.830 -1.2013  1.2225 -1.5809
  101OSM   C18F10236   3.639   2.588   8.706  0.0041 -0.3803  0.0827
  101OSM   H18F10237   3.579   2.561   8.617 -0.2660  2.9442 -0.8363
  101OSM   H18G10238   3.697   2.499   8.739 -1.5063 -1.2422  0.4217
  101OSM   H18H10239   3.702   2.676   8.680  0.0728 -0.1135  1.1301
  102OSM      N10240   4.891   4.693  10.831 -0.8138  0.4521 -0.4803
  102OSM    C1510241   4.799   4.648  10.722  0.3872 -0.0203 -0.0382
  102OSM   H15A10242   4.851   4.581  10.655 -1.2724 -2.9405  1.4905
  102OSM   H15B10243   4.749   4.730  10.672  1.8543  1.0635  0.2230
  102OSM   H15C10244   4.720   4.588  10.764  0.1410  1.0743  1.0973
  102OSM    C1410245   4.803   4.755  10.938  0.0173  0.1250  0.4429
  102OSM   H14A10246   4.741   4.674  10.973  0.4322 -0.5185 -0.2975
  102OSM   H14B10247   4.749   4.835  10.890  0.8630  1.6258  1.9100
  102OSM   H14C10248   4.858   4.789  11.025  2.5146  1.2950 -1.5425
  102OSM    C1310249   4.962   4.568  10.873 -0.0094 -0.8220  0.0131
  102OSM   H13A10250   5.014   4.527  10.788 -0.0858 -0.2079 -0.3255
  102OSM   H13B10251   4.885   4.499  10.905 -0.6888 -0.3206 -0.5321
  102OSM   H13C10252   5.039   4.588  10.945  1.3094 -2.6335 -0.8439
  102OSM    C1210253   4.981   4.796  10.777  0.0201  0.4759 -0.3576
  102OSM   H12A10254   5.017   4.864  10.852  2.0649  0.2095 -1.0832
  102OSM   H12B10255   4.925   4.863  10.712 -0.6305  0.5245  0.2477
  102OSM    C1110256   5.096   4.750  10.676  0.0513 -0.3676 -0.5631
  102OSM   H11A10257   5.144   4.839  10.630  1.8705 -1.6388 -1.1609
  102OSM   H11B10258   5.051   4.687  10.596  0.0034 -1.2158  0.1219
  102OSM      P10259   5.282   4.726  10.858 -0.3927 -0.4475 -0.3913
  102OSM    O1310260   5.219   4.841  10.928  0.3657 -0.1015  0.0519
  102OSM    O1410261   5.302   4.606  10.940  0.2815  0.4980 -0.1882
  102OSM    O1110262   5.425   4.769  10.811  0.4344 -0.1375 -0.2144
  102OSM    O1210263   5.198   4.672  10.731  0.7622 -0.3199 -0.1312
  102OSM    C1S10264   5.499   4.697  10.713  1.1558 -0.4376 -0.1600
  102OSM    H1S10265   5.459   4.597  10.683 -1.2360  0.2349  0.7759
  102OSM    H1T10266   5.595   4.674  10.764  1.9921  3.3081  0.0842
  102OSM     NF10267   5.592   4.694  10.486 -0.1197 -0.3444 -0.1100
  102OSM    HNF10268   5.692   4.699  10.483 -0.0809 -1.8220 -2.1673
  102OSM    C2S10269   5.517   4.776  10.582 -0.7677  0.3678 -0.4840
  102OSM    H2S10270   5.415   4.783  10.538 -0.1845 -0.3854 -2.0116
  102OSM    C3S10271   5.569   4.918  10.597  0.1117 -0.6497 -0.3824
  102OSM    H3S10272   5.674   4.919  10.633 -0.2382  2.3019  0.7340
  102OSM     O310273   5.496   4.999  10.693 -0.2812  0.0152  0.2408
  102OSM    HO310274   5.447   4.930  10.738  1.1670 -0.5904  0.9545
  102OSM    C4S10275   5.573   4.985  10.461 -0.0518 -0.3068  0.0202
  102OSM    H4S10276   5.678   5.005  10.432  0.9621 -1.8817  2.4300
  102OSM    C5S10277   5.472   5.027  10.386  0.2813  0.9002  0.2560
  102OSM    H5S10278   5.368   5.006  10.414  0.3580  1.4995  0.9842
  102OSM    C6S10279   5.486   5.108  10.259  0.1652 -0.6215  0.1549
  102OSM    H6S10280   5.593   5.116  10.228  0.2477 -1.2815  0.2613
  102OSM    H6T10281   5.463   5.216  10.267 -0.2957 -0.8159  1.4362
  102OSM    C7S10282   5.388   5.055  10.153 -0.1528 -0.4918  0.1171
  102OSM    H7S10283   5.283   5.056  10.189 -0.6111 -1.0137 -1.1503
  102OSM    H7T10284   5.423   4.954  10.123  1.1373 -0.6280  2.0506
  102OSM    C8S10285   5.391   5.155  10.035  0.5430  0.9378 -0.2713
  102OSM    H8S10286   5.495   5.190  10.017  1.0293 -0.0517  0.5618
  102OSM    H8T10287   5.322   5.238  10.060 -1.4653 -1.0111  0.8463
  102OSM    C9S10288   5.340   5.084   9.906  0.5218 -0.3121 -0.3720
  102OSM    H9S10289   5.248   5.024   9.923  0.4730  0.2441  1.5053
  102OSM    H9T10290   5.412   5.004   9.876  0.3407  0.9866 -4.5774
  102OSM   C10S10291   5.333   5.179   9.789  0.4047 -0.7552  0.4601
  102OSM   H10S10292   5.426   5.240   9.792  0.2199 -0.5308  2.4369
  102OSM   H10T10293   5.254   5.256   9.796 -0.5930 -1.8183  1.2301
  102OSM   C11S10294   5.329   5.105   9.658 -0.6533 -0.2204 -0.4028
  102OSM   H11S10295   5.245   5.033   9.651 -0.1307 -0.7450 -1.3685
  102OSM   H11T10296   5.416   5.036   9.652 -0.1532  0.1431  2.1375
  102OSM   C12S10297   5.333   5.198   9.539 -0.0446  0.2942 -0.6884
  102OSM   H12S10298   5.433   5.243   9.529 -0.0292  0.5244  0.4625
  102OSM   H12T10299   5.258   5.279   9.555  1.8003  1.5430  2.0135
  102OSM   C13S10300   5.289   5.140   9.404 -1.1116  0.1929 -0.7121
  102OSM   H13S10301   5.201   5.073   9.419 -0.2017 -0.7179  0.6968
  102OSM   H13T10302   5.362   5.073   9.353 -1.8567 -0.3501 -1.0711
  102OSM   C14S10303   5.258   5.257   9.311 -0.0310  0.1344 -0.3512
  102OSM   H14S10304   5.351   5.295   9.264  1.0503 -2.7669 -0.6751
  102OSM   H14T10305   5.191   5.331   9.360 -0.8697 -1.6768  1.3245
  102OSM   C15S10306   5.181   5.208   9.191 -0.4611 -0.3243  0.0828
  102OSM   H15S10307   5.077   5.181   9.218 -0.1711 -0.9982  0.5421
  102OSM   H15T10308   5.229   5.112   9.161  0.2845  0.9226 -2.8419
  102OSM   C16S10309   5.202   5.275   9.050 -0.3018 -0.3314 -0.5102
  102OSM   H16S10310   5.219   5.199   8.971 -0.7805  0.9220 -1.8421
  102OSM   H16T10311   5.295   5.335   9.040 -0.7455  0.6610  1.1335
  102OSM   C17S10312   5.084   5.367   9.005 -0.8363 -0.5883  0.3779
  102OSM   H17S10313   4.991   5.307   9.001 -1.7786  0.9128 -0.9466
  102OSM   H17T10314   5.109   5.401   8.902  1.2084 -0.9714  0.7136
  102OSM   C18S10315   5.078   5.491   9.097 -0.8154  0.0392  0.9937
  102OSM   H18S10316   5.166   5.553   9.071 -0.2209 -1.2399 -0.0928
  102OSM   H18T10317   5.080   5.451   9.201  1.0707  0.2214  1.0480
  102OSM   H18U10318   4.991   5.555   9.071  1.2071  2.3861 -0.1680
  102OSM    C1F10319   5.543   4.583  10.428  0.2744 -0.6864  0.1444
  102OSM     OF10320   5.423   4.559  10.445 -0.6254 -0.7636  0.4408
  102OSM    C2F10321   5.630   4.499  10.336  0.5599  0.0069 -0.1678
  102OSM    H2F10322   5.636   4.394  10.371  2.7697 -0.3503 -1.5305
  102OSM    H2G10323   5.729   4.550  10.342  0.5403 -0.1850  2.8358
  102OSM    C3F10324   5.575   4.492  10.197  0.1559 -0.1975 -0.6927
  102OSM    H3F10325   5.474   4.447  10.208 -0.5860  1.8099  1.1400
  102OSM    H3G10326   5.635   4.429  10.129  1.1970 -0.7364  0.7094
  102OSM    C4F10327   5.550   4.627  10.127 -0.7775  0.7854  0.3185
  102OSM    H4F10328   5.479   4.694  10.180 -0.2816  0.6363  1.1729
  102OSM    H4G10329   5.504   4.596  10.030 -1.0661 -1.6445  1.2019
  102OSM    C5F10330   5.673   4.710  10.091 -0.9907 -0.0289  0.2431
  102OSM    H5F10331   5.728   4.738  10.183  2.0990 -0.6771 -1.3393
  102OSM    H5G10332   5.629   4.802  10.047 -0.6589 -1.6365 -3.6866
  102OSM    C6F10333   5.779   4.647   9.998 -0.2713 -0.4283 -0.3194
  102OSM    H6F10334   5.807   4.551  10.045 -1.8110 -0.0884  1.3448
  102OSM    H6G10335   5.877   4.698   9.988  0.2942 -1.6809 -1.3082
  102OSM    C7F10336   5.722   4.626   9.858 -0.0160 -0.2777  0.3099
  102OSM    H7F10337   5.691   4.726   9.820  1.7780  1.1424  2.4072
  102OSM    H7G10338   5.634   4.560   9.869 -0.2255 -0.2938 -1.3285
  102OSM    C8F10339   5.835   4.579   9.768  0.1598  0.0776  0.9882
  102OSM    H8F10340   5.901   4.500   9.811  2.4029  0.0645 -2.2092
  102OSM    H8G10341   5.892   4.670   9.740  0.4978 -0.1503  0.9232
  102OSM    C9F10342   5.772   4.527   9.637  0.2703  0.3636 -0.0349
  102OSM    H9F10343   5.668   4.490   9.635 -0.3495  2.1059 -1.9332
  102OSM   C10F10344   5.826   4.544   9.514 -0.5733 -0.5314 -0.0526
  102OSM   H10F10345   5.763   4.502   9.434  0.5330 -0.3562 -1.0291
  102OSM   C11F10346   5.962   4.604   9.481 -0.9019 -0.6757 -0.8929
  102OSM   H11F10347   6.036   4.522   9.486 -2.3668 -2.0104 -0.8173
  102OSM   H11G10348   5.987   4.682   9.556  0.3347 -0.7096 -1.2687
  102OSM   C12F10349   5.967   4.666   9.343  0.6112  0.2932  0.4741
  102OSM   H12F10350   5.875   4.727   9.337  1.1191  0.8976 -1.8558
  102OSM   H12G10351   5.943   4.592   9.263 -0.4923  2.5027 -1.2988
  102OSM   C13F10352   6.070   4.766   9.303 -0.1262 -0.0524 -0.3631
  102OSM   H13F10353   6.163   4.706   9.297  1.6560  2.6928 -1.0500
  102OSM   H13G10354   6.097   4.837   9.384  1.3685 -0.6130 -0.3590
  102OSM   C14F10355   6.044   4.838   9.172  0.7925  0.5097  1.0207
  102OSM   H14F10356   5.943   4.883   9.170  1.6941  2.6145 -0.5256
  102OSM   H14G10357   6.042   4.767   9.087  1.9132  1.7914 -0.1171
  102OSM   C15F10358   6.153   4.946   9.139  0.4955 -0.5541 -0.2103
  102OSM   H15F10359   6.250   4.894   9.152  0.7342  0.2161  1.2158
  102OSM   H15G10360   6.150   5.012   9.229 -0.4186 -2.5595  1.2652
  102OSM   C16F10361   6.144   5.013   9.005 -0.4270  0.0894  0.8573
  102OSM   H16F10362   6.214   5.099   8.998  0.7138 -0.9245 -0.5363
  102OSM   H16G10363   6.044   5.045   8.970  0.4863  1.4843 -0.5669
  102OSM   C17F10364   6.183   4.916   8.888  0.8595 -0.7948 -0.4578
  102OSM   H17F10365   6.124   4.825   8.911 -2.5646  1.0480 -1.4636
  102OSM   H17G10366   6.293   4.904   8.890  0.8982 -0.7494 -1.9310
  102OSM   C18F10367   6.134   4.951   8.746 -0.1726 -0.0501  0.4865
  102OSM   H18F10368   6.178   5.042   8.699 -1.2161  1.9264  3.1945
  102OSM   H18G10369   6.026   4.976   8.754 -0.2244  0.2534 -1.1038
  102OSM   H18H10370   6.138   4.869   8.672 -0.0971 -0.5102  0.9926
  103OSM      N10371   4.825   1.519  11.163  0.1713  0.9759 -0.1856
  103OSM    C1510372   4.890   1.642  11.213  0.2400 -0.3585 -0.6043
  103OSM   H15A10373   4.895   1.654  11.320 -0.2509  0.0541 -0.6258
  103OSM   H15B10374   4.832   1.725  11.174 -0.1047 -1.6781 -3.0095
  103OSM   H15C10375   4.988   1.643  11.169  0.2753  0.9500 -0.4951
  103OSM    C1410376   4.907   1.395  11.173 -0.0664 -0.5022  0.3288
  103OSM   H14A10377   4.846   1.311  11.145  1.1094 -0.8138 -1.3336
  103OSM   H14B10378   4.943   1.375  11.273 -1.7415  1.0715  1.2835
  103OSM   H14C10379   4.997   1.396  11.114 -1.1029  2.7178 -1.3141
  103OSM    C1310380   4.707   1.491  11.248 -0.2157 -0.4837 -0.3293
  103OSM   H13A10381   4.731   1.454  11.346 -0.3363  0.0294 -0.1073
  103OSM   H13B10382   4.667   1.399  11.210  1.3371 -0.5389 -1.9255
  103OSM   H13C10383   4.632   1.567  11.266 -0.2915 -0.5760 -0.2594
  103OSM    C1210384   4.786   1.536  11.015 -0.1023 -0.4326 -0.5561
  103OSM   H12A10385   4.878   1.543  10.959 -0.1731  2.4076 -0.3573
  103OSM   H12B10386   4.738   1.631  11.001  1.0528  0.3588  0.7466
  103OSM    C1110387   4.686   1.431  10.956 -0.2548 -0.8226 -0.3631
  103OSM   H11A10388   4.658   1.481  10.861  0.3007  1.7323  0.7875
  103OSM   H11B10389   4.601   1.435  11.027 -0.1918 -0.8495 -0.2856
  103OSM      P10390   4.670   1.184  10.910 -0.1219 -0.5456  0.4197
  103OSM    O1310391   4.766   1.081  10.868 -0.2157 -0.3225  0.0917
  103OSM    O1410392   4.579   1.155  11.019 -0.1165  0.3227  0.1643
  103OSM    O1110393   4.580   1.238  10.788 -0.3257  0.1920  0.0903
  103OSM    O1210394   4.758   1.307  10.946 -0.3229  0.3464 -0.0433
  103OSM    C1S10395   4.633   1.246  10.662 -0.3724  0.3956 -0.5153
  103OSM    H1S10396   4.709   1.167  10.642 -0.9880 -0.0833 -0.9963
  103OSM    H1T10397   4.685   1.344  10.655  1.1771 -0.5775 -3.2515
  103OSM     NF10398   4.586   1.253  10.427  0.4713 -0.2814 -0.0067
  103OSM    HNF10399   4.604   1.342  10.387  2.5611 -0.1063  1.2615
  103OSM    C2S10400   4.520   1.257  10.552  0.4010 -0.9268  0.3722
  103OSM    H2S10401   4.467   1.161  10.568  1.1835 -1.4628 -0.1992
  103OSM    C3S10402   4.425   1.378  10.577 -0.4686  0.1099 -0.7911
  103OSM    H3S10403   4.486   1.471  10.574 -2.0570  1.2847  1.4096
  103OSM     O310404   4.350   1.381  10.695  0.7427  0.4432 -0.1938
  103OSM    HO310405   4.405   1.318  10.743  0.8522 -0.7663 -1.8752
  103OSM    C4S10406   4.329   1.378  10.471  0.1901 -0.4929 -0.3717
  103OSM    H4S10407   4.294   1.278  10.442  2.1628 -1.3411  0.1281
  103OSM    C5S10408   4.298   1.478  10.390  0.2288 -0.2636  0.2468
  103OSM    H5S10409   4.360   1.568  10.403 -0.7282  0.4495 -0.0615
  103OSM    C6S10410   4.201   1.481  10.274  0.3676  0.1452  0.4507
  103OSM    H6S10411   4.161   1.579  10.240  0.1940 -1.0423 -2.8991
  103OSM    H6T10412   4.104   1.437  10.307  0.3558  0.6069  1.0339
  103OSM    C7S10413   4.261   1.427  10.146  0.4499 -0.2350  0.4388
  103OSM    H7S10414   4.189   1.423  10.062  1.0766 -2.7582 -0.0415
  103OSM    H7T10415   4.286   1.320  10.161  1.7986  0.0842  0.5201
  103OSM    C8S10416   4.375   1.514  10.087  0.3885 -0.0783  0.8937
  103OSM    H8S10417   4.466   1.512  10.150 -0.2550 -1.0985  1.8077
  103OSM    H8T10418   4.336   1.617  10.097 -2.2767 -1.0298  0.7364
  103OSM    C9S10419   4.417   1.490   9.940  0.1449 -0.0968 -0.2903
  103OSM    H9S10420   4.458   1.389   9.960 -0.8505 -0.5290 -0.3736
  103OSM    H9T10421   4.485   1.572   9.909  0.7482 -0.8485 -0.9723
  103OSM   C10S10422   4.299   1.491   9.836  0.1484 -0.3423 -0.3537
  103OSM   H10S10423   4.235   1.582   9.845  1.2253  0.5227 -1.2051
  103OSM   H10T10424   4.233   1.403   9.850  0.2887 -0.0939  2.0660
  103OSM   C11S10425   4.348   1.479   9.696 -0.7739  0.2396 -0.3967
  103OSM   H11S10426   4.410   1.387   9.693 -1.0833  0.0320 -0.3799
  103OSM   H11T10427   4.409   1.568   9.668  1.9429 -1.4862 -0.1914
  103OSM   C12S10428   4.253   1.470   9.578 -0.8318 -0.4857 -0.2640
  103OSM   H12S10429   4.177   1.550   9.588  0.0678  0.6585 -2.3807
  103OSM   H12T10430   4.204   1.370   9.579  0.9972 -1.3947 -0.3930
  103OSM   C13S10431   4.324   1.480   9.446 -0.9925  0.5984  0.3621
  103OSM   H13S10432   4.370   1.382   9.420 -1.3377  0.4027  0.4783
  103OSM   H13T10433   4.403   1.558   9.447 -1.3555  0.9624  0.5056
  103OSM   C14S10434   4.238   1.525   9.330 -0.0217  0.9344  0.6498
  103OSM   H14S10435   4.188   1.623   9.345 -2.3107  0.2171 -1.8340
  103OSM   H14T10436   4.154   1.454   9.318  0.1053  0.8881  0.0234
  103OSM   C15S10437   4.317   1.523   9.201 -0.2148  0.0346 -0.1642
  103OSM   H15S10438   4.322   1.419   9.163  2.8707  1.0519 -2.7577
  103OSM   H15T10439   4.423   1.544   9.226  0.0454 -1.3418 -0.0750
  103OSM   C16S10440   4.247   1.610   9.090  0.3376  0.1557  0.4688
  103OSM   H16S10441   4.270   1.718   9.104  2.1958 -0.3794  1.8573
  103OSM   H16T10442   4.139   1.584   9.091  0.9548 -2.5561  2.3087
  103OSM   C17S10443   4.296   1.572   8.951  0.4478 -0.5379  0.2902
  103OSM   H17S10444   4.404   1.548   8.943 -0.0407 -2.5555 -0.5847
  103OSM   H17T10445   4.266   1.651   8.879 -0.0989  0.8372  2.0029
  103OSM   C18S10446   4.234   1.444   8.899  0.4246  0.1972  0.1416
  103OSM   H18S10447   4.128   1.445   8.866  0.0225 -1.0912  1.2872
  103OSM   H18T10448   4.247   1.365   8.977  0.0100 -0.9610 -0.9345
  103OSM   H18U10449   4.301   1.405   8.819  0.2603 -1.6716  0.8768
  103OSM    C1F10450   4.651   1.145  10.380 -0.9903 -0.5712  0.1678
  103OSM     OF10451   4.636   1.034  10.434 -0.2889 -0.5295  0.6887
  103OSM    C2F10452   4.745   1.165  10.259  0.4700 -0.0601 -0.9717
  103OSM    H2F10453   4.791   1.266  10.246 -0.8479  0.6311 -0.3607
  103OSM    H2G10454   4.683   1.150  10.167 -0.9530 -0.4674  0.0298
  103OSM    C3F10455   4.854   1.065  10.257  0.4652  0.3289  0.0030
  103OSM    H3F10456   4.815   0.962  10.244  0.9044  0.1805 -0.1084
  103OSM    H3G10457   4.913   1.082  10.349 -1.1681 -0.3580  1.2181
  103OSM    C4F10458   4.953   1.076  10.140 -0.7362  1.0529  0.6238
  103OSM    H4F10459   5.042   1.015  10.167 -2.4058 -0.1819  3.5732
  103OSM    H4G10460   4.981   1.184  10.138  1.2924  0.5384 -2.4255
  103OSM    C5F10461   4.895   1.027  10.008 -0.4498 -0.1324  0.0557
  103OSM    H5F10462   4.794   1.069   9.988 -1.9261 -2.7818  1.7652
  103OSM    H5G10463   4.884   0.917  10.021 -1.3987 -0.0253  0.1925
  103OSM    C6F10464   4.985   1.056   9.888  0.5067 -0.4028  0.1109
  103OSM    H6F10465   5.091   1.035   9.913  0.4061  0.3768  1.1957
  103OSM    H6G10466   4.980   1.166   9.873 -2.8418 -0.2241  1.9481
  103OSM    C7F10467   4.937   0.982   9.763 -0.7015 -0.4181  0.5056
  103OSM    H7F10468   4.830   1.009   9.766 -0.3150  1.6897 -2.6255
  103OSM    H7G10469   4.938   0.872   9.781 -0.2677 -0.4669  0.2075
  103OSM    C8F10470   5.011   1.025   9.641  0.2692  0.5013  0.2634
  103OSM    H8F10471   5.120   1.020   9.663  0.3497  0.2633 -0.1928
  103OSM    H8G10472   4.987   1.130   9.614 -1.9079  0.5074  2.0489
  103OSM    C9F10473   4.961   0.936   9.530  0.0442 -0.3136  0.0530
  103OSM    H9F10474   4.864   0.888   9.546 -1.4372  2.8686  0.9501
  103OSM   C10F10475   5.012   0.941   9.404 -0.0414 -0.1513 -0.1375
  103OSM   H10F10476   4.975   0.870   9.329 -0.2020 -0.5025  0.2743
  103OSM   C11F10477   5.130   1.022   9.348 -1.1694  0.9734 -0.3787
  103OSM   H11F10478   5.198   0.944   9.307 -1.4828  0.9399 -0.8376
  103OSM   H11G10479   5.178   1.079   9.430 -3.1722  1.0608  0.7657
  103OSM   C12F10480   5.087   1.122   9.246 -1.2410  0.3339  0.1778
  103OSM   H12F10481   5.036   1.202   9.305 -0.9103 -0.2923  1.3248
  103OSM   H12G10482   5.020   1.069   9.175 -0.8333  0.5083 -0.3374
  103OSM   C13F10483   5.205   1.192   9.175 -0.2472 -0.3659 -0.6107
  103OSM   H13F10484   5.272   1.123   9.118 -0.6560 -0.2094 -1.2871
  103OSM   H13G10485   5.262   1.239   9.259  0.7941 -1.9783 -0.3710
  103OSM   C14F10486   5.160   1.302   9.078 -0.0075 -0.2141 -0.6792
  103OSM   H14F10487   5.111   1.385   9.134  3.1216  1.2063  0.0648
  103OSM   H14G10488   5.089   1.259   9.004 -1.0288  3.4591 -1.9759
  103OSM   C15F10489   5.267   1.365   8.990 -0.3578 -0.1540  0.8434
  103OSM   H15F10490   5.301   1.271   8.943 -1.7563 -0.1818 -0.1226
  103OSM   H15G10491   5.352   1.407   9.048 -0.6984 -0.3354  1.4756
  103OSM   C16F10492   5.217   1.454   8.871  0.2088  0.2024  0.0918
  103OSM   H16F10493   5.158   1.542   8.903  2.2144  2.0588 -1.1789
  103OSM   H16G10494   5.150   1.387   8.813  0.2200  0.3650 -0.1118
  103OSM   C17F10495   5.345   1.500   8.795 -0.2348  0.7551 -0.1616
  103OSM   H17F10496   5.404   1.551   8.874 -3.7128  1.9007  1.8585
  103OSM   H17G10497   5.319   1.582   8.725 -0.6365  0.2750 -0.5780
  103OSM   C18F10498   5.435   1.405   8.727  0.8334 -0.0713  0.3506
  103OSM   H18F10499   5.452   1.320   8.797 -3.0767  0.6876  2.3576
  103OSM   H18G10500   5.532   1.451   8.697  1.5235 -2.2127 -0.8654
  103OSM   H18H10501   5.393   1.372   8.629  0.2921 -2.9320  1.5075
  104OSM      N10502   5.639   0.787  10.977 -0.1471  0.2464  0.4363
  104OSM    C1510503   5.683   0.662  11.046 -0.6828  0.4789 -0.8897
  104OSM   H15A10504   5.702   0.576  10.983  0.6081  0.8418 -1.0266
  104OSM   H15B10505   5.618   0.640  11.129  2.0827  2.2145  1.8359
  104OSM   H15C10506   5.774   0.695  11.095  1.8280 -2.6046 -3.1824
  104OSM    C1410507   5.574   0.872  11.077  0.2225 -0.1473 -0.3828
  104OSM   H14A10508   5.524   0.807  11.147  1.3987 -0.5158  0.1404
  104OSM   H14B10509   5.497   0.936  11.038 -1.7615 -2.1604  0.1547
  104OSM   H14C10510   5.643   0.944  11.119 -1.7927  0.1308  2.6152
  104OSM    C1310511   5.758   0.855  10.909 -1.3760 -0.2209 -0.0222
  104OSM   H13A10512   5.725   0.929  10.837 -0.1532 -1.1534 -1.5858
  104OSM   H13B10513   5.804   0.794  10.832  0.3679  0.7257  0.2423
  104OSM   H13C10514   5.830   0.902  10.974  0.4395  0.0221 -2.1642
  104OSM    C1210515   5.531   0.751  10.869 -0.4660  0.4019 -0.3789
  104OSM   H12A10516   5.503   0.846  10.827 -0.6541 -0.1999 -1.6309
  104OSM   H12B10517   5.446   0.704  10.916  2.8275 -3.6113  2.0218
  104OSM    C1110518   5.592   0.672  10.751 -0.0812 -0.4638  0.2327
  104OSM   H11A10519   5.687   0.718  10.717  0.7021 -0.9650  1.7040
  104OSM   H11B10520   5.523   0.676  10.664 -1.3170 -0.9120  1.1709
  104OSM      P10521   5.530   0.412  10.802  0.3839  0.1232 -0.0372
  104OSM    O1310522   5.568   0.341  10.924 -0.1498 -0.6504  0.2760
  104OSM    O1410523   5.388   0.453  10.779 -0.2993  0.8767 -0.3283
  104OSM    O1110524   5.579   0.327  10.676  0.0077 -0.0436 -0.6956
  104OSM    O1210525   5.623   0.536  10.788 -0.1772 -0.1204  0.0699
  104OSM    C1S10526   5.544   0.357  10.541  0.0911 -0.1219 -0.7730
  104OSM    H1S10527   5.479   0.447  10.543  0.8377  0.4167 -0.5338
  104OSM    H1T10528   5.479   0.275  10.503 -0.1744  0.1366 -0.8854
  104OSM     NF10529   5.629   0.428  10.313 -0.5182  0.1886  0.2027
  104OSM    HNF10530   5.618   0.357  10.244  0.7733 -2.1566  2.3161
  104OSM    C2S10531   5.671   0.390  10.443  0.4386  0.4273 -0.3494
  104OSM    H2S10532   5.726   0.473  10.494 -0.7629 -0.4895  2.5339
  104OSM    C3S10533   5.772   0.273  10.436  0.0085 -0.2985 -0.3570
  104OSM    H3S10534   5.729   0.188  10.380  1.1854 -2.3010  1.6938
  104OSM     O310535   5.803   0.217  10.558  0.4045  0.5518  0.4505
  104OSM    HO310536   5.743   0.253  10.624  0.8110  1.7850  0.1570
  104OSM    C4S10537   5.894   0.301  10.354 -0.1749  0.4872  0.8959
  104OSM    H4S10538   5.894   0.258  10.253 -0.7385  3.3357 -0.3635
  104OSM    C5S10539   5.994   0.382  10.388 -0.1432  0.4716 -0.0507
  104OSM    H5S10540   5.992   0.440  10.481 -0.9557 -0.3563  0.4447
  104OSM    C6S10541   6.118   0.415  10.309  0.3430 -0.2451  1.0017
  104OSM    H6S10542   6.205   0.372  10.363  1.1821 -0.8451 -0.8002
  104OSM    H6T10543   6.132   0.525  10.313 -0.5008  0.1203 -3.2312
  104OSM    C7S10544   6.138   0.380  10.158  1.1449 -0.1714 -0.7216
  104OSM    H7S10545   6.227   0.429  10.113  0.5877  1.0312 -0.5097
  104OSM    H7T10546   6.059   0.434  10.102  0.5445  0.2421  0.5049
  104OSM    C8S10547   6.143   0.225  10.124  0.2850  0.0808  0.4226
  104OSM    H8S10548   6.042   0.179  10.135 -0.9554  1.8318 -2.7514
  104OSM    H8T10549   6.210   0.181  10.200  2.8912  1.8119 -0.8007
  104OSM    C9S10550   6.214   0.184   9.990 -0.0254 -0.2111 -0.7220
  104OSM    H9S10551   6.308   0.244   9.982  1.5369 -2.7069 -1.6617
  104OSM    H9T10552   6.148   0.218   9.908  0.1629  0.2784 -0.6723
  104OSM   C10S10553   6.248   0.037   9.975 -0.6111  0.4799  0.0929
  104OSM   H10S10554   6.164  -0.024  10.013 -1.7031  1.9870  0.1718
  104OSM   H10T10555   6.339   0.017  10.035  0.3567  1.4391 -1.0192
  104OSM   C11S10556   6.294   0.002   9.831  0.3174 -0.3829 -0.3105
  104OSM   H11S10557   6.202  -0.001   9.769  0.5939  0.6078 -0.7648
  104OSM   H11T10558   6.327  -0.104   9.845 -2.0371 -1.4160 -2.2405
  104OSM   C12S10559   6.400   0.090   9.780  0.2614  0.3239  0.5824
  104OSM   H12S10560   6.486   0.103   9.849  0.8688  0.1559 -0.1410
  104OSM   H12T10561   6.359   0.193   9.765  1.2674  0.6540  0.1001
  104OSM   C13S10562   6.446   0.027   9.648  0.7187 -0.2751  0.2396
  104OSM   H13S10563   6.466  -0.081   9.663  1.0105 -0.3539 -0.6666
  104OSM   H13T10564   6.540   0.084   9.630 -0.0524  0.8633 -0.2581
  104OSM   C14S10565   6.345   0.047   9.542  0.5023 -0.6380  0.9445
  104OSM   H14S10566   6.319   0.155   9.547 -1.9867 -1.0753 -1.2501
  104OSM   H14T10567   6.252  -0.010   9.564 -0.3881  0.3333 -0.2409
  104OSM   C15S10568   6.393   0.010   9.402  0.1892  0.5506  0.1698
  104OSM   H15S10569   6.429  -0.094   9.396  1.3063  0.8458  1.4801
  104OSM   H15T10570   6.474   0.084   9.385 -1.2218  2.0213 -0.3218
  104OSM   C16S10571   6.289   0.034   9.296 -0.2490  0.9249 -0.9726
  104OSM   H16S10572   6.257   0.140   9.284 -3.8489  0.0338  0.2269
  104OSM   H16T10573   6.194  -0.005   9.337  0.0818  1.6503  0.5348
  104OSM   C17S10574   6.328  -0.020   9.158  0.2217 -0.2671 -0.1827
  104OSM   H17S10575   6.360  -0.125   9.173  0.4326 -0.2165 -0.2765
  104OSM   H17T10576   6.418   0.035   9.123 -0.9329  1.4328 -0.5602
  104OSM   C18S10577   6.211  -0.023   9.070 -0.4964  0.0009 -0.2316
  104OSM   H18S10578   6.148  -0.111   9.094 -1.8075  0.8192 -0.6292
  104OSM   H18T10579   6.252  -0.006   8.969  2.9886 -0.6972  0.9857
  104OSM   H18U10580   6.155   0.069   9.096 -0.2581  0.5940 -1.7557
  104OSM    C1F10581   5.553   0.544  10.297  1.2069 -0.0192 -0.0752
  104OSM     OF10582   5.549   0.634  10.389 -0.0355 -0.4318  0.4507
  104OSM    C2F10583   5.481   0.581  10.164  0.8641 -0.3775  0.3574
  104OSM    H2F10584   5.531   0.661  10.106  2.1470 -1.1224  0.4051
  104OSM    H2G10585   5.385   0.625  10.198  1.0468  1.1426 -1.0591
  104OSM    C3F10586   5.447   0.459  10.077 -0.8662 -0.0596 -0.5112
  104OSM    H3F10587   5.397   0.374  10.128  2.3979 -0.7172  1.8049
  104OSM    H3G10588   5.542   0.415  10.041 -0.0761  2.6876 -1.9382
  104OSM    C4F10589   5.368   0.495   9.948 -0.0169  0.1000 -0.5766
  104OSM    H4F10590   5.267   0.524   9.984 -0.8661 -2.1701 -1.0397
  104OSM    H4G10591   5.359   0.400   9.891 -1.9451 -0.0418 -0.0630
  104OSM    C5F10592   5.420   0.604   9.859  0.1204 -0.5141 -0.5250
  104OSM    H5F10593   5.521   0.564   9.838  0.4670  0.3261 -0.4581
  104OSM    H5G10594   5.427   0.700   9.914  3.2155 -0.4327 -0.9669
  104OSM    C6F10595   5.343   0.615   9.728 -0.4900 -0.8480  0.3405
  104OSM    H6F10596   5.241   0.655   9.748  0.5822  2.2201  0.0394
  104OSM    H6G10597   5.329   0.514   9.685  1.8705 -1.3786  0.7811
  104OSM    C7F10598   5.425   0.696   9.619 -0.6872 -0.2153 -0.0161
  104OSM    H7F10599   5.517   0.638   9.600  0.6382  0.9010  2.6944
  104OSM    H7G10600   5.445   0.801   9.650 -0.0217 -0.4301  0.2848
  104OSM    C8F10601   5.351   0.705   9.483 -0.5740 -0.9209 -0.3156
  104OSM    H8F10602   5.252   0.754   9.499  0.6001  1.1841  0.6114
  104OSM    H8G10603   5.321   0.601   9.458 -1.3898 -0.5730 -0.7968
  104OSM    C9F10604   5.418   0.779   9.372 -0.1436  0.4743  0.0555
  104OSM    H9F10605   5.480   0.866   9.402  1.4775 -1.3985  2.3751
  104OSM   C10F10606   5.399   0.750   9.242 -1.1031 -0.3596 -0.0387
  104OSM   H10F10607   5.459   0.808   9.171 -1.2494  0.9177  0.8622
  104OSM   C11F10608   5.323   0.644   9.175 -0.5413  0.0037 -0.0882
  104OSM   H11F10609   5.243   0.702   9.123 -1.2914 -0.9792 -0.0573
  104OSM   H11G10610   5.275   0.577   9.250  0.9227 -1.1188 -0.1332
  104OSM   C12F10611   5.399   0.556   9.073 -0.4609 -0.0559 -0.3250
  104OSM   H12F10612   5.449   0.481   9.138 -0.5716 -0.2098 -0.4198
  104OSM   H12G10613   5.466   0.632   9.029 -2.5270  1.6643 -0.5827
  104OSM   C13F10614   5.302   0.498   8.970  0.5562 -0.3834  0.1084
  104OSM   H13F10615   5.233   0.584   8.954 -0.1456 -0.6846  1.4719
  104OSM   H13G10616   5.252   0.411   9.018  0.1895 -1.3157 -1.9085
  104OSM   C14F10617   5.371   0.451   8.840  0.6223 -0.7948  0.1058
  104OSM   H14F10618   5.455   0.384   8.869 -0.0288 -0.5333  2.6926
  104OSM   H14G10619   5.418   0.539   8.791 -3.0352  0.3305 -1.5409
  104OSM   C15F10620   5.273   0.386   8.746  0.1221 -0.2631  1.0464
  104OSM   H15F10621   5.176   0.441   8.744  0.7104  0.7454 -0.7663
  104OSM   H15G10622   5.246   0.284   8.781  0.3931 -0.4184  0.8060
  104OSM   C16F10623   5.336   0.370   8.609  0.1215 -0.0767 -0.2865
  104OSM   H16F10624   5.443   0.353   8.633 -0.1675  0.2162  1.2956
  104OSM   H16G10625   5.324   0.471   8.565 -0.6129  0.7207  1.6994
  104OSM   C17F10626   5.269   0.259   8.523  0.5798 -0.5729  0.1771
  104OSM   H17F10627   5.160   0.281   8.516  0.5334 -0.4060  1.3660
  104OSM   H17G10628   5.279   0.170   8.588 -0.2989 -1.1592 -0.4708
  104OSM   C18F10629   5.329   0.239   8.385  0.7405  0.0709 -0.0187
  104OSM   H18F10630   5.286   0.158   8.323  0.1758  0.8358 -0.6405
  104OSM   H18G10631   5.440   0.232   8.394  0.7021  2.2094  2.8551
  104OSM   H18H10632   5.299   0.320   8.315  0.7344 -2.6425 -3.2276
  105OSM      N10633   2.264   2.564  10.840  0.0192  0.1574  0.0537
  105OSM    C1510634   2.342   2.467  10.757  0.0144  0.4462 -0.2051
  105OSM   H15A10635   2.338   2.369  10.802 -1.2426  0.3458 -0.5209
  105OSM   H15B10636   2.445   2.490  10.732  0.1766 -2.7366 -2.7261
  105OSM   H15C10637   2.292   2.444  10.664 -0.7757 -0.9445  0.5489
  105OSM    C1410638   2.133   2.496  10.867 -0.2517 -0.2026 -1.1855
  105OSM   H14A10639   2.074   2.488  10.777 -1.7329  0.7123 -0.3049
  105OSM   H14B10640   2.074   2.553  10.937  1.3306 -0.3911  0.3409
  105OSM   H14C10641   2.151   2.397  10.904 -0.2394  1.4233  3.4613
  105OSM    C1310642   2.343   2.594  10.960 -0.1537 -0.4116 -0.2312
  105OSM   H13A10643   2.368   2.500  11.009  2.6192  0.3694 -0.0548
  105OSM   H13B10644   2.293   2.667  11.022  2.8267  0.7223  0.9532
  105OSM   H13C10645   2.431   2.648  10.929  2.2510 -3.1699  1.4809
  105OSM    C1210646   2.247   2.683  10.761  0.0171 -0.1737  0.0128
  105OSM   H12A10647   2.187   2.663  10.674 -2.1661 -1.5166  1.7683
  105OSM   H12B10648   2.344   2.721  10.733 -0.7677  1.2288 -0.8823
  105OSM    C1110649   2.176   2.810  10.816  0.3528 -0.3370  0.2662
  105OSM   H11A10650   2.087   2.784  10.878  1.8228  0.2109  2.6715
  105OSM   H11B10651   2.139   2.872  10.731  2.2879 -0.8224 -0.9586
  105OSM      P10652   2.398   2.945  10.857  0.1384  0.3046 -0.0639
  105OSM    O1310653   2.420   3.061  10.946  0.5261  0.1022 -0.0928
  105OSM    O1410654   2.514   2.847  10.854  0.9009 -0.5329  0.1699
  105OSM    O1110655   2.364   2.983  10.708 -0.4717  0.0547 -0.2471
  105OSM    O1210656   2.262   2.875  10.907 -0.1657 -0.4607 -0.3060
  105OSM    C1S10657   2.293   3.105  10.686 -0.2017  0.8377 -0.2687
  105OSM    H1S10658   2.353   3.195  10.711  2.1072  0.0237 -2.6764
  105OSM    H1T10659   2.201   3.098  10.747 -0.0757 -1.0133 -0.2422
  105OSM     NF10660   2.196   3.254  10.514  0.4796  0.6546  0.5135
  105OSM    HNF10661   2.102   3.246  10.483  0.9098 -0.6724 -0.4610
  105OSM    C2S10662   2.258   3.119  10.540  0.1841 -0.2353 -0.6068
  105OSM    H2S10663   2.354   3.123  10.485 -0.8255  2.2588 -2.2836
  105OSM    C3S10664   2.170   3.010  10.474 -0.6855 -0.3805 -0.6031
  105OSM    H3S10665   2.073   3.018  10.528  0.8500 -0.0723  2.2062
  105OSM     O310666   2.208   2.873  10.501 -0.1451  0.4754  0.6133
  105OSM    HO310667   2.286   2.883  10.557 -1.1572 -0.5792  2.2614
  105OSM    C4S10668   2.144   3.029  10.324  0.2418 -0.2977 -0.7154
  105OSM    H4S10669   2.069   3.105  10.295 -0.1254  0.7141  2.6781
  105OSM    C5S10670   2.202   2.963  10.225  1.0334  0.2243 -0.2951
  105OSM    H5S10671   2.281   2.889  10.240  0.3805 -0.1280  1.5217
  105OSM    C6S10672   2.155   2.986  10.080 -0.5937  0.3715  0.5329
  105OSM    H6S10673   2.069   3.052  10.055 -0.4210  0.1744 -0.6169
  105OSM    H6T10674   2.112   2.892  10.039  1.3983  0.5206 -2.0890
  105OSM    C7S10675   2.278   3.016   9.985  0.2746 -0.4721 -0.1055
  105OSM    H7S10676   2.368   2.951   9.989 -0.3074 -1.5872 -3.4433
  105OSM    H7T10677   2.307   3.120  10.012 -2.5693  0.8971 -2.0736
  105OSM    C8S10678   2.240   3.026   9.839  0.5047 -0.3366 -0.0228
  105OSM    H8S10679   2.149   3.089   9.826  0.5556 -0.4826 -1.0971
  105OSM    H8T10680   2.210   2.924   9.805 -1.5238  0.6850 -1.4087
  105OSM    C9S10681   2.356   3.066   9.743 -0.1122  0.8488 -0.0933
  105OSM    H9S10682   2.446   3.005   9.768 -0.9503 -1.0120 -1.4682
  105OSM    H9T10683   2.391   3.169   9.765  0.5001  0.9294 -1.3775
  105OSM   C10S10684   2.318   3.055   9.593  0.2000 -0.1744 -0.1437
  105OSM   H10S10685   2.263   3.149   9.571 -2.3088 -1.2495  1.3325
  105OSM   H10T10686   2.237   2.980   9.580  0.3858 -0.7620  1.8601
  105OSM   C11S10687   2.428   3.018   9.492 -0.6553  0.1263  0.0279
  105OSM   H11S10688   2.476   2.924   9.526 -0.8134  0.3548  0.8931
  105OSM   H11T10689   2.510   3.092   9.481  0.2050 -0.8492 -0.2171
  105OSM   C12S10690   2.368   2.992   9.355 -0.3890  0.6057  0.7098
  105OSM   H12S10691   2.309   3.079   9.317 -0.7232 -0.0547 -0.2903
  105OSM   H12T10692   2.305   2.901   9.364 -0.4876  0.3545 -2.0499
  105OSM   C13S10693   2.473   2.944   9.251 -0.3510  0.5373 -0.4261
  105OSM   H13S10694   2.424   2.901   9.161 -2.3457  2.5677 -0.3668
  105OSM   H13T10695   2.536   2.863   9.293 -1.4655  0.3593  0.9290
  105OSM   C14S10696   2.576   3.055   9.199  0.0421 -0.0153 -0.2489
  105OSM   H14S10697   2.655   3.000   9.144  1.1753  2.4756 -1.1847
  105OSM   H14T10698   2.637   3.096   9.282 -0.5166  0.8430 -0.2538
  105OSM   C15S10699   2.514   3.150   9.104  0.5781 -0.2628  0.7181
  105OSM   H15S10700   2.595   3.214   9.063  1.1437 -1.8458 -0.6720
  105OSM   H15T10701   2.445   3.224   9.151 -0.6693 -0.7685 -0.2918
  105OSM   C16S10702   2.455   3.102   8.971 -0.3456  0.8435 -0.0351
  105OSM   H16S10703   2.361   3.052   9.004  0.2601 -1.9130 -2.3000
  105OSM   H16T10704   2.534   3.035   8.932 -0.2641  0.2894  1.0810
  105OSM   C17S10705   2.426   3.214   8.866 -0.3175 -0.0988 -0.5639
  105OSM   H17S10706   2.524   3.248   8.826  0.2468  0.6537  1.3821
  105OSM   H17T10707   2.372   3.299   8.915  0.6863 -0.0502  0.4634
  105OSM   C18S10708   2.335   3.167   8.756 -0.4749  0.2336  0.3996
  105OSM   H18S10709   2.385   3.090   8.695  0.5856 -0.3080  1.9088
  105OSM   H18T10710   2.313   3.253   8.689  1.1998  0.7937  0.5287
  105OSM   H18U10711   2.237   3.150   8.805 -1.1139 -0.8380 -1.2103
  105OSM    C1F10712   2.258   3.368  10.500  0.3161 -0.2701 -0.4033
  105OSM     OF10713   2.380   3.368  10.522  0.4856 -0.2139  0.2733
  105OSM    C2F10714   2.179   3.501  10.472  0.2357  0.0102  0.1129
  105OSM    H2F10715   2.217   3.577  10.543 -0.0669  1.9071 -1.7186
  105OSM    H2G10716   2.069   3.489  10.489  0.3517 -0.8273  0.3090
  105OSM    C3F10717   2.200   3.549  10.324  0.2852 -0.4449 -0.0786
  105OSM    H3F10718   2.309   3.567  10.309  0.5818 -1.2000  1.0617
  105OSM    H3G10719   2.155   3.648  10.302  0.1720 -0.4130  0.3078
  105OSM    C4F10720   2.157   3.440  10.220  0.1100  0.1824  0.2866
  105OSM    H4F10721   2.075   3.374  10.255 -0.7335  2.3314  2.5608
  105OSM    H4G10722   2.249   3.379  10.203  0.9317  0.5894  2.9658
  105OSM    C5F10723   2.118   3.497  10.086  0.1350 -0.6005  0.3244
  105OSM    H5F10724   2.190   3.576  10.053 -3.3881  3.4765  1.9763
  105OSM    H5G10725   2.021   3.550  10.094  0.4879 -0.0092  0.7481
  105OSM    C6F10726   2.099   3.396   9.974 -0.2311 -0.0261 -0.2642
  105OSM    H6F10727   2.012   3.333  10.004  0.1430  0.1472  1.2175
  105OSM    H6G10728   2.183   3.328   9.951  1.4583  1.3621  1.6622
  105OSM    C7F10729   2.075   3.471   9.839 -0.0865  0.3158 -0.1104
  105OSM    H7F10730   2.148   3.554   9.834 -0.3561  0.5487 -0.2011
  105OSM    H7G10731   1.970   3.508   9.850 -0.6231 -1.1898 -0.0255
  105OSM    C8F10732   2.075   3.384   9.708 -0.2234  0.4997  0.3059
  105OSM    H8F10733   1.998   3.305   9.722 -0.0339  0.3803  0.7002
  105OSM    H8G10734   2.171   3.327   9.710 -0.5266 -0.0481 -0.6260
  105OSM    C9F10735   2.059   3.472   9.584  0.7498  0.2941 -0.8294
  105OSM    H9F10736   2.067   3.579   9.609 -2.2376  0.4531 -0.3836
  105OSM   C10F10737   2.044   3.425   9.463 -0.5683 -0.0617  0.2823
  105OSM   H10F10738   2.027   3.493   9.378 -0.3802 -1.8694 -1.2246
  105OSM   C11F10739   2.019   3.280   9.429 -0.1886 -0.6869  0.3665
  105OSM   H11F10740   1.922   3.243   9.468 -1.3452 -1.0196 -2.6632
  105OSM   H11G10741   2.093   3.214   9.479  0.8546  0.9532  1.0556
  105OSM   C12F10742   2.020   3.256   9.283  0.0262  0.4003  0.6550
  105OSM   H12F10743   2.123   3.272   9.245 -0.3853  2.8133  0.4853
  105OSM   H12G10744   1.967   3.339   9.232  2.2734  1.1393 -0.5751
  105OSM   C13F10745   1.959   3.121   9.238 -0.7709  0.4150 -0.8188
  105OSM   H13F10746   1.850   3.136   9.252 -0.6911 -0.4301  0.8782
  105OSM   H13G10747   1.988   3.035   9.302  1.6074  0.3977 -1.8624
  105OSM   C14F10748   1.982   3.088   9.093 -0.0722 -0.6324 -0.0899
  105OSM   H14F10749   1.979   3.186   9.040 -0.2798 -0.5137  0.1382
  105OSM   H14G10750   1.899   3.022   9.059  0.9995 -2.2517  0.3645
  105OSM   C15F10751   2.105   3.003   9.065  0.0812 -0.1007  0.2620
  105OSM   H15F10752   2.190   3.055   9.114  1.1698 -0.8140 -0.8343
  105OSM   H15G10753   2.114   3.007   8.954 -0.5636  1.3600  0.2505
  105OSM   C16F10754   2.111   2.848   9.092 -0.1020 -0.5062  0.0059
  105OSM   H16F10755   2.025   2.837   9.161  0.2906 -0.9325  0.4278
  105OSM   H16G10756   2.203   2.843   9.153  0.0880  0.7798 -0.1742
  105OSM   C17F10757   2.125   2.752   8.967  0.3717  0.1982  0.3152
  105OSM   H17F10758   2.043   2.767   8.894  1.3351  1.9803 -0.4416
  105OSM   H17G10759   2.109   2.646   8.997 -1.4570 -0.1288 -1.6856
  105OSM   C18F10760   2.264   2.756   8.894  1.1693  0.4644 -0.0604
  105OSM   H18F10761   2.294   2.856   8.855 -0.4054  0.6504 -0.8622
  105OSM   H18G10762   2.265   2.678   8.814  1.1236  1.2436 -0.8354
  105OSM   H18H10763   2.334   2.725   8.974  1.2790  2.6950  0.7481
  106OSM      N10764   1.831   3.423  11.028 -0.3706  0.2098  0.8601
  106OSM    C1510765   1.703   3.351  11.036  0.0213 -0.7383  0.4535
  106OSM   H15A10766   1.660   3.363  11.134 -1.9198  2.7006 -0.7532
  106OSM   H15B10767   1.714   3.247  11.007 -3.0734 -0.7808 -0.7775
  106OSM   H15C10768   1.632   3.396  10.968  1.8857  1.4592 -0.0884
  106OSM    C1410769   1.807   3.564  11.063 -0.1389 -0.3583  0.0838
  106OSM   H14A10770   1.734   3.596  10.990  1.4311  2.1905 -0.4489
  106OSM   H14B10771   1.891   3.630  11.080  0.9497 -1.7091  0.0636
  106OSM   H14C10772   1.765   3.581  11.161  2.1246  1.0734  0.8395
  106OSM    C1310773   1.930   3.372  11.127 -0.6596 -0.1941 -0.6367
  106OSM   H13A10774   1.954   3.269  11.104  0.1108 -0.1616 -0.0023
  106OSM   H13B10775   1.876   3.365  11.220 -2.5891 -1.9671 -1.8489
  106OSM   H13C10776   2.023   3.426  11.135 -0.3977 -1.0032  2.2963
  106OSM    C1210777   1.889   3.408  10.884  0.3817  0.0620  0.4333
  106OSM   H12A10778   1.953   3.492  10.862  0.6772 -0.9017 -2.6976
  106OSM   H12B10779   1.803   3.423  10.820 -0.0928  0.3564  1.1311
  106OSM    C1110780   1.964   3.276  10.832 -0.0842 -0.1687  0.5738
  106OSM   H11A10781   2.056   3.273  10.894  1.1310  0.2733 -1.1724
  106OSM   H11B10782   2.002   3.271  10.728 -0.4311  1.1127  0.3795
  106OSM      P10783   1.788   3.087  10.806 -0.1668  0.0897  0.4119
  106OSM    O1310784   1.811   2.947  10.841  0.4917  0.1651  0.4145
  106OSM    O1410785   1.656   3.145  10.831  0.4357 -0.0355 -0.6776
  106OSM    O1110786   1.817   3.100  10.655 -0.5937 -0.2072 -0.2709
  106OSM    O1210787   1.905   3.158  10.880 -0.5269 -0.1871 -0.8570
  106OSM    C1S10788   1.756   3.015  10.552 -0.6958  0.2535 -0.2315
  106OSM    H1S10789   1.675   2.954  10.597 -0.2103  1.7617  2.8819
  106OSM    H1T10790   1.833   2.948  10.508  0.0689  0.2293  1.1072
  106OSM     NF10791   1.635   3.027  10.336  0.3984 -0.3085 -0.0474
  106OSM    HNF10792   1.687   3.006  10.255 -1.3168 -0.1832 -1.2073
  106OSM    C2S10793   1.700   3.107  10.434 -0.2652 -0.4519  1.2182
  106OSM    H2S10794   1.629   3.181  10.476 -1.0423  0.3041 -1.3390
  106OSM    C3S10795   1.816   3.192  10.366  0.1300 -0.4376  0.3779
  106OSM    H3S10796   1.881   3.137  10.295 -3.0085 -0.3036 -2.7256
  106OSM     O310797   1.896   3.254  10.459 -0.5125 -0.3099 -0.2901
  106OSM    HO310798   1.884   3.213  10.545 -0.5761 -1.2125 -0.7315
  106OSM    C4S10799   1.750   3.303  10.285 -0.4751 -0.6655 -0.4576
  106OSM    H4S10800   1.746   3.282  10.177 -2.9253  1.9383 -0.9241
  106OSM    C5S10801   1.695   3.418  10.325 -0.3319  1.0688 -0.3503
  106OSM    H5S10802   1.683   3.436  10.433 -0.3224  1.2774 -0.3839
  106OSM    C6S10803   1.644   3.526  10.230  0.1206 -0.0365  1.0666
  106OSM    H6S10804   1.650   3.623  10.283 -3.0943  1.3937 -1.0162
  106OSM    H6T10805   1.533   3.525  10.224  0.2466  0.4486 -2.6731
  106OSM    C7S10806   1.703   3.527  10.089 -1.0497 -0.7414  0.1877
  106OSM    H7S10807   1.809   3.496  10.102 -2.0289 -3.5303  2.0861
  106OSM    H7T10808   1.708   3.631  10.049 -0.1465 -0.0722  1.9718
  106OSM    C8S10809   1.610   3.454   9.991  0.4101 -0.0144  0.4770
  106OSM    H8S10810   1.519   3.513   9.967  0.8140  0.9232  1.2276
  106OSM    H8T10811   1.567   3.363  10.037 -1.0184 -0.8948 -2.4723
  106OSM    C9S10812   1.677   3.402   9.863  0.3359  0.0963  0.6076
  106OSM    H9S10813   1.764   3.333   9.868  0.4266  0.2080  0.5586
  106OSM    H9T10814   1.715   3.491   9.809  0.2495  0.5387  1.2703
  106OSM   C10S10815   1.574   3.337   9.757 -0.4253 -0.5366 -0.0973
  106OSM   H10S10816   1.497   3.413   9.729  0.9662  1.4193  1.2376
  106OSM   H10T10817   1.526   3.256   9.815  0.6382 -0.3573  1.0283
  106OSM   C11S10818   1.640   3.297   9.619 -0.4101  0.6037  0.1154
  106OSM   H11S10819   1.708   3.212   9.640 -0.3779  1.1622  2.3897
  106OSM   H11T10820   1.706   3.381   9.586  0.2347 -0.3647 -1.0840
  106OSM   C12S10821   1.537   3.242   9.523 -0.3875 -0.4912 -0.1520
  106OSM   H12S10822   1.452   3.312   9.511  0.3915  0.5526  0.3070
  106OSM   H12T10823   1.493   3.150   9.565  1.8568 -0.7505  1.7657
  106OSM   C13S10824   1.610   3.220   9.386  0.4395  0.0381 -0.1548
  106OSM   H13S10825   1.690   3.150   9.418 -0.7312 -1.2169  0.0716
  106OSM   H13T10826   1.664   3.312   9.355  0.4407  0.8538  2.1212
  106OSM   C14S10827   1.516   3.166   9.280  0.2500  0.5894 -0.2363
  106OSM   H14S10828   1.477   3.262   9.239  0.3716  1.1701  0.9981
  106OSM   H14T10829   1.432   3.115   9.332  1.9546 -1.5759  0.4443
  106OSM   C15S10830   1.583   3.085   9.164  0.1635  0.0113 -0.1368
  106OSM   H15S10831   1.632   3.002   9.218  0.4480  0.6299  0.5518
  106OSM   H15T10832   1.657   3.149   9.112 -1.7939  2.8090  0.3522
  106OSM   C16S10833   1.484   3.024   9.066  0.3254 -0.0009  0.4355
  106OSM   H16S10834   1.440   3.092   8.990  0.0575 -1.7192 -0.9617
  106OSM   H16T10835   1.400   2.985   9.126  1.3295 -1.1822  1.1018
  106OSM   C17S10836   1.543   2.910   8.981  0.7298 -0.0044  0.4435
  106OSM   H17S10837   1.598   2.847   9.053 -0.1487 -0.2872  0.8767
  106OSM   H17T10838   1.607   2.973   8.916  0.9406  1.2654  1.8600
  106OSM   C18S10839   1.447   2.840   8.888  0.9294 -0.5128 -0.0568
  106OSM   H18S10840   1.373   2.799   8.960  1.4188  1.6223  1.6976
  106OSM   H18T10841   1.500   2.763   8.828  3.1471  0.6423  0.3750
  106OSM   H18U10842   1.389   2.907   8.821 -2.6418 -2.0704  1.3606
  106OSM    C1F10843   1.515   2.976  10.342  0.0179  0.3672 -0.5362
  106OSM     OF10844   1.439   3.013  10.431 -0.2526 -0.2003 -0.2642
  106OSM    C2F10845   1.477   2.869  10.241  0.5584  0.0705  0.0286
  106OSM    H2F10846   1.408   2.800  10.294 -0.6886  0.7069 -0.7290
  106OSM    H2G10847   1.572   2.821  10.207  0.1338  0.4864 -1.8091
  106OSM    C3F10848   1.409   2.942  10.127 -0.1321  0.0957 -0.0450
  106OSM    H3F10849   1.484   2.999  10.067 -0.1396 -0.6289 -0.7514
  106OSM    H3G10850   1.343   3.021  10.168  0.3206  1.6053 -2.0907
  106OSM    C4F10851   1.345   2.841  10.033 -0.9151  0.1140  1.3339
  106OSM    H4F10852   1.251   2.787  10.057  0.1528 -1.3172  2.3262
  106OSM    H4G10853   1.428   2.768  10.024 -0.3589  0.7662  1.1270
  106OSM    C5F10854   1.313   2.893   9.888 -0.2514 -0.0326  0.2389
  106OSM    H5F10855   1.389   2.963   9.849  1.2699 -1.2268  1.0200
  106OSM    H5G10856   1.213   2.943   9.892 -0.8632 -1.2153  0.0552
  106OSM    C6F10857   1.291   2.771   9.795 -0.0883 -0.2800  0.5509
  106OSM    H6F10858   1.213   2.695   9.819  1.6046 -2.2104  0.0381
  106OSM    H6G10859   1.383   2.711   9.812  1.0503  1.2580 -0.1387
  106OSM    C7F10860   1.282   2.812   9.647 -0.2570 -0.1732  0.5458
  106OSM    H7F10861   1.350   2.896   9.619 -1.3004  1.0481  1.6235
  106OSM    H7G10862   1.182   2.859   9.642  0.2114  0.9502  1.6276
  106OSM    C8F10863   1.318   2.698   9.559 -0.4828 -0.3794  0.0941
  106OSM    H8F10864   1.396   2.635   9.605  1.6124  2.1704  0.1315
  106OSM    H8G10865   1.365   2.745   9.470  1.6140 -0.9957  0.8543
  106OSM    C9F10866   1.190   2.621   9.537  0.0252  0.3112  0.2093
  106OSM    H9F10867   1.153   2.552   9.614 -1.2924  1.6940  0.8455
  106OSM   C10F10868   1.129   2.620   9.415 -0.3312 -0.3669 -0.1186
  106OSM   H10F10869   1.040   2.555   9.408  0.0077 -0.6577 -1.9281
  106OSM   C11F10870   1.169   2.690   9.290 -0.4594 -0.4190  0.2589
  106OSM   H11F10871   1.257   2.757   9.295  0.7525 -1.9756  0.2424
  106OSM   H11G10872   1.088   2.763   9.268 -0.1653  0.0335  0.6837
  106OSM   C12F10873   1.178   2.601   9.162  0.5943  0.4385 -0.3655
  106OSM   H12F10874   1.221   2.502   9.189 -2.8915 -0.6136  1.7166
  106OSM   H12G10875   1.245   2.656   9.093  0.8660  0.2725 -0.2352
  106OSM   C13F10876   1.045   2.577   9.094 -0.7917 -0.4406 -1.1190
  106OSM   H13F10877   1.004   2.671   9.053  0.4673  0.6245  0.0266
  106OSM   H13G10878   0.982   2.542   9.179  1.6845  0.4940  1.1658
  106OSM   C14F10879   1.047   2.472   8.987 -0.6118 -0.2769  0.1447
  106OSM   H14F10880   1.097   2.381   9.026  0.3535 -0.6035 -1.7682
  106OSM   H14G10881   1.124   2.502   8.913 -0.8063 -1.2271 -0.4465
  106OSM   C15F10882   0.915   2.430   8.929 -0.2744 -0.3860 -0.0663
  106OSM   H15F10883   0.840   2.396   9.004 -0.5252  0.8454  0.2469
  106OSM   H15G10884   0.934   2.339   8.868  0.0065 -1.3073  1.3747
  106OSM   C16F10885   0.853   2.529   8.827  0.6386  0.6333  0.8498
  106OSM   H16F10886   0.933   2.571   8.761 -1.4679  0.7618 -1.6775
  106OSM   H16G10887   0.814   2.619   8.881  1.3990  0.4149  1.7807
  106OSM   C17F10888   0.744   2.459   8.739 -0.3051  0.7567 -0.7033
  106OSM   H17F10889   0.661   2.438   8.809 -0.1277  0.8398 -0.4654
  106OSM   H17G10890   0.776   2.360   8.701 -1.2611  0.1026  0.2003
  106OSM   C18F10891   0.705   2.547   8.623 -0.1792  0.2696  0.3114
  106OSM   H18F10892   0.791   2.568   8.556 -0.0864 -1.4798 -0.1166
  106OSM   H18G10893   0.667   2.644   8.663 -1.2352  0.1585 -0.3989
  106OSM   H18H10894   0.629   2.504   8.555 -0.7642  0.5240  0.7858
  107OSM      N10895   4.608   0.757  11.093  0.3280  0.0671 -0.1670
  107OSM    C1510896   4.557   0.617  11.107 -0.3256 -0.4794 -0.5815
  107OSM   H15A10897   4.628   0.556  11.161 -1.5162  0.6424  2.3742
  107OSM   H15B10898   4.537   0.569  11.013  0.6234 -1.7019 -0.1599
  107OSM   H15C10899   4.473   0.602  11.173  1.3021  2.2544  2.2543
  107OSM    C1410900   4.670   0.789  11.223  0.5998 -0.8063 -0.1537
  107OSM   H14A10901   4.763   0.733  11.232  0.9885 -0.2933 -0.9035
  107OSM   H14B10902   4.602   0.760  11.301  0.5573  0.8609  0.4440
  107OSM   H14C10903   4.696   0.894  11.221  3.7618 -1.5205 -0.5029
  107OSM    C1310904   4.718   0.757  10.983  0.5224  0.2460 -1.0619
  107OSM   H13A10905   4.796   0.690  11.017  0.5286  0.5791 -0.3989
  107OSM   H13B10906   4.744   0.861  10.967  2.6455 -0.2169 -0.7500
  107OSM   H13C10907   4.677   0.721  10.890  3.0889 -3.0669 -1.0022
  107OSM    C1210908   4.500   0.858  11.055 -0.3331  0.0734  0.1767
  107OSM   H12A10909   4.475   0.816  10.959  1.5122  1.4067 -0.9259
  107OSM   H12B10910   4.530   0.961  11.042  1.7388 -0.3594  1.3098
  107OSM    C1110911   4.375   0.849  11.149  0.3166 -0.3625 -0.9033
  107OSM   H11A10912   4.326   0.946  11.124 -0.3893 -0.7717 -1.1093
  107OSM   H11B10913   4.399   0.840  11.257  1.1075 -0.0647 -1.0492
  107OSM      P10914   4.210   0.728  10.995  0.1256  0.5197 -0.1214
  107OSM    O1310915   4.183   0.582  10.963  0.1510 -0.3154  0.2407
  107OSM    O1410916   4.093   0.817  11.019  0.2230 -0.0241 -0.2218
  107OSM    O1110917   4.296   0.785  10.884  0.2013  0.0587  0.0886
  107OSM    O1210918   4.296   0.743  11.119 -0.3270  0.5957 -0.9425
  107OSM    C1S10919   4.348   0.718  10.770  0.0881  0.0662  0.4287
  107OSM    H1S10920   4.328   0.608  10.773 -0.5973  0.1317 -1.0121
  107OSM    H1T10921   4.458   0.733  10.763  0.0510  0.5172  0.8373
  107OSM     NF10922   4.330   0.682  10.524 -0.3040 -0.2090  0.2252
  107OSM    HNF10923   4.411   0.711  10.473  0.3980 -1.8651  0.3790
  107OSM    C2S10924   4.281   0.770  10.630 -0.5103 -0.4891 -0.1882
  107OSM    H2S10925   4.173   0.763  10.652 -0.4084 -1.5250  0.0184
  107OSM    C3S10926   4.318   0.920  10.605  0.8199  0.0275 -0.8171
  107OSM    H3S10927   4.423   0.929  10.568  1.4955  0.7251  1.1999
  107OSM     O310928   4.305   0.991  10.729  0.4411 -0.6475 -0.2847
  107OSM    HO310929   4.316   0.912  10.784  1.1494 -1.6395 -1.7924
  107OSM    C4S10930   4.238   0.981  10.491  0.4104  0.2733 -0.4004
  107OSM    H4S10931   4.294   0.958  10.399  1.3301 -1.6925  0.6008
  107OSM    C5S10932   4.127   1.050  10.481 -0.3587 -0.4478  0.3629
  107OSM    H5S10933   4.065   1.053  10.571  2.3871  3.2751  2.2376
  107OSM    C6S10934   4.051   1.104  10.362 -0.2439  0.1626 -0.1442
  107OSM    H6S10935   4.044   1.214  10.375 -0.8369  0.1759 -0.5248
  107OSM    H6T10936   3.948   1.063  10.368 -0.2506  0.1976 -0.0191
  107OSM    C7S10937   4.117   1.080  10.226 -1.2016  0.3417 -0.0619
  107OSM    H7S10938   4.136   0.972  10.209  0.7814  0.8912 -1.5419
  107OSM    H7T10939   4.214   1.135  10.225 -1.9710  1.7898  1.5696
  107OSM    C8S10940   4.007   1.125  10.124  0.1875 -0.1311 -0.6893
  107OSM    H8S10941   3.956   1.219  10.154 -0.8817 -0.7764 -0.4653
  107OSM    H8T10942   3.922   1.053  10.121  0.0251  0.1088 -3.5130
  107OSM    C9S10943   4.068   1.112   9.980 -0.2450  0.3348 -0.0416
  107OSM    H9S10944   4.104   1.007   9.973 -0.2838  0.4146 -1.6951
  107OSM    H9T10945   4.153   1.182   9.971  1.0350 -1.3451 -1.3623
  107OSM   C10S10946   3.968   1.137   9.867  0.3600  0.2962 -0.0159
  107OSM   H10S10947   3.934   1.243   9.880  0.7360  0.7436 -2.4983
  107OSM   H10T10948   3.878   1.073   9.880 -0.0862  1.0396  0.6178
  107OSM   C11S10949   4.016   1.122   9.731  0.0570  0.3238 -0.0032
  107OSM   H11S10950   4.065   1.022   9.729  0.0474  0.3309 -0.7187
  107OSM   H11T10951   4.095   1.192   9.698  0.3119 -0.9266 -2.1557
  107OSM   C12S10952   3.910   1.146   9.622 -0.2829 -0.6864  0.5983
  107OSM   H12S10953   3.885   1.253   9.634 -0.1083 -0.2002 -2.7490
  107OSM   H12T10954   3.820   1.080   9.627 -0.6282 -0.2448  0.3342
  107OSM   C13S10955   3.963   1.117   9.479  0.3257  0.0278 -0.2026
  107OSM   H13S10956   3.997   1.015   9.453  0.9191  1.0652 -3.9072
  107OSM   H13T10957   4.052   1.182   9.465 -0.8479  1.4801 -1.1367
  107OSM   C14S10958   3.867   1.157   9.370 -0.5791 -0.1747  0.0030
  107OSM   H14S10959   3.843   1.264   9.387 -0.0287  0.0493 -0.5913
  107OSM   H14T10960   3.775   1.096   9.381  0.6970 -2.0695  0.3435
  107OSM   C15S10961   3.932   1.137   9.232  0.0293  0.6683 -0.6229
  107OSM   H15S10962   3.997   1.227   9.223  1.9943 -0.8160 -1.6960
  107OSM   H15T10963   3.860   1.162   9.151 -1.7300  0.1633  0.7419
  107OSM   C16S10964   3.992   0.995   9.203 -0.6526 -0.3797  0.6679
  107OSM   H16S10965   3.960   0.914   9.272 -2.4977  0.5818  0.9765
  107OSM   H16T10966   4.099   1.007   9.231 -0.2745 -3.3845  0.6932
  107OSM   C17S10967   3.982   0.948   9.056  0.2203 -0.0021 -1.1217
  107OSM   H17S10968   3.875   0.958   9.028  0.4676  0.3730 -1.9484
  107OSM   H17T10969   4.006   0.840   9.047  2.6799  0.1728  2.3948
  107OSM   C18S10970   4.063   1.043   8.966 -0.6776 -0.1797 -0.1051
  107OSM   H18S10971   4.047   1.152   8.983  0.4618 -0.2101  1.2833
  107OSM   H18T10972   4.035   1.023   8.860 -0.8498  1.4425 -0.3866
  107OSM   H18U10973   4.171   1.017   8.966 -1.2574 -2.7543 -1.4021
  107OSM    C1F10974   4.298   0.559  10.517  0.0050  0.1581 -0.3499
  107OSM     OF10975   4.205   0.506  10.574  0.4828  0.4301 -0.1580
  107OSM    C2F10976   4.381   0.466  10.429  0.1449  0.1494 -0.0811
  107OSM    H2F10977   4.471   0.433  10.484  1.0156  1.3697 -0.7686
  107OSM    H2G10978   4.405   0.516  10.333 -0.6558 -0.5199 -0.6424
  107OSM    C3F10979   4.298   0.336  10.397 -0.2921 -0.1832 -0.3448
  107OSM    H3F10980   4.202   0.367  10.351  0.2135 -0.3480 -1.5314
  107OSM    H3G10981   4.287   0.281  10.493  0.5134 -1.1080 -0.7770
  107OSM    C4F10982   4.382   0.244  10.302 -0.0957 -0.4037 -0.3480
  107OSM    H4F10983   4.334   0.145  10.286  1.2570 -0.8545 -1.7901
  107OSM    H4G10984   4.483   0.227  10.345  0.2761  0.3953 -0.9056
  107OSM    C5F10985   4.410   0.307  10.166  0.1594 -0.2333 -0.1359
  107OSM    H5F10986   4.484   0.388  10.183  0.1066 -0.1997 -0.0650
  107OSM    H5G10987   4.318   0.352  10.121 -0.7053  0.0439  1.8608
  107OSM    C6F10988   4.473   0.208  10.064 -0.5808  0.5202  0.2120
  107OSM    H6F10989   4.395   0.140  10.024 -1.4903  1.1897  0.8291
  107OSM    H6G10990   4.559   0.149  10.102  0.2305  1.7742  0.3426
  107OSM    C7F10991   4.535   0.290   9.948  0.6850 -0.2831 -0.2207
  107OSM    H7F10992   4.611   0.360   9.989 -0.1589  2.2762 -2.8222
  107OSM    H7G10993   4.461   0.353   9.893  0.0809 -0.5755  0.2618
  107OSM    C8F10994   4.605   0.196   9.842 -0.1674  0.3298 -0.2158
  107OSM    H8F10995   4.675   0.130   9.897  0.6154  0.2676 -1.2666
  107OSM    H8G10996   4.675   0.263   9.788 -1.0271  2.4116  1.1747
  107OSM    C9F10997   4.513   0.139   9.735  0.3411 -0.1409 -0.1274
  107OSM    H9F10998   4.429   0.203   9.704  0.9868  0.0670 -1.4461
  107OSM   C10F10999   4.527   0.020   9.678  0.3025  0.3152 -0.2537
  107OSM   H10F11000   4.452  -0.004   9.601 -0.6429  0.6450  0.5643
  107OSM   C11F11001   4.636  -0.081   9.690  0.6565 -0.4705  0.1383
  107OSM   H11F11002   4.584  -0.177   9.710 -0.8811  0.0655 -1.2294
  107OSM   H11G11003   4.694  -0.063   9.784  0.3123 -0.1404  0.2908
  107OSM   C12F11004   4.725  -0.066   9.563  0.4999 -0.0598  0.1056
  107OSM   H12F11005   4.818  -0.119   9.594  0.6927  0.2640  0.0932
  107OSM   H12G11006   4.749   0.037   9.527  0.8222 -0.6983 -1.5412
  107OSM   C13F11007   4.674  -0.146   9.439 -0.3468 -0.3586 -0.0471
  107OSM   H13F11008   4.598  -0.079   9.391  0.6780  0.2556 -0.8465
  107OSM   H13G11009   4.623  -0.242   9.459 -1.2378  0.0324 -0.4071
  107OSM   C14F11010   4.787  -0.174   9.338 -0.0758  0.5976 -0.0494
  107OSM   H14F11011   4.879  -0.217   9.383 -0.1264 -0.9872 -1.4293
  107OSM   H14G11012   4.817  -0.074   9.299 -0.4386  0.5522 -0.4459
  107OSM   C15F11013   4.737  -0.253   9.224 -0.6993  0.1020 -0.5108
  107OSM   H15F11014   4.658  -0.189   9.180 -0.4375  1.1180  0.4793
  107OSM   H15G11015   4.706  -0.358   9.246  0.5844  0.0271  1.0067
  107OSM   C16F11016   4.847  -0.274   9.115 -0.5135  0.3943 -0.0081
  107OSM   H16F11017   4.925  -0.346   9.147 -0.8876 -0.3534 -0.7607
  107OSM   H16G11018   4.888  -0.173   9.095 -1.1349  0.5687 -0.4281
  107OSM   C17F11019   4.785  -0.332   8.988  0.1316  0.3728  0.3949
  107OSM   H17F11020   4.723  -0.423   9.003 -0.4108  0.0402 -3.3017
  107OSM   H17G11021   4.873  -0.353   8.924  1.2569  2.5832  1.1990
  107OSM   C18F11022   4.687  -0.234   8.908 -0.3305  0.8156  0.0297
  107OSM   H18F11023   4.715  -0.129   8.933  1.1632  0.3916  0.1818
  107OSM   H18G11024   4.580  -0.252   8.931  0.0855  1.0447  2.3424
  107OSM   H18H11025   4.708  -0.248   8.800  2.1341  0.6627  0.4845
  108OSM      N11026   1.279   2.650  10.671  0.4308  0.6004  0.0889
  108OSM    C1511027   1.161   2.725  10.713 -0.2373  0.3144 -0.0144
  108OSM   H15A11028   1.153   2.824  10.672 -3.0017  0.6857  1.3410
  108OSM   H15B11029   1.140   2.736  10.818  0.1182 -1.9500  0.3359
  108OSM   H15C11030   1.072   2.678  10.674 -0.7683  1.4100 -0.1184
  108OSM    C1411031   1.290   2.677  10.523  0.3842 -0.4169  0.5726
  108OSM   H14A11032   1.198   2.642  10.479  1.0468  1.3405 -2.3179
  108OSM   H14B11033   1.372   2.618  10.484  0.6776 -0.3154  1.0209
  108OSM   H14C11034   1.311   2.782  10.507 -0.5767 -0.1067  1.2785
  108OSM    C1311035   1.396   2.718  10.742  0.5703  0.0070 -1.0234
  108OSM   H13A11036   1.486   2.658  10.743  0.0063 -0.8438 -0.2424
  108OSM   H13B11037   1.365   2.734  10.844 -1.4206 -0.1661 -1.5700
  108OSM   H13C11038   1.413   2.812  10.693  0.5029  1.0962  1.0086
  108OSM    C1211039   1.264   2.504  10.705  0.3192 -0.0827 -0.3233
  108OSM   H12A11040   1.229   2.495  10.807 -0.6599 -0.8336 -0.7248
  108OSM   H12B11041   1.361   2.456  10.710  1.4152  1.8977 -1.9164
  108OSM    C1111042   1.173   2.422  10.611  0.5147  0.3724  0.7436
  108OSM   H11A11043   1.188   2.313  10.623 -0.9549  0.2230  1.3961
  108OSM   H11B11044   1.214   2.429  10.508 -2.2474  3.0404 -0.2525
  108OSM      P11045   0.929   2.418  10.720 -0.0433  0.4307  0.0194
  108OSM    O1311046   0.991   2.450  10.850 -0.1354  0.5514  0.0006
  108OSM    O1411047   0.803   2.487  10.697  0.4546 -0.4158 -0.5967
  108OSM    O1111048   0.912   2.263  10.693  0.2462  0.0536  0.0394
  108OSM    O1211049   1.031   2.458  10.604 -0.3464  0.6509  0.5303
  108OSM    C1S11050   0.844   2.214  10.564  0.0547 -0.0396  0.1283
  108OSM    H1S11051   0.769   2.287  10.527 -1.6043 -0.9991  1.5265
  108OSM    H1T11052   0.784   2.124  10.588 -0.3626  0.4876  1.1203
  108OSM     NF11053   0.883   2.149  10.329  0.1167 -0.0467 -0.5426
  108OSM    HNF11054   0.861   2.055  10.305  0.0424  0.8372 -4.3244
  108OSM    C2S11055   0.941   2.164  10.462 -0.3570  0.0233 -0.5728
  108OSM    H2S11056   1.010   2.250  10.445  1.5094 -1.2802  0.1792
  108OSM    C3S11057   1.012   2.031  10.505  0.1140 -0.0607 -0.0833
  108OSM    H3S11058   0.932   1.953  10.510 -0.5049  0.6748  2.2367
  108OSM     O311059   1.063   2.037  10.634  0.4626  0.0770 -0.6692
  108OSM    HO311060   1.016   2.117  10.660 -0.8271 -1.0237  0.4587
  108OSM    C4S11061   1.125   2.001  10.420 -0.1894 -0.1012 -0.2424
  108OSM    H4S11062   1.217   2.061  10.422  0.2881 -0.8418  0.3097
  108OSM    C5S11063   1.121   1.907  10.324 -0.4771  0.3744  0.3102
  108OSM    H5S11064   1.023   1.859  10.309 -0.3046 -0.1686  0.8773
  108OSM    C6S11065   1.235   1.871  10.233  0.3285  0.1614 -0.1241
  108OSM    H6S11066   1.334   1.907  10.269  1.0058 -0.8062 -1.0020
  108OSM    H6T11067   1.217   1.919  10.134  3.2095 -1.6631 -1.5729
  108OSM    C7S11068   1.271   1.719  10.220 -0.2749 -0.2410 -0.1620
  108OSM    H7S11069   1.183   1.651  10.227 -0.8874  0.6423  0.9860
  108OSM    H7T11070   1.312   1.696  10.321 -1.2324 -0.4613  0.1894
  108OSM    C8S11071   1.370   1.681  10.107 -0.2023  0.0229  0.0184
  108OSM    H8S11072   1.386   1.576  10.140 -1.1366  0.9562  3.6852
  108OSM    H8T11073   1.468   1.732  10.113 -1.0390  1.5042  1.4857
  108OSM    C9S11074   1.308   1.701   9.965 -0.2579  0.2926 -0.2280
  108OSM    H9S11075   1.317   1.806   9.931  1.8774  0.2172  0.0562
  108OSM    H9T11076   1.198   1.688   9.975 -0.5513  2.5910 -0.2896
  108OSM   C10S11077   1.371   1.618   9.849  0.1533 -0.1631 -0.4584
  108OSM   H10S11078   1.360   1.510   9.874  0.2108 -0.3180 -1.1101
  108OSM   H10T11079   1.476   1.637   9.818  0.9160 -2.2972  0.6988
  108OSM   C11S11080   1.285   1.628   9.721  0.4291 -0.4160 -1.0736
  108OSM   H11S11081   1.309   1.729   9.681  2.9554 -0.6951 -0.3601
  108OSM   H11T11082   1.177   1.627   9.749  0.7465  0.2396  0.2609
  108OSM   C12S11083   1.318   1.520   9.618 -0.2008 -0.3316  0.5157
  108OSM   H12S11084   1.300   1.417   9.656 -0.1093 -0.2672  0.7373
  108OSM   H12T11085   1.425   1.524   9.588 -0.5561  1.9806 -0.5636
  108OSM   C13S11086   1.247   1.542   9.481  0.3912 -0.5267  0.1796
  108OSM   H13S11087   1.261   1.646   9.446 -2.9878  0.3844  1.3360
  108OSM   H13T11088   1.136   1.537   9.488  0.3937 -2.1144 -0.6518
  108OSM   C14S11089   1.291   1.448   9.367  0.5727  0.0624  0.5717
  108OSM   H14S11090   1.272   1.347   9.409 -0.1111 -0.3088 -0.5964
  108OSM   H14T11091   1.399   1.462   9.344  0.4336  2.4502  1.2096
  108OSM   C15S11092   1.204   1.448   9.244  0.1619  0.1660 -0.1459
  108OSM   H15S11093   1.214   1.547   9.194 -1.7837 -0.7398 -2.4547
  108OSM   H15T11094   1.098   1.433   9.276  0.5523  0.6041  1.3927
  108OSM   C16S11095   1.237   1.329   9.155  0.0967  0.8497 -0.5759
  108OSM   H16S11096   1.225   1.231   9.207  0.0265  1.1530 -0.0175
  108OSM   H16T11097   1.347   1.331   9.137  0.4962 -1.2502  1.2665
  108OSM   C17S11098   1.169   1.340   9.016  0.0477  0.3224  0.7603
  108OSM   H17S11099   1.218   1.424   8.964 -0.9061 -0.0240 -0.7167
  108OSM   H17T11100   1.062   1.360   9.041 -0.1085 -1.7567  1.9463
  108OSM   C18S11101   1.163   1.223   8.925  0.1301 -0.1838  0.5369
  108OSM   H18S11102   1.084   1.242   8.849 -1.2814  0.8701  2.2249
  108OSM   H18T11103   1.132   1.138   8.988 -0.9782 -0.2453 -0.0798
  108OSM   H18U11104   1.255   1.199   8.867  1.4245  0.9877  2.0580
  108OSM    C1F11105   0.846   2.240  10.247  0.1917 -0.3589 -0.3184
  108OSM     OF11106   0.846   2.360  10.277  0.0811 -0.0075  0.8114
  108OSM    C2F11107   0.809   2.199  10.108  0.2882  0.6198 -0.7620
  108OSM    H2F11108   0.719   2.134  10.109  0.4937  0.1522 -4.7260
  108OSM    H2G11109   0.889   2.138  10.062  0.8310  0.9175 -0.2061
  108OSM    C3F11110   0.773   2.325  10.012 -0.3355  0.2859 -0.4915
  108OSM    H3F11111   0.851   2.402  10.030  0.6666 -0.5208 -1.3677
  108OSM    H3G11112   0.681   2.370  10.055  1.1358  0.6805  2.3504
  108OSM    C4F11113   0.772   2.280   9.866  0.2018 -0.7523  0.2754
  108OSM    H4F11114   0.848   2.201   9.851  0.0468 -0.9484  0.5372
  108OSM    H4G11115   0.801   2.360   9.794 -0.1137 -1.4146 -0.5988
  108OSM    C5F11116   0.642   2.231   9.812 -0.5047  0.3004 -0.7253
  108OSM    H5F11117   0.546   2.273   9.850 -1.0940 -1.5958 -0.0575
  108OSM    H5G11118   0.632   2.128   9.852 -3.6126  2.0161  3.2750
  108OSM    C6F11119   0.639   2.199   9.662  1.2215  0.2393  0.8669
  108OSM    H6F11120   0.733   2.143   9.645  2.4920  2.2755  0.9346
  108OSM    H6G11121   0.647   2.295   9.606  0.0057  1.4065  2.6440
  108OSM    C7F11122   0.520   2.115   9.614  0.5440  0.9463  0.0941
  108OSM    H7F11123   0.423   2.155   9.649 -0.8738 -0.0438 -2.5346
  108OSM    H7G11124   0.531   2.012   9.655 -0.8046  0.9578  0.5342
  108OSM    C8F11125   0.518   2.114   9.461 -0.7152  0.2243  0.4823
  108OSM    H8F11126   0.446   2.035   9.430  0.1776  0.3891 -2.1290
  108OSM    H8G11127   0.619   2.090   9.421 -0.6249  2.0892 -0.4762
  108OSM    C9F11128   0.473   2.242   9.396  0.3636  0.5340  0.1986
  108OSM    H9F11129   0.526   2.337   9.406 -2.2895  2.0090  0.8389
  108OSM   C10F11130   0.363   2.252   9.317  0.3804 -0.1252 -0.6377
  108OSM   H10F11131   0.331   2.349   9.276 -1.7942 -0.9441 -0.9374
  108OSM   C11F11132   0.260   2.144   9.281 -0.3306 -0.7521  0.4445
  108OSM   H11F11133   0.161   2.192   9.262 -0.2418 -1.4391 -1.8397
  108OSM   H11G11134   0.250   2.079   9.371 -0.7757  0.1885  1.0814
  108OSM   C12F11135   0.301   2.059   9.153 -0.3416  0.0640  0.3284
  108OSM   H12F11136   0.402   2.018   9.175  0.2451  0.4396 -1.6009
  108OSM   H12G11137   0.300   2.136   9.073  0.0109  1.1046  1.3077
  108OSM   C13F11138   0.218   1.937   9.135 -0.4033  0.0294 -0.8135
  108OSM   H13F11139   0.226   1.879   9.230 -0.7154 -1.0806 -1.4552
  108OSM   H13G11140   0.261   1.879   9.050  2.8014  1.5566 -0.3142
  108OSM   C14F11141   0.069   1.969   9.110  0.6043  0.5450 -0.2882
  108OSM   H14F11142   0.032   2.013   9.205  1.6100  1.2467 -0.2120
  108OSM   H14G11143   0.013   1.875   9.090 -0.1825  0.9275  0.1165
  108OSM   C15F11144   0.036   2.070   9.004  0.3587  0.4159  0.3031
  108OSM   H15F11145   0.078   2.169   9.032  1.9884 -0.1878  0.0972
  108OSM   H15G11146  -0.074   2.069   8.996  0.3931 -1.0651 -0.1721
  108OSM   C16F11147   0.115   2.042   8.869  0.2911 -0.1561 -0.2677
  108OSM   H16F11148   0.225   2.036   8.884  0.4130  2.4813  0.1089
  108OSM   H16G11149   0.090   2.121   8.795 -0.4248  0.7888  0.9540
  108OSM   C17F11150   0.080   1.904   8.811  0.2666  0.5308  0.7057
  108OSM   H17F11151  -0.026   1.877   8.831  0.7945 -2.3670 -0.1591
  108OSM   H17G11152   0.144   1.826   8.859 -0.0465 -1.9500 -2.7402
  108OSM   C18F11153   0.123   1.899   8.663 -0.3577 -0.2050 -0.1059
  108OSM   H18F11154   0.073   1.809   8.620 -0.5292 -0.0106 -0.3120
  108OSM   H18G11155   0.233   1.882   8.660  0.0463  2.2076  0.1969
  108OSM   H18H11156   0.090   1.985   8.602  0.9928  0.8941  0.7068
  109OSM      N11157   6.667   0.211  11.255 -0.5447  0.5215  0.0658
  109OSM    C1511158   6.533   0.246  11.318  0.0126 -0.2306 -0.3056
  109OSM   H15A11159   6.486   0.325  11.262  2.1959  0.8740 -0.6009
  109OSM   H15B11160   6.552   0.277  11.419  1.3764  0.6914 -0.8334
  109OSM   H15C11161   6.466   0.162  11.330  0.5228 -0.7158 -0.8344
  109OSM    C1411162   6.743   0.340  11.245 -0.9492  0.0780 -0.2692
  109OSM   H14A11163   6.680   0.404  11.185 -1.3368  1.7242  1.8343
  109OSM   H14B11164   6.840   0.326  11.198 -0.7315 -0.5285  0.3617
  109OSM   H14C11165   6.755   0.391  11.339  0.3283  0.0835 -0.4149
  109OSM    C1311166   6.748   0.119  11.338 -0.4949  0.2390  0.0199
  109OSM   H13A11167   6.707   0.020  11.338 -1.7562  0.7460  0.5325
  109OSM   H13B11168   6.749   0.160  11.438 -1.3755  0.0286  0.1164
  109OSM   H13C11169   6.846   0.110  11.293 -0.7617  0.9752 -0.7224
  109OSM    C1211170   6.647   0.145  11.114 -0.0492  0.2699  0.3042
  109OSM   H12A11171   6.617   0.042  11.119  0.0533  0.2373  0.2503
  109OSM   H12B11172   6.747   0.151  11.074 -0.0283 -1.8481 -0.0062
  109OSM    C1111173   6.549   0.225  11.022  0.2697  0.6954 -0.3293
  109OSM   H11A11174   6.451   0.207  11.070  1.0313 -1.6762  0.3852
  109OSM   H11B11175   6.546   0.171  10.925  1.1035  0.4957 -0.2471
  109OSM      P11176   6.462   0.467  10.994  0.0656  0.1550 -0.2953
  109OSM    O1311177   6.394   0.456  11.126 -0.2477 -0.1457  0.1034
  109OSM    O1411178   6.513   0.604  10.959  0.3654  0.8721 -0.1957
  109OSM    O1111179   6.361   0.424  10.879  0.1849 -0.0984 -0.2044
  109OSM    O1211180   6.570   0.365  11.001  0.0752  0.2476  0.2131
  109OSM    C1S11181   6.411   0.401  10.743  0.1964 -0.2804  0.1927
  109OSM    H1S11182   6.517   0.424  10.720 -0.0854  1.1047  0.1888
  109OSM    H1T11183   6.352   0.463  10.672  1.5422 -0.3469 -1.0139
  109OSM     NF11184   6.421   0.243  10.545 -0.0973  0.1357 -0.1919
  109OSM    HNF11185   6.349   0.193  10.497 -1.3561 -1.4505  3.1956
  109OSM    C2S11186   6.389   0.259  10.691 -0.1301  0.0545  0.0181
  109OSM    H2S11187   6.446   0.189  10.755  0.8844  1.5051  0.7163
  109OSM    C3S11188   6.240   0.202  10.721 -0.3740  0.0231  0.0231
  109OSM    H3S11189   6.165   0.272  10.677  0.3248  0.2196 -0.8577
  109OSM     O311190   6.209   0.194  10.862  0.1100  0.3654 -0.1747
  109OSM    HO311191   6.240   0.282  10.889  1.3197  0.8990 -3.1380
  109OSM    C4S11192   6.213   0.068  10.648  0.8478 -0.7448 -0.1429
  109OSM    H4S11193   6.282  -0.014  10.673  1.1046 -0.4109  0.2597
  109OSM    C5S11194   6.110   0.039  10.573 -0.5622  0.1918  0.5225
  109OSM    H5S11195   6.028   0.111  10.558  0.6658  1.4090 -0.3441
  109OSM    C6S11196   6.087  -0.096  10.507 -0.2504  0.0924  0.1236
  109OSM    H6S11197   5.991  -0.131  10.549 -2.2431  1.8250 -2.8361
  109OSM    H6T11198   6.159  -0.175  10.538 -0.8829 -0.2711  0.6744
  109OSM    C7S11199   6.058  -0.080  10.354  0.4783 -0.5033  0.5068
  109OSM    H7S11200   6.151  -0.052  10.301  0.3231  0.6378  0.8148
  109OSM    H7T11201   5.977  -0.003  10.351  0.3201 -0.6425  1.3081
  109OSM    C8S11202   5.986  -0.208  10.297  0.1131 -0.0141  0.0793
  109OSM    H8S11203   5.889  -0.232  10.345  0.2001 -0.6139 -0.0435
  109OSM    H8T11204   6.045  -0.301  10.309 -2.8156 -2.1560 -1.5065
  109OSM    C9S11205   5.953  -0.184  10.148  0.0091  0.0657  1.0095
  109OSM    H9S11206   6.050  -0.173  10.094 -1.4314  2.0106 -1.3117
  109OSM    H9T11207   5.901  -0.086  10.149  1.4310  0.8991 -1.4213
  109OSM   C10S11208   5.872  -0.284  10.073 -0.0647  0.2851  0.3423
  109OSM   H10S11209   5.767  -0.264  10.106 -0.9840 -1.4734 -1.3941
  109OSM   H10T11210   5.903  -0.387  10.103  1.9702  1.4212  2.2683
  109OSM   C11S11211   5.860  -0.265   9.922  0.6139 -0.0285  0.2059
  109OSM   H11S11212   5.772  -0.199   9.901  1.2331  0.6431 -0.2913
  109OSM   H11T11213   5.838  -0.369   9.887  1.3446 -0.8391  2.1081
  109OSM   C12S11214   5.989  -0.217   9.850  0.3454 -0.3962  0.3068
  109OSM   H12S11215   6.073  -0.287   9.870  0.4568 -0.2445  0.3688
  109OSM   H12T11216   6.007  -0.123   9.905  1.4408  0.5104 -1.5209
  109OSM   C13S11217   5.975  -0.176   9.699 -0.3196  0.8740  0.6344
  109OSM   H13S11218   6.075  -0.153   9.655 -0.7076  1.5338  0.0895
  109OSM   H13T11219   5.907  -0.088   9.693 -1.3712 -0.0060 -0.3759
  109OSM   C14S11220   5.907  -0.288   9.611  0.8191  0.4652 -0.2637
  109OSM   H14S11221   5.799  -0.277   9.637  0.9899  0.8820  0.2809
  109OSM   H14T11222   5.948  -0.387   9.642  0.0224  0.2232  0.0366
  109OSM   C15S11223   5.933  -0.271   9.462  0.0894  0.1001 -0.7264
  109OSM   H15S11224   6.036  -0.310   9.454 -0.3977 -1.0570 -1.4259
  109OSM   H15T11225   5.934  -0.165   9.429 -1.0221  0.4914  0.4213
  109OSM   C16S11226   5.835  -0.338   9.366 -0.1483  0.7952 -0.0503
  109OSM   H16S11227   5.738  -0.288   9.385 -0.7650 -0.0173 -1.0674
  109OSM   H16T11228   5.835  -0.442   9.405  0.0556  0.6878 -0.3396
  109OSM   C17S11229   5.867  -0.319   9.213  0.6115  0.8849  0.1200
  109OSM   H17S11230   5.877  -0.209   9.195  0.2472  0.8432 -0.3315
  109OSM   H17T11231   5.776  -0.352   9.160  0.4742  2.2472 -0.5161
  109OSM   C18S11232   5.985  -0.395   9.147 -0.2622  0.1545 -0.3353
  109OSM   H18S11233   5.985  -0.503   9.174 -0.8535  0.7722  2.2783
  109OSM   H18T11234   6.083  -0.353   9.175 -0.5235  1.0816 -0.7740
  109OSM   H18U11235   5.971  -0.386   9.037  1.2654 -0.7110 -0.6175
  109OSM    C1F11236   6.533   0.277  10.482  0.3147  0.1583 -0.2634
  109OSM     OF11237   6.632   0.312  10.541  0.2931  0.2316 -0.2529
  109OSM    C2F11238   6.539   0.271  10.332  0.4461  0.0824 -0.0758
  109OSM    H2F11239   6.447   0.310  10.283  0.0367 -2.5432 -1.5286
  109OSM    H2G11240   6.545   0.160  10.318  0.8514  0.0926  0.0147
  109OSM    C3F11241   6.661   0.331  10.270 -0.3039 -0.9441  0.0752
  109OSM    H3F11242   6.760   0.305  10.312  0.5974  1.9335 -0.1550
  109OSM    H3G11243   6.653   0.440  10.291 -1.2782 -1.1050  0.5395
  109OSM    C4F11244   6.674   0.296  10.121 -0.0805  0.2370 -0.3000
  109OSM    H4F11245   6.588   0.335  10.062  0.0743 -1.1732 -1.4835
  109OSM    H4G11246   6.675   0.186  10.108  0.0128  0.2991 -0.8125
  109OSM    C5F11247   6.803   0.357  10.070  0.0966 -0.0646  0.7610
  109OSM    H5F11248   6.890   0.322  10.129  1.9105  1.2900 -1.0230
  109OSM    H5G11249   6.797   0.467  10.089 -0.1104  0.2353 -0.9875
  109OSM    C6F11250   6.835   0.334   9.920  0.1916  0.3255 -0.5634
  109OSM    H6F11251   6.744   0.368   9.866 -0.1407  0.6017  0.1703
  109OSM    H6G11252   6.851   0.225   9.907 -0.0298  0.1570  0.5289
  109OSM    C7F11253   6.953   0.419   9.862 -0.1013 -0.2879  0.7979
  109OSM    H7F11254   7.049   0.388   9.909  1.3641  1.1393 -1.1383
  109OSM    H7G11255   6.942   0.528   9.884 -1.3671 -0.7652  2.6083
  109OSM    C8F11256   6.975   0.412   9.710 -0.9957 -0.4130 -0.2534
  109OSM    H8F11257   6.971   0.303   9.688 -0.1537 -0.0760 -2.2208
  109OSM    H8G11258   7.081   0.441   9.690 -0.2397 -2.5167  0.5810
  109OSM    C9F11259   6.875   0.486   9.627 -0.9243  0.5584 -0.4244
  109OSM    H9F11260   6.894   0.594   9.620  1.5073  0.3456  1.8526
  109OSM   C10F11261   6.772   0.430   9.558 -0.0103  0.7880 -0.4940
  109OSM   H10F11262   6.703   0.505   9.516  0.5760  1.9345  0.5626
  109OSM   C11F11263   6.736   0.284   9.551  0.4261  0.2085  0.3003
  109OSM   H11F11264   6.627   0.266   9.546  0.5695 -0.0967 -2.6198
  109OSM   H11G11265   6.784   0.221   9.629  0.7370 -1.5531 -1.2692
  109OSM   C12F11266   6.789   0.228   9.417  0.4070 -0.3090  1.1224
  109OSM   H12F11267   6.752   0.280   9.326 -1.4337 -1.8514  0.9536
  109OSM   H12G11268   6.752   0.123   9.411 -0.8707  0.2270 -0.8314
  109OSM   C13F11269   6.944   0.205   9.416 -0.3211 -0.6708 -0.3553
  109OSM   H13F11270   6.965   0.133   9.499 -0.7650  1.5688  1.7473
  109OSM   H13G11271   6.999   0.300   9.431 -2.0692  0.8917 -3.2429
  109OSM   C14F11272   6.987   0.157   9.280  0.2133 -0.5999 -0.4342
  109OSM   H14F11273   6.929   0.214   9.204  0.2001  0.7203  0.5462
  109OSM   H14G11274   6.958   0.050   9.272 -0.4302 -0.3850 -1.0660
  109OSM   C15F11275   7.135   0.169   9.249 -0.6910  0.2695  0.7543
  109OSM   H15F11276   7.198   0.116   9.323 -1.4670 -1.3755  0.2589
  109OSM   H15G11277   7.163   0.276   9.242 -0.4725  0.0914 -1.5178
  109OSM   C16F11278   7.166   0.099   9.117  0.3257  0.3335 -0.0699
  109OSM   H16F11279   7.074   0.122   9.057 -0.3500  0.3445  0.9634
  109OSM   H16G11280   7.168  -0.011   9.122  0.9345  0.3308 -0.3254
  109OSM   C17F11281   7.297   0.158   9.058  0.4272 -0.0948 -0.0273
  109OSM   H17F11282   7.383   0.142   9.126  1.4465 -0.1750 -1.3124
  109OSM   H17G11283   7.289   0.268   9.041 -0.7356 -0.2748 -0.6485
  109OSM   C18F11284   7.318   0.087   8.921  0.0738  0.1526 -0.1598
  109OSM   H18F11285   7.401   0.134   8.864  0.5863  1.4241  1.6077
  109OSM   H18G11286   7.226   0.103   8.861 -1.2888  1.6741  2.2345
  109OSM   H18H11287   7.332  -0.023   8.928  1.0113  0.2750  0.0128
  110OSM      N11288   0.103   5.500  11.121  0.0863  0.0574 -0.0684
  110OSM    C1511289  -0.003   5.471  11.019  0.0519 -0.0454  0.1851
  110OSM   H15A11290  -0.023   5.547  10.945  1.3172 -1.7117 -1.9184
  110OSM   H15B11291  -0.095   5.454  11.073  0.9593 -0.3170  1.6871
  110OSM   H15C11292   0.013   5.374  10.975 -3.0919 -0.1220 -0.8863
  110OSM    C1411293   0.061   5.607  11.216 -0.4179  0.8886  0.0016
  110OSM   H14A11294   0.138   5.594  11.291 -1.3434 -0.1553  0.7855
  110OSM   H14B11295  -0.039   5.588  11.253 -1.5059  0.8092 -2.7984
  110OSM   H14C11296   0.068   5.706  11.172  1.2163 -0.0464 -1.9154
  110OSM    C1311297   0.132   5.369  11.190  0.0189 -0.9128 -0.1535
  110OSM   H13A11298   0.201   5.378  11.273  0.0668 -0.1648 -0.2727
  110OSM   H13B11299   0.181   5.299  11.124 -0.7329 -0.6758 -0.9568
  110OSM   H13C11300   0.033   5.343  11.224 -0.5933  0.7205 -0.6511
  110OSM    C1211301   0.238   5.547  11.072  0.5593 -0.4059 -0.5300
  110OSM   H12A11302   0.303   5.546  11.158  1.6080 -0.9840 -1.3218
  110OSM   H12B11303   0.235   5.651  11.043  0.6495  0.1613  1.3784
  110OSM    C1111304   0.306   5.479  10.954  0.5616 -0.2839  0.5417
  110OSM   H11A11305   0.401   5.531  10.931  0.0270  0.4471 -0.0152
  110OSM   H11B11306   0.250   5.497  10.860  1.5572  1.9151  0.3365
  110OSM      P11307   0.443   5.295  11.077  0.4737 -0.0444  0.0027
  110OSM    O1311308   0.452   5.400  11.186  0.1766 -0.0180 -0.1000
  110OSM    O1411309   0.406   5.158  11.117  0.4347  0.5397 -0.1015
  110OSM    O1111310   0.565   5.295  10.986  0.6909 -0.3814  0.4653
  110OSM    O1211311   0.326   5.342  10.980  0.5848 -0.3602 -0.2170
  110OSM    C1S11312   0.585   5.189  10.891  0.9501  0.1510  0.6089
  110OSM    H1S11313   0.508   5.110  10.884  2.6959 -1.4913 -0.8220
  110OSM    H1T11314   0.671   5.127  10.924  0.3634 -0.9566  0.0985
  110OSM     NF11315   0.605   5.121  10.658  0.6842 -0.3367 -0.2194
  110OSM    HNF11316   0.695   5.080  10.644 -0.5188 -1.8003 -4.3714
  110OSM    C2S11317   0.602   5.239  10.742  0.1059 -0.4815  0.3775
  110OSM    H2S11318   0.513   5.301  10.718  0.8796  0.0881 -1.0890
  110OSM    C3S11319   0.731   5.322  10.733 -0.3120  0.3910 -0.3710
  110OSM    H3S11320   0.810   5.261  10.783  1.2811  1.3334 -1.6955
  110OSM     O311321   0.723   5.442  10.811 -0.1103 -0.1092 -0.4829
  110OSM    HO311322   0.655   5.420  10.875 -0.4391  0.3956 -0.6594
  110OSM    C4S11323   0.759   5.360  10.592 -0.5216  0.0163  0.0184
  110OSM    H4S11324   0.822   5.283  10.546 -0.2577 -0.6028  1.3724
  110OSM    C5S11325   0.716   5.463  10.515 -0.0186 -1.0924  0.3187
  110OSM    H5S11326   0.657   5.542  10.563  2.0575  0.0143  1.0726
  110OSM    C6S11327   0.759   5.468  10.371 -0.0832 -0.2521  0.4980
  110OSM    H6S11328   0.839   5.395  10.346  0.9659  0.6436  1.1924
  110OSM    H6T11329   0.811   5.562  10.344  0.7932 -1.3469 -1.7220
  110OSM    C7S11330   0.641   5.428  10.287 -0.5673  0.4327  0.5608
  110OSM    H7S11331   0.580   5.342  10.323  1.5439 -2.8470 -3.2420
  110OSM    H7T11332   0.687   5.397  10.190  1.7664 -1.2523  2.1634
  110OSM    C8S11333   0.536   5.537  10.271  0.8848 -0.0319  0.2668
  110OSM    H8S11334   0.583   5.636  10.251 -3.8247  2.2426 -0.1535
  110OSM    H8T11335   0.486   5.545  10.370 -0.2121 -2.2507 -0.0795
  110OSM    C9S11336   0.430   5.513  10.161 -0.2330 -0.1371 -0.4387
  110OSM    H9S11337   0.333   5.546  10.205 -0.3227  0.0591 -0.7724
  110OSM    H9T11338   0.416   5.409  10.125  3.6750 -0.2828 -1.8111
  110OSM   C10S11339   0.460   5.592  10.033 -0.2135 -0.0794  0.1235
  110OSM   H10S11340   0.546   5.541   9.984  0.3047  0.8039  0.1120
  110OSM   H10T11341   0.491   5.692  10.069  0.4769 -0.3129  0.1815
  110OSM   C11S11342   0.336   5.600   9.939  0.2324  0.8754  0.0454
  110OSM   H11S11343   0.256   5.656   9.992 -1.9415 -3.8519  2.0752
  110OSM   H11T11344   0.294   5.497   9.940  0.4980  0.7705  0.3381
  110OSM   C12S11345   0.368   5.650   9.795  0.8558  0.3263  0.1593
  110OSM   H12S11346   0.445   5.577   9.765 -0.7936 -1.7132  0.7746
  110OSM   H12T11347   0.417   5.750   9.786  1.2747  0.1202  0.1472
  110OSM   C13S11348   0.247   5.657   9.701 -0.0766 -0.0067  0.0951
  110OSM   H13S11349   0.203   5.759   9.712 -0.6655 -0.1378 -0.8980
  110OSM   H13T11350   0.177   5.572   9.718 -0.8839  0.1010 -2.4745
  110OSM   C14S11351   0.300   5.637   9.551  0.4073 -0.2246 -0.7307
  110OSM   H14S11352   0.361   5.544   9.551  3.0621  1.4281 -3.2943
  110OSM   H14T11353   0.373   5.720   9.545 -0.2512  0.4662  0.6231
  110OSM   C15S11354   0.187   5.641   9.454 -0.1266  0.4940  0.1265
  110OSM   H15S11355   0.136   5.739   9.461  0.1671  0.7393 -1.1150
  110OSM   H15T11356   0.110   5.562   9.469 -2.0818  2.0314 -1.5935
  110OSM   C16S11357   0.256   5.636   9.320 -0.4592  0.2752  0.5905
  110OSM   H16S11358   0.300   5.538   9.291 -0.6887  0.7016 -1.2531
  110OSM   H16T11359   0.327   5.721   9.305 -0.5642  0.2903  0.1796
  110OSM   C17S11360   0.145   5.630   9.216 -0.3577 -0.0975 -0.5961
  110OSM   H17S11361   0.088   5.726   9.222  0.6766  0.4222  1.8452
  110OSM   H17T11362   0.074   5.548   9.239  0.3594 -0.0924  1.7938
  110OSM   C18S11363   0.188   5.603   9.062 -0.3692  0.8525  0.0125
  110OSM   H18S11364   0.223   5.701   9.022  1.0293  0.1668 -0.4719
  110OSM   H18T11365   0.104   5.558   9.004 -0.3558  0.0794  0.5948
  110OSM   H18U11366   0.264   5.523   9.064 -1.0773  0.1102 -1.7860
  110OSM    C1F11367   0.501   5.049  10.631  0.4642  0.0077 -0.0309
  110OSM     OF11368   0.390   5.095  10.642  0.0873 -0.7009 -0.2149
  110OSM    C2F11369   0.528   4.909  10.577 -0.2353  0.2095 -0.0376
  110OSM    H2F11370   0.433   4.851  10.577 -0.3272  0.3405  2.1076
  110OSM    H2G11371   0.601   4.866  10.648 -0.9613 -1.1939 -0.1254
  110OSM    C3F11372   0.595   4.928  10.436  0.3005 -0.1820  0.4533
  110OSM    H3F11373   0.625   4.828  10.397 -2.1382 -0.7158 -0.1713
  110OSM    H3G11374   0.691   4.981  10.455  0.8585 -0.2306 -2.0756
  110OSM    C4F11375   0.495   4.992  10.332  0.3497  0.6796 -0.4725
  110OSM    H4F11376   0.456   5.088  10.373  0.9261 -0.2584  2.4017
  110OSM    H4G11377   0.405   4.927  10.328 -1.3602  2.8408  1.1097
  110OSM    C5F11378   0.558   5.020  10.198 -0.0187 -0.3287 -0.6548
  110OSM    H5F11379   0.603   4.924  10.167  1.6712  0.1788  0.1849
  110OSM    H5G11380   0.632   5.101  10.210 -1.1882  0.7250 -0.3640
  110OSM    C6F11381   0.451   5.061  10.090 -0.4489 -0.0717 -0.0035
  110OSM    H6F11382   0.393   5.146  10.132 -1.2761  0.1881 -1.6122
  110OSM    H6G11383   0.383   4.973  10.080  2.0738 -1.9927 -0.9332
  110OSM    C7F11384   0.514   5.075   9.946 -0.3497  0.3879 -0.5266
  110OSM    H7F11385   0.580   4.990   9.919  1.0777  2.3714 -3.6200
  110OSM    H7G11386   0.580   5.164   9.959 -0.0545  0.1270 -0.2141
  110OSM    C8F11387   0.414   5.073   9.832  0.7129  0.3709 -0.4008
  110OSM    H8F11388   0.348   4.987   9.856  0.4415  0.9020  0.8090
  110OSM    H8G11389   0.470   5.040   9.742  2.4785 -0.9761  1.1351
  110OSM    C9F11390   0.339   5.200   9.815  0.4662  0.8206  0.2730
  110OSM    H9F11391   0.251   5.210   9.880 -0.7405 -1.5899 -0.9314
  110OSM   C10F11392   0.363   5.296   9.722  0.0945 -0.0614 -0.6854
  110OSM   H10F11393   0.302   5.387   9.725  0.5176  0.2161 -0.5143
  110OSM   C11F11394   0.481   5.302   9.626  0.8425 -0.6752  0.9548
  110OSM   H11F11395   0.567   5.237   9.654  1.1776  0.1256  1.8382
  110OSM   H11G11396   0.510   5.409   9.622 -1.4453 -0.0736 -0.1625
  110OSM   C12F11397   0.444   5.261   9.480 -0.3219  0.8482  0.5946
  110OSM   H12F11398   0.347   5.303   9.447 -0.3933  0.0360 -0.2626
  110OSM   H12G11399   0.445   5.149   9.480 -0.9101  0.8417  0.2878
  110OSM   C13F11400   0.554   5.310   9.385 -0.2220  0.4257  0.2464
  110OSM   H13F11401   0.651   5.272   9.423 -0.5637  1.3243  2.1152
  110OSM   H13G11402   0.550   5.421   9.380 -1.0157  0.4712  1.3849
  110OSM   C14F11403   0.512   5.263   9.247 -0.4470 -0.2976  0.9947
  110OSM   H14F11404   0.428   5.329   9.215 -0.2709 -1.0564 -1.1158
  110OSM   H14G11405   0.484   5.156   9.260 -1.1772 -0.3253 -0.6263
  110OSM   C15F11406   0.629   5.254   9.153  0.2841 -1.3577  0.0547
  110OSM   H15F11407   0.708   5.187   9.194  1.9327 -0.0133 -0.8423
  110OSM   H15G11408   0.673   5.356   9.159 -1.3881 -0.6405  0.3555
  110OSM   C16F11409   0.591   5.223   9.010  0.2793 -0.0954  0.1584
  110OSM   H16F11410   0.537   5.127   8.995 -1.8368  1.1799 -0.6608
  110OSM   H16G11411   0.686   5.218   8.952  1.1640  1.1202  1.4479
  110OSM   C17F11412   0.499   5.327   8.947 -0.2452  0.1855 -0.1631
  110OSM   H17F11413   0.546   5.424   8.976  0.1063 -0.3305  1.0184
  110OSM   H17G11414   0.403   5.308   9.000  0.3440 -0.8423  0.5499
  110OSM   C18F11415   0.482   5.295   8.794  0.8579 -0.5543 -0.0613
  110OSM   H18F11416   0.396   5.231   8.763  0.9887 -0.8619  0.2086
  110OSM   H18G11417   0.567   5.238   8.751 -0.6682 -1.7086 -1.6562
  110OSM   H18H11418   0.470   5.393   8.743  1.6877 -1.5189 -2.1814
  111OSM      N11419   2.021   4.313  11.155  0.7183 -0.2467 -0.2227
  111OSM    C1511420   1.875   4.300  11.190 -0.5845 -0.3173  0.0878
  111OSM   H15A11421   1.869   4.342  11.289 -0.5995  1.7502 -0.7751
  111OSM   H15B11422   1.836   4.199  11.184 -0.6034 -0.3863  1.2451
  111OSM   H15C11423   1.809   4.371  11.143  0.4050  2.5244  2.8093
  111OSM    C1411424   2.067   4.446  11.204 -0.0575  0.6205 -0.0723
  111OSM   H14A11425   2.025   4.525  11.144 -1.0029  1.1971  1.3073
  111OSM   H14B11426   2.175   4.450  11.195  0.1542 -1.8845  1.0018
  111OSM   H14C11427   2.028   4.464  11.304 -0.5232  1.3025 -0.3709
  111OSM    C1311428   2.094   4.203  11.231 -0.4317 -0.3350 -0.3643
  111OSM   H13A11429   2.081   4.108  11.182 -2.0519 -0.2927 -0.0409
  111OSM   H13B11430   2.038   4.188  11.323  1.6012  1.1018  1.1541
  111OSM   H13C11431   2.196   4.221  11.261 -1.2041  2.5563  0.7265
  111OSM    C1211432   2.042   4.303  11.004  0.4189  0.3939  0.4347
  111OSM   H12A11433   2.148   4.284  10.990 -0.1934 -1.5522 -1.8232
  111OSM   H12B11434   2.031   4.400  10.958  0.6713  0.7887  1.1991
  111OSM    C1111435   1.971   4.193  10.921  0.0469  0.5093 -0.1042
  111OSM   H11A11436   1.987   4.222  10.815  3.0654  1.1815  0.4980
  111OSM   H11B11437   1.862   4.205  10.941 -0.2904 -1.9377 -0.3227
  111OSM      P11438   2.138   3.993  10.865 -0.6114  0.3903 -0.0454
  111OSM    O1311439   2.252   4.088  10.869 -0.7531 -0.0330 -0.7363
  111OSM    O1411440   2.158   3.860  10.921  0.0846  0.3152  0.1194
  111OSM    O1111441   2.091   3.988  10.712  0.1627 -0.5381  0.2548
  111OSM    O1211442   2.015   4.059  10.943 -0.7993 -0.7595 -0.6698
  111OSM    C1S11443   1.952   3.977  10.683 -0.1542  0.6026 -0.7277
  111OSM    H1S11444   1.892   4.053  10.737 -0.6544  1.3848 -2.3898
  111OSM    H1T11445   1.907   3.877  10.697 -1.5013  1.0271 -1.9384
  111OSM     NF11446   1.769   4.043  10.521 -0.0864  0.5228  0.2864
  111OSM    HNF11447   1.717   3.977  10.466  0.2413  0.6172 -0.1417
  111OSM    C2S11448   1.915   4.010  10.530 -0.6610  0.3175  0.2705
  111OSM    H2S11449   1.964   4.102  10.490 -1.1408 -0.2367 -1.6120
  111OSM    C3S11450   1.957   3.884  10.443  0.4183  0.6157  0.5801
  111OSM    H3S11451   1.884   3.803  10.466  0.7891  0.3935  0.9747
  111OSM     O311452   2.080   3.824  10.487  0.7887 -0.1630  0.5459
  111OSM    HO311453   2.109   3.878  10.561 -0.3843 -0.3591  1.1662
  111OSM    C4S11454   1.955   3.908  10.297 -0.3201 -0.0631  0.4548
  111OSM    H4S11455   1.990   4.010  10.276  0.9384 -0.3663  1.0630
  111OSM    C5S11456   1.913   3.834  10.195 -0.9343 -0.4938 -0.3801
  111OSM    H5S11457   1.875   3.732  10.206  0.4549 -1.1753 -1.7864
  111OSM    C6S11458   1.907   3.875  10.049 -0.3219 -0.9772  0.1367
  111OSM    H6S11459   1.868   3.979  10.043 -0.4616 -1.0340  0.0563
  111OSM    H6T11460   1.844   3.808   9.987 -1.7267  0.3689  0.0597
  111OSM    C7S11461   2.050   3.875   9.989 -1.2432  0.0593 -0.3478
  111OSM    H7S11462   2.106   3.779   9.993 -0.9427  0.2195 -0.6564
  111OSM    H7T11463   2.114   3.949  10.040 -0.6365 -1.2304  0.7962
  111OSM    C8S11464   2.041   3.896   9.837  0.4508  0.4960 -0.3305
  111OSM    H8S11465   1.979   3.987   9.822  1.8834  1.5988  0.3373
  111OSM    H8T11466   1.988   3.808   9.794 -0.0435  0.2637  0.7409
  111OSM    C9S11467   2.184   3.917   9.770  0.3228  0.0436 -0.1941
  111OSM    H9S11468   2.229   3.816   9.767 -1.7629 -0.9643  0.7423
  111OSM    H9T11469   2.236   3.980   9.845  0.5750  0.7810 -0.9946
  111OSM   C10S11470   2.184   3.972   9.632  0.0297  0.1081 -0.2919
  111OSM   H10S11471   2.284   4.017   9.614  0.1277 -0.5571 -1.4328
  111OSM   H10T11472   2.106   4.051   9.633  1.0259  1.1169  0.2937
  111OSM   C11S11473   2.150   3.874   9.515  0.0728  0.7212 -0.1757
  111OSM   H11S11474   2.047   3.847   9.545  0.6002 -0.9391  0.1963
  111OSM   H11T11475   2.214   3.785   9.532  1.3084  1.4371 -0.9554
  111OSM   C12S11476   2.165   3.942   9.375  0.5389  0.4654 -0.5762
  111OSM   H12S11477   2.271   3.972   9.362  0.7328  0.0758  0.0752
  111OSM   H12T11478   2.095   4.026   9.397 -0.5087 -0.2674 -1.0677
  111OSM   C13S11479   2.100   3.869   9.257 -0.3698  0.0270 -0.4723
  111OSM   H13S11480   2.077   3.941   9.176 -1.6732  2.8245  2.2667
  111OSM   H13T11481   2.008   3.816   9.289  0.2296 -0.7831 -0.0642
  111OSM   C14S11482   2.190   3.753   9.200  0.1378 -0.3793  0.3326
  111OSM   H14S11483   2.209   3.676   9.278  0.4536 -1.5171 -0.8542
  111OSM   H14T11484   2.288   3.796   9.170  0.7799 -1.4007  0.9061
  111OSM   C15S11485   2.134   3.692   9.070 -0.1531 -0.4472  0.5809
  111OSM   H15S11486   2.163   3.745   8.978 -1.4295  0.7800  0.8704
  111OSM   H15T11487   2.023   3.694   9.068 -0.1424  0.4977  0.8864
  111OSM   C16S11488   2.167   3.549   9.039 -0.3593 -0.0565 -1.4312
  111OSM   H16S11489   2.125   3.503   9.132  1.7900  1.3985  0.2888
  111OSM   H16T11490   2.274   3.525   9.055 -0.3778  1.4626  1.2565
  111OSM   C17S11491   2.100   3.479   8.920 -0.0217  0.0271 -0.3480
  111OSM   H17S11492   2.143   3.377   8.919  0.1812  0.1148 -0.5245
  111OSM   H17T11493   2.119   3.535   8.826  0.7736 -0.7286 -0.6381
  111OSM   C18S11494   1.943   3.471   8.943  0.3195  0.3275  0.3793
  111OSM   H18S11495   1.920   3.433   9.045 -0.7506 -0.4585 -0.1439
  111OSM   H18T11496   1.901   3.391   8.878 -0.4573  0.4386  0.7491
  111OSM   H18U11497   1.900   3.572   8.926  0.9995  0.8794  1.8603
  111OSM    C1F11498   1.717   4.160  10.561  0.3555  0.1382  0.1738
  111OSM     OF11499   1.785   4.240  10.625  0.5716  0.1307  0.4867
  111OSM    C2F11500   1.574   4.202  10.522  0.0045  0.2732 -0.4388
  111OSM    H2F11501   1.516   4.194  10.616 -0.3553  1.5682 -0.5355
  111OSM    H2G11502   1.538   4.148  10.431  0.7438 -0.4996 -0.2777
  111OSM    C3F11503   1.578   4.352  10.479  0.0171 -0.2060 -1.0656
  111OSM    H3F11504   1.632   4.408  10.559 -0.2633 -1.9438  0.3773
  111OSM    H3G11505   1.472   4.384  10.470 -0.3718 -0.1496  2.7625
  111OSM    C4F11506   1.651   4.375  10.350  0.0478  0.1351 -0.4467
  111OSM    H4F11507   1.610   4.305  10.274  2.0601 -0.0404 -1.4122
  111OSM    H4G11508   1.755   4.340  10.365  0.7831  1.9515 -1.1738
  111OSM    C5F11509   1.650   4.525  10.311 -0.6153 -0.2560  0.1507
  111OSM    H5F11510   1.678   4.587  10.399 -2.2090  0.0103  0.4872
  111OSM    H5G11511   1.548   4.541  10.271  0.3170  1.6161 -1.5829
  111OSM    C6F11512   1.744   4.557  10.200  0.1680 -0.1412  0.2664
  111OSM    H6F11513   1.826   4.484  10.218 -0.7207 -1.4167 -0.6983
  111OSM    H6G11514   1.785   4.659  10.213 -1.3358  0.6338 -0.9531
  111OSM    C7F11515   1.684   4.531  10.061  0.1358 -0.5464 -0.6572
  111OSM    H7F11516   1.623   4.619  10.033 -1.0607 -1.2301 -0.2475
  111OSM    H7G11517   1.619   4.440  10.062  0.6386 -0.9059 -0.1304
  111OSM    C8F11518   1.795   4.510   9.957 -0.1576 -0.1700  0.4215
  111OSM    H8F11519   1.854   4.605   9.953 -0.8514  0.3050  1.1360
  111OSM    H8G11520   1.737   4.520   9.863 -0.1085  1.0886  0.5136
  111OSM    C9F11521   1.874   4.376   9.970  0.1743  0.0820  0.3183
  111OSM    H9F11522   1.923   4.369  10.068  1.2573 -2.1963 -0.3592
  111OSM   C10F11523   1.913   4.290   9.875 -0.0602 -0.3508 -0.8784
  111OSM   H10F11524   1.978   4.205   9.901  1.5009  0.9272 -0.5464
  111OSM   C11F11525   1.863   4.309   9.736 -0.5122  0.1055 -0.2301
  111OSM   H11F11526   1.926   4.257   9.661  0.9077  0.3063  0.8107
  111OSM   H11G11527   1.872   4.418   9.714  0.0953  0.4931  1.8828
  111OSM   C12F11528   1.721   4.259   9.717 -0.2551 -0.5154  0.4866
  111OSM   H12F11529   1.651   4.325   9.772  0.8608  0.1697  1.0917
  111OSM   H12G11530   1.713   4.151   9.742  0.0541 -1.0813 -1.7642
  111OSM   C13F11531   1.672   4.254   9.567 -0.8751  0.0091  0.6242
  111OSM   H13F11532   1.697   4.352   9.520  0.4175 -0.4056  0.4167
  111OSM   H13G11533   1.563   4.234   9.570 -0.7093 -1.3386 -1.0751
  111OSM   C14F11534   1.747   4.142   9.484 -0.3871  0.0734  0.4003
  111OSM   H14F11535   1.756   4.053   9.550  1.9824  0.7561  1.0543
  111OSM   H14G11536   1.848   4.186   9.469  0.5452 -2.2687 -0.3850
  111OSM   C15F11537   1.685   4.117   9.345  0.1265 -0.0879 -0.3315
  111OSM   H15F11538   1.677   4.212   9.287  0.0260  0.0378 -0.1143
  111OSM   H15G11539   1.580   4.091   9.367 -0.9449  0.7780 -4.0097
  111OSM   C16F11540   1.771   4.019   9.261 -0.1972  0.6539  0.4238
  111OSM   H16F11541   1.794   3.927   9.318  1.6921 -0.1308 -1.5470
  111OSM   H16G11542   1.862   4.073   9.229 -0.0562  0.6015  0.7357
  111OSM   C17F11543   1.692   3.976   9.133 -0.0420  0.0715 -0.0599
  111OSM   H17F11544   1.685   4.072   9.076 -2.7974  0.0453  0.1788
  111OSM   H17G11545   1.589   3.953   9.168 -0.4064  1.4510 -0.1910
  111OSM   C18F11546   1.752   3.872   9.046  0.3218  0.6999  0.1144
  111OSM   H18F11547   1.698   3.775   9.046  1.0827  0.2622  1.2490
  111OSM   H18G11548   1.860   3.857   9.066  0.3537 -0.8614 -1.1469
  111OSM   H18H11549   1.735   3.917   8.946 -0.7775  1.0887  0.4632
  112OSM      N11550   0.998   1.651  10.726 -0.0537  0.1921  0.3009
  112OSM    C1511551   1.029   1.630  10.585 -0.3874  0.3824 -0.5188
  112OSM   H15A11552   0.942   1.604  10.527 -0.4744  0.6142 -0.4888
  112OSM   H15B11553   1.109   1.557  10.580 -2.3036 -1.9134  0.9970
  112OSM   H15C11554   1.060   1.720  10.535  0.0309 -1.3576 -3.4640
  112OSM    C1411555   1.126   1.655  10.815  0.3601  0.7042  0.6181
  112OSM   H14A11556   1.190   1.569  10.805  1.3710  1.6294 -1.1757
  112OSM   H14B11557   1.111   1.662  10.922 -0.8671 -1.9135  0.6539
  112OSM   H14C11558   1.179   1.746  10.792  0.1034 -0.1535 -3.6397
  112OSM    C1311559   0.918   1.777  10.745 -0.4001  0.1947 -0.2547
  112OSM   H13A11560   0.961   1.869  10.707  0.4259 -0.1401 -0.1308
  112OSM   H13B11561   0.929   1.784  10.852  1.1380 -0.1787 -0.3792
  112OSM   H13C11562   0.814   1.769  10.717 -0.1534  0.3433 -1.2343
  112OSM    C1211563   0.917   1.533  10.772 -0.1405 -0.5827  0.5050
  112OSM   H12A11564   0.896   1.556  10.876 -0.3770  0.0670  0.3106
  112OSM   H12B11565   0.981   1.445  10.776  0.4469 -0.1742  0.1470
  112OSM    C1111566   0.781   1.491  10.702  0.2342 -0.2404 -0.2955
  112OSM   H11A11567   0.741   1.410  10.766 -1.6459  1.4430  0.7259
  112OSM   H11B11568   0.805   1.440  10.606 -0.7898 -1.6588  0.1834
  112OSM      P11569   0.557   1.618  10.759 -0.4924 -0.7145  0.3549
  112OSM    O1311570   0.576   1.581  10.897  0.2187 -0.2391  0.4143
  112OSM    O1411571   0.506   1.751  10.735  0.0999 -0.1265 -0.0792
  112OSM    O1111572   0.460   1.505  10.690  0.1247  0.1668 -0.5911
  112OSM    O1211573   0.692   1.600  10.680  0.0135  0.1561  0.3016
  112OSM    C1S11574   0.417   1.522  10.558  0.0660  0.3716 -0.0672
  112OSM    H1S11575   0.491   1.573  10.492 -0.9043  0.2831 -1.2545
  112OSM    H1T11576   0.334   1.596  10.567 -2.1865 -2.0477 -0.2305
  112OSM     NF11577   0.330   1.439  10.338 -0.4238 -0.4671 -0.1458
  112OSM    HNF11578   0.234   1.451  10.317 -0.5916  0.1607  0.9516
  112OSM    C2S11579   0.371   1.401  10.477 -0.1230 -1.0191  0.3027
  112OSM    H2S11580   0.454   1.328  10.483  1.3691  0.4704 -1.6507
  112OSM    C3S11581   0.261   1.316  10.550 -0.0864 -0.8102  0.3387
  112OSM    H3S11582   0.162   1.365  10.564  0.1044  0.1241 -1.4933
  112OSM     O311583   0.287   1.279  10.686 -0.2557 -0.2714 -0.0696
  112OSM    HO311584   0.350   1.349  10.703 -1.1257  1.5489 -3.8813
  112OSM    C4S11585   0.228   1.193  10.475 -0.4139 -0.1010 -0.3331
  112OSM    H4S11586   0.307   1.119  10.454 -1.3109 -1.3916  0.7874
  112OSM    C5S11587   0.103   1.160  10.438 -0.0255  0.1762 -0.2996
  112OSM    H5S11588   0.014   1.226  10.446 -0.2096  0.2212 -2.5797
  112OSM    C6S11589   0.073   1.027  10.366  0.2296 -0.4359 -0.0243
  112OSM    H6S11590   0.052   1.056  10.261  1.9831 -0.7298 -0.4694
  112OSM    H6T11591  -0.020   0.973  10.396  0.7398  0.3800  3.1624
  112OSM    C7S11592   0.177   0.914  10.347 -0.5800  0.2209 -0.6212
  112OSM    H7S11593   0.197   0.871  10.447  2.1324 -0.3219 -1.3698
  112OSM    H7T11594   0.274   0.953  10.308  0.0394  0.1247  0.8096
  112OSM    C8S11595   0.126   0.815  10.243 -0.4563 -0.1667 -0.1109
  112OSM    H8S11596   0.098   0.868  10.149  0.4847  2.4583  1.0459
  112OSM    H8T11597   0.029   0.771  10.274  0.2818 -1.0990  0.9253
  112OSM    C9S11598   0.226   0.706  10.212 -0.0270 -0.4411 -0.2805
  112OSM    H9S11599   0.323   0.755  10.189 -0.0551 -0.5186 -0.5623
  112OSM    H9T11600   0.198   0.657  10.117 -0.1227  1.2101 -1.1230
  112OSM   C10S11601   0.243   0.596  10.318  0.4869 -0.5735  0.4378
  112OSM   H10S11602   0.139   0.558  10.334 -0.3975  1.1305 -1.0036
  112OSM   H10T11603   0.277   0.636  10.416 -0.7033 -1.9406  1.4307
  112OSM   C11S11604   0.335   0.483  10.275  0.8159 -0.2832  0.4149
  112OSM   H11S11605   0.443   0.510  10.275  0.7560  0.0000  2.1138
  112OSM   H11T11606   0.329   0.462  10.166 -0.7870 -0.4752  0.5322
  112OSM   C12S11607   0.304   0.348  10.338  0.3590 -0.7077  0.5458
  112OSM   H12S11608   0.201   0.309  10.329  0.1730 -0.5323  1.7886
  112OSM   H12T11609   0.318   0.356  10.448 -0.4899 -2.4738  0.7921
  112OSM   C13S11610   0.397   0.233  10.291  0.1238  0.2164 -0.0200
  112OSM   H13S11611   0.392   0.153  10.369 -3.1322  0.4412  0.0688
  112OSM   H13T11612   0.502   0.267  10.303  0.5159 -0.6689 -0.8601
  112OSM   C14S11613   0.370   0.178  10.149  1.4509  0.1201  0.7933
  112OSM   H14S11614   0.348   0.266  10.083 -0.0743 -0.3307  0.6654
  112OSM   H14T11615   0.282   0.111  10.161  0.9429  0.3170 -1.6036
  112OSM   C15S11616   0.482   0.083  10.103  0.4937  0.5811 -1.4625
  112OSM   H15S11617   0.449   0.047  10.003 -5.4111  1.8404 -0.1629
  112OSM   H15T11618   0.484  -0.000  10.176 -0.7614  1.4847 -0.3804
  112OSM   C16S11619   0.624   0.140  10.097  0.5101  0.4503  0.1018
  112OSM   H16S11620   0.651   0.166  10.202 -0.3499  0.8901  0.2152
  112OSM   H16T11621   0.621   0.228  10.029  0.2860  0.4589  0.1203
  112OSM   C17S11622   0.734   0.039  10.048  0.2504 -1.1393  0.7929
  112OSM   H17S11623   0.832   0.089  10.053 -0.5621  0.3113  2.6887
  112OSM   H17T11624   0.710   0.003   9.945  2.0308  0.0039 -0.0337
  112OSM   C18S11625   0.746  -0.090  10.132  0.3670 -0.0661  0.5396
  112OSM   H18S11626   0.642  -0.124  10.154 -0.1349 -0.6550 -2.4593
  112OSM   H18T11627   0.793  -0.072  10.231 -0.3663 -0.1305  0.9079
  112OSM   H18U11628   0.804  -0.166  10.075  2.2458  0.2964  1.9266
  112OSM    C1F11629   0.418   1.479  10.252 -0.9420 -1.1487 -0.3060
  112OSM     OF11630   0.539   1.489  10.281  0.2434  0.3122  0.2540
  112OSM    C2F11631   0.364   1.509  10.116  0.0926 -0.7751  0.0285
  112OSM    H2F11632   0.371   1.619  10.102 -0.3489 -0.7176  0.2503
  112OSM    H2G11633   0.255   1.489  10.110  0.0805 -0.3806 -1.1982
  112OSM    C3F11634   0.438   1.460   9.990 -0.0927 -0.4880  0.1581
  112OSM    H3F11635   0.455   1.351  10.004 -0.0183 -0.3079  1.5872
  112OSM    H3G11636   0.541   1.499   9.975 -0.8824  2.0275  1.0736
  112OSM    C4F11637   0.375   1.474   9.848  0.2809 -0.4128  1.0418
  112OSM    H4F11638   0.365   1.580   9.818  0.2803 -0.9932 -1.0907
  112OSM    H4G11639   0.275   1.427   9.851  1.5794 -3.2840  0.9696
  112OSM    C5F11640   0.461   1.404   9.743  0.9441 -0.4834 -0.8475
  112OSM    H5F11641   0.477   1.295   9.756 -1.3526 -1.2316 -3.8008
  112OSM    H5G11642   0.563   1.447   9.750  1.0067 -0.4545 -1.8852
  112OSM    C6F11643   0.407   1.426   9.597 -0.3785 -0.6537 -0.0720
  112OSM    H6F11644   0.493   1.407   9.529 -0.0666  1.7300 -0.3965
  112OSM    H6G11645   0.368   1.529   9.581 -1.3341 -1.4406 -3.1291
  112OSM    C7F11646   0.282   1.334   9.553 -0.1883  0.2900  0.0113
  112OSM    H7F11647   0.198   1.365   9.618  1.3810  1.2209  1.6431
  112OSM    H7G11648   0.316   1.233   9.585 -1.7828 -0.4799 -0.6715
  112OSM    C8F11649   0.263   1.345   9.399  0.0070  0.1457  0.4651
  112OSM    H8F11650   0.183   1.277   9.361 -2.8381  3.0176  1.1058
  112OSM    H8G11651   0.356   1.315   9.346  0.5349 -2.2006  2.5776
  112OSM    C9F11652   0.222   1.480   9.358  0.5301 -0.4779 -1.0952
  112OSM    H9F11653   0.128   1.514   9.402  0.6673  0.3103 -1.4024
  112OSM   C10F11654   0.284   1.570   9.275  0.6337 -0.1634 -0.5276
  112OSM   H10F11655   0.229   1.664   9.261  0.2841 -0.4447 -1.0721
  112OSM   C11F11656   0.410   1.545   9.197 -0.1614  0.1218 -0.1140
  112OSM   H11F11657   0.386   1.477   9.113  3.1533 -1.3578  0.0676
  112OSM   H11G11658   0.478   1.483   9.259  1.1138 -1.0573 -2.6171
  112OSM   C12F11659   0.488   1.666   9.152 -0.3680  0.0415 -0.3721
  112OSM   H12F11660   0.424   1.721   9.079  0.2044 -1.5457 -2.1049
  112OSM   H12G11661   0.579   1.645   9.093  0.6174 -0.5738  1.3497
  112OSM   C13F11662   0.516   1.755   9.276  0.2480  0.0329  0.3774
  112OSM   H13F11663   0.433   1.811   9.324  0.6877  1.8683 -0.9441
  112OSM   H13G11664   0.576   1.840   9.238 -0.7979 -0.0634 -1.5166
  112OSM   C14F11665   0.603   1.689   9.392  0.1924  0.6743  0.7200
  112OSM   H14F11666   0.701   1.663   9.346  0.7217  1.6384  1.2921
  112OSM   H14G11667   0.563   1.595   9.436  1.8335 -0.5753 -0.3468
  112OSM   C15F11668   0.638   1.788   9.500 -0.3954  0.7236  0.1873
  112OSM   H15F11669   0.542   1.805   9.553  1.3764 -0.4805  3.9745
  112OSM   H15G11670   0.676   1.877   9.445  2.0577 -0.3502  0.1022
  112OSM   C16F11671   0.749   1.735   9.591 -0.7145  0.6935  0.7010
  112OSM   H16F11672   0.839   1.691   9.543 -2.2390 -1.7378 -0.0049
  112OSM   H16G11673   0.719   1.641   9.641  1.4627 -0.4732 -0.1046
  112OSM   C17F11674   0.781   1.846   9.689  0.5245  0.3131  0.1262
  112OSM   H17F11675   0.685   1.882   9.732  0.2447 -0.3548  0.0670
  112OSM   H17G11676   0.848   1.920   9.642  1.8735  1.1084  3.1430
  112OSM   C18F11677   0.865   1.777   9.801  0.1639 -0.5580  1.3415
  112OSM   H18F11678   0.878   1.847   9.886 -1.2361  0.8529  0.4390
  112OSM   H18G11679   0.965   1.740   9.770  0.1297  0.1368  0.3755
  112OSM   H18H11680   0.809   1.687   9.834 -0.5524  0.6625  3.5097
  113OSM      N11681   0.729   0.972  11.155  0.0805 -0.5198  0.6386
  113OSM    C1511682   0.741   1.120  11.161 -0.1451 -0.1047 -0.8803
  113OSM   H15A11683   0.649   1.168  11.131 -0.8391 -1.1081 -0.3671
  113OSM   H15B11684   0.829   1.142  11.102  0.0278  2.2382  0.1537
  113OSM   H15C11685   0.771   1.156  11.259 -2.9222 -1.0485  0.3592
  113OSM    C1411686   0.701   0.918  11.291  0.0578  0.1193  0.1029
  113OSM   H14A11687   0.613   0.955  11.342 -0.1031  0.7607 -0.6419
  113OSM   H14B11688   0.793   0.929  11.347  0.0616 -1.8738  0.5513
  113OSM   H14C11689   0.705   0.812  11.270  2.8978  0.3200 -0.5376
  113OSM    C1311690   0.618   0.925  11.065  0.5537  0.9763 -0.2881
  113OSM   H13A11691   0.522   0.957  11.104 -1.0669 -2.3935 -1.2812
  113OSM   H13B11692   0.589   0.821  11.071  0.2419  1.1403  1.3617
  113OSM   H13C11693   0.620   0.954  10.961  2.9866  1.9364  0.0098
  113OSM    C1211694   0.863   0.915  11.116 -0.3761 -0.1517  0.0068
  113OSM   H12A11695   0.839   0.810  11.116  1.3119 -0.5985  3.4123
  113OSM   H12B11696   0.925   0.934  11.203 -1.1360  0.3553  0.4393
  113OSM    C1111697   0.920   0.956  10.978 -0.1659 -0.9016 -0.6931
  113OSM   H11A11698   0.839   0.950  10.902 -0.7807  2.3120 -0.3332
  113OSM   H11B11699   0.991   0.877  10.946 -0.3128 -0.8600 -1.1183
  113OSM      P11700   0.959   1.178  10.860 -0.0681 -0.3949  0.0431
  113OSM    O1311701   0.815   1.215  10.876  0.0084 -0.3198 -0.7758
  113OSM    O1411702   1.055   1.292  10.860 -0.4572  0.1271 -1.0723
  113OSM    O1111703   0.990   1.089  10.732 -0.0492  0.1459 -0.0069
  113OSM    O1211704   0.992   1.078  10.980  1.0439  0.1306  0.5520
  113OSM    C1S11705   1.114   1.016  10.726  0.9295  0.1479  0.0391
  113OSM    H1S11706   1.122   0.948  10.814 -2.1748 -0.1717  0.1255
  113OSM    H1T11707   1.199   1.089  10.724  0.7405  0.3662 -0.0473
  113OSM     NF11708   1.249   0.839  10.612 -0.3886  0.3730  0.5348
  113OSM    HNF11709   1.323   0.845  10.546 -1.1229  0.1604 -0.3116
  113OSM    C2S11710   1.131   0.924  10.602  0.2970  0.1570  0.7487
  113OSM    H2S11711   1.048   0.851  10.603  0.9621 -0.7107 -2.2152
  113OSM    C3S11712   1.122   0.998  10.462  0.3985  0.4389  0.0616
  113OSM    H3S11713   1.209   1.066  10.455 -0.1293  1.3291  1.8093
  113OSM     O311714   1.004   1.079  10.451  0.0418  0.0408  0.1694
  113OSM    HO311715   0.962   1.075  10.537  0.4648  0.2737  0.3899
  113OSM    C4S11716   1.111   0.899  10.348 -0.2485 -0.0489  0.4337
  113OSM    H4S11717   1.026   0.829  10.353  0.3283 -0.8068 -0.2112
  113OSM    C5S11718   1.203   0.897  10.251 -0.8706 -0.2465 -0.6930
  113OSM    H5S11719   1.283   0.972  10.254 -1.7725  0.6853  1.0791
  113OSM    C6S11720   1.213   0.794  10.139 -0.3413 -0.4082 -0.8238
  113OSM    H6S11721   1.166   0.698  10.171 -1.6173  0.9065  1.3538
  113OSM    H6T11722   1.318   0.773  10.109 -1.2421 -3.5180 -2.0897
  113OSM    C7S11723   1.142   0.845  10.016  0.0048  0.5880  0.2259
  113OSM    H7S11724   1.193   0.933   9.970 -0.8071  1.0453  0.1883
  113OSM    H7T11725   1.034   0.862  10.039  0.6868  0.4457  3.7557
  113OSM    C8S11726   1.149   0.731   9.906  0.9882  0.1691 -0.3988
  113OSM    H8S11727   1.113   0.634   9.946 -0.3502  0.9101  0.2358
  113OSM    H8T11728   1.250   0.718   9.863  1.6356  0.6150  0.9814
  113OSM    C9S11729   1.054   0.763   9.788  0.2191 -0.1115 -0.6400
  113OSM    H9S11730   1.069   0.868   9.752 -3.8012  0.2344 -1.5180
  113OSM    H9T11731   0.953   0.756   9.832  0.1164 -0.0029 -0.8533
  113OSM   C10S11732   1.076   0.675   9.661  0.0746 -0.8254 -0.2203
  113OSM   H10S11733   1.080   0.566   9.681  0.8214 -0.7283  0.1787
  113OSM   H10T11734   1.180   0.699   9.630  0.5339 -1.3300  0.9098
  113OSM   C11S11735   0.983   0.702   9.542 -0.8565  0.7999  0.2603
  113OSM   H11S11736   0.977   0.813   9.535 -0.2005  0.8292  0.1510
  113OSM   H11T11737   0.875   0.676   9.551 -0.8351  1.5661  3.2355
  113OSM   C12S11738   1.054   0.663   9.415  0.2077  0.0223  0.7790
  113OSM   H12S11739   1.067   0.553   9.426  4.5004  0.3653  0.0232
  113OSM   H12T11740   1.154   0.711   9.406  0.1854 -0.3009 -1.5568
  113OSM   C13S11741   0.970   0.689   9.292  0.2367 -0.0751 -0.1257
  113OSM   H13S11742   0.962   0.799   9.274 -1.6974 -0.3162 -0.8679
  113OSM   H13T11743   0.871   0.642   9.313  0.4449 -0.6603 -0.4532
  113OSM   C14S11744   1.025   0.621   9.165 -0.3711  0.3613  0.4969
  113OSM   H14S11745   1.017   0.512   9.185 -0.3309  0.5194  1.3816
  113OSM   H14T11746   1.132   0.643   9.142 -0.3671  0.9711  1.0966
  113OSM   C15S11747   0.933   0.642   9.045  0.0543  0.1300  0.0696
  113OSM   H15S11748   0.827   0.624   9.071  0.8960 -1.9019  2.3002
  113OSM   H15T11749   0.963   0.570   8.966  1.4803 -1.1169  1.7152
  113OSM   C16S11750   0.943   0.785   8.992 -0.3142 -0.1641 -0.7510
  113OSM   H16S11751   1.044   0.802   8.949 -0.2153 -0.2670 -0.5580
  113OSM   H16T11752   0.931   0.844   9.086 -0.1456 -2.8192  0.9908
  113OSM   C17S11753   0.840   0.829   8.883 -0.1123  0.5530 -0.3901
  113OSM   H17S11754   0.735   0.814   8.916  0.2511  0.6187  0.8281
  113OSM   H17T11755   0.845   0.768   8.791  0.0475 -1.8025  1.1453
  113OSM   C18S11756   0.867   0.981   8.857 -0.0672 -0.7856  0.0414
  113OSM   H18S11757   0.790   1.017   8.784  0.2715  1.6295  0.8294
  113OSM   H18T11758   0.964   0.989   8.803 -0.9238 -2.5513 -1.8467
  113OSM   H18U11759   0.865   1.049   8.945 -1.2635 -0.0330 -0.5417
  113OSM    C1F11760   1.261   0.747  10.703 -0.6329 -0.3955 -0.6082
  113OSM     OF11761   1.156   0.711  10.758 -0.5255 -0.4804 -0.8037
  113OSM    C2F11762   1.397   0.685  10.732  0.3768  0.4164 -0.1140
  113OSM    H2F11763   1.405   0.702  10.841 -1.7026  0.2701  0.0795
  113OSM    H2G11764   1.484   0.732  10.682  1.1090 -1.0165 -0.2284
  113OSM    C3F11765   1.385   0.534  10.729 -0.0466 -0.4093 -0.2176
  113OSM    H3F11766   1.313   0.509  10.810 -1.2995  3.5012  0.0087
  113OSM    H3G11767   1.486   0.492  10.748  0.2189  0.0244 -0.6623
  113OSM    C4F11768   1.326   0.464  10.600 -0.0391  0.0227  0.4185
  113OSM    H4F11769   1.219   0.486  10.581 -0.0540  1.2734  1.8919
  113OSM    H4G11770   1.328   0.355  10.618 -2.7293 -0.0651  0.3489
  113OSM    C5F11771   1.407   0.490  10.468  0.5028  0.2328 -0.5535
  113OSM    H5F11772   1.511   0.456  10.490  0.2337  0.3648  0.9711
  113OSM    H5G11773   1.411   0.601  10.458 -1.5132  0.3745  0.1315
  113OSM    C6F11774   1.352   0.434  10.333  0.7446 -0.2381 -0.7337
  113OSM    H6F11775   1.248   0.470  10.315 -0.7263 -5.1493 -2.9544
  113OSM    H6G11776   1.347   0.325  10.351 -3.1515  0.0823  0.5771
  113OSM    C7F11777   1.439   0.481  10.216 -0.1441  0.2061 -0.4165
  113OSM    H7F11778   1.542   0.451  10.242 -0.5751 -0.7420  0.2394
  113OSM    H7G11779   1.428   0.588  10.190  0.0297 -0.1535 -2.0443
  113OSM    C8F11780   1.394   0.408  10.085  0.0435 -0.2754 -0.3683
  113OSM    H8F11781   1.469   0.439  10.009 -0.2091 -0.0672 -0.5349
  113OSM    H8G11782   1.296   0.456  10.064 -0.4831 -0.9141  0.5840
  113OSM    C9F11783   1.382   0.259  10.083  0.1313 -0.5813  0.6613
  113OSM    H9F11784   1.401   0.205  10.177  2.7614  0.1736  0.5975
  113OSM   C10F11785   1.352   0.181   9.979  0.1991 -0.0032  0.3498
  113OSM   H10F11786   1.353   0.073  10.000 -0.0589  0.0436  0.6025
  113OSM   C11F11787   1.335   0.240   9.842  0.6857  0.0256 -0.3526
  113OSM   H11F11788   1.416   0.209   9.773  1.2684 -2.3566  1.3568
  113OSM   H11G11789   1.330   0.351   9.828 -2.4152  0.1571  1.4628
  113OSM   C12F11790   1.203   0.203   9.780  0.0658 -0.4363 -0.2420
  113OSM   H12F11791   1.190   0.092   9.784 -0.9711 -0.4054 -2.2498
  113OSM   H12G11792   1.217   0.236   9.675 -1.2416  0.6507 -0.0992
  113OSM   C13F11793   1.092   0.278   9.851 -1.1891 -0.1911  0.3829
  113OSM   H13F11794   1.120   0.385   9.851 -0.4324 -0.3703 -1.3778
  113OSM   H13G11795   1.097   0.230   9.951  1.8476 -0.5805  0.1071
  113OSM   C14F11796   0.954   0.267   9.788  0.5311 -0.2144  0.8499
  113OSM   H14F11797   0.899   0.184   9.838 -0.6607  0.1553  0.1828
  113OSM   H14G11798   0.982   0.226   9.689 -2.0785 -2.5178  0.9931
  113OSM   C15F11799   0.852   0.387   9.790  0.7030 -0.0470 -0.4897
  113OSM   H15F11800   0.899   0.473   9.737 -1.2372  0.9004 -0.7092
  113OSM   H15G11801   0.838   0.422   9.895 -1.6574  2.0718 -1.4765
  113OSM   C16F11802   0.712   0.351   9.738  0.3306  0.0900 -0.1633
  113OSM   H16F11803   0.646   0.435   9.769 -1.2055 -1.4822  0.9380
  113OSM   H16G11804   0.665   0.264   9.789 -1.7536  0.0217 -2.1572
  113OSM   C17F11805   0.715   0.343   9.584  0.2041 -0.0352 -0.3823
  113OSM   H17F11806   0.797   0.272   9.559  0.7132  0.2358  0.4850
  113OSM   H17G11807   0.747   0.444   9.550 -1.1269  0.4756 -0.1549
  113OSM   C18F11808   0.592   0.280   9.525 -0.6618 -0.2556 -0.2182
  113OSM   H18F11809   0.498   0.327   9.561 -0.8528  0.0386 -1.0684
  113OSM   H18G11810   0.588   0.174   9.557  0.9947 -0.4357 -0.5650
  113OSM   H18H11811   0.592   0.284   9.414  1.5155 -0.3453 -0.2425
  114OSM      N11812   2.170   6.404  11.613  0.5239 -0.3527  0.7748
  114OSM    C1511813   2.312   6.375  11.648 -0.4075 -0.2123 -0.7089
  114OSM   H15A11814   2.357   6.440  11.722 -1.2784 -0.1609 -0.2188
  114OSM   H15B11815   2.376   6.381  11.561  2.0011  0.6478  1.0503
  114OSM   H15C11816   2.328   6.271  11.670 -0.9621 -0.6263 -2.2005
  114OSM    C1411817   2.094   6.371  11.732  0.7322  0.1308  1.0314
  114OSM   H14A11818   1.992   6.405  11.734  0.1608 -1.5502  1.8878
  114OSM   H14B11819   2.140   6.423  11.814  1.6295  0.0825  0.5627
  114OSM   H14C11820   2.092   6.264  11.749  0.0793  0.0039  0.1571
  114OSM    C1311821   2.150   6.554  11.586 -0.1910  1.2631 -0.0143
  114OSM   H13A11822   2.197   6.585  11.493  1.0570  0.2668  0.2510
  114OSM   H13B11823   2.188   6.618  11.664  2.4645 -0.7928  0.4895
  114OSM   H13C11824   2.045   6.572  11.573 -0.3347 -0.7083 -1.9167
  114OSM    C1211825   2.117   6.319  11.503  0.0639  0.1513 -0.4817
  114OSM   H12A11826   2.017   6.341  11.468  0.3330  2.1049 -0.0833
  114OSM   H12B11827   2.134   6.214  11.523 -0.7222  0.5008  2.1837
  114OSM    C1111828   2.195   6.323  11.373  0.5330 -0.6191 -0.4443
  114OSM   H11A11829   2.209   6.431  11.351 -3.3198  0.1832  0.5989
  114OSM   H11B11830   2.133   6.284  11.290 -0.9101  0.8680 -0.0887
  114OSM      P11831   2.425   6.272  11.269 -0.3065  0.4902 -0.3618
  114OSM    O1311832   2.459   6.414  11.255  0.0688 -0.2844  0.1313
  114OSM    O1411833   2.535   6.176  11.290 -0.5535 -0.5046  0.2242
  114OSM    O1111834   2.344   6.221  11.140  0.3439  0.0351 -0.0163
  114OSM    O1211835   2.318   6.253  11.387  0.3070 -0.3573 -0.2013
  114OSM    C1S11836   2.366   6.263  11.003  0.3548  0.2813  0.6522
  114OSM    H1S11837   2.472   6.274  10.970 -0.8752 -1.3798 -4.3264
  114OSM    H1T11838   2.322   6.361  10.976 -1.5331 -0.7394 -0.0370
  114OSM     NF11839   2.325   6.227  10.763 -0.1684  0.4918  0.5812
  114OSM    HNF11840   2.254   6.278  10.715 -1.9159 -0.3722  2.1511
  114OSM    C2S11841   2.286   6.174  10.900  0.3645 -0.5876 -0.6146
  114OSM    H2S11842   2.314   6.066  10.904 -1.3753 -1.1283 -2.1916
  114OSM    C3S11843   2.133   6.179  10.932 -0.3598  0.0322 -0.3457
  114OSM    H3S11844   2.103   6.286  10.937  0.4730  0.1885  1.8734
  114OSM     O311845   2.106   6.118  11.059  0.1073 -0.0246  0.0657
  114OSM    HO311846   2.196   6.096  11.085  0.3880  0.2361 -0.6737
  114OSM    C4S11847   2.046   6.106  10.829 -0.5339  0.2330 -0.9204
  114OSM    H4S11848   2.048   5.996  10.837  0.1692  0.3267  0.3360
  114OSM    C5S11849   1.970   6.154  10.724 -1.0735 -0.1640  0.0595
  114OSM    H5S11850   1.957   6.262  10.707 -0.4936 -0.1118 -0.0765
  114OSM    C6S11851   1.888   6.057  10.646  0.6319  0.4991 -0.0025
  114OSM    H6S11852   1.831   6.115  10.570  0.5628 -0.3195 -0.5848
  114OSM    H6T11853   1.809   6.008  10.707  0.0311  0.5055 -0.7691
  114OSM    C7S11854   1.977   5.956  10.574 -0.4950  0.3108  0.1323
  114OSM    H7S11855   2.044   5.892  10.636 -1.1433 -0.4769  0.0130
  114OSM    H7T11856   2.040   6.020  10.508  0.8605  1.0373  2.0803
  114OSM    C8S11857   1.894   5.867  10.480  0.1133 -0.1058 -0.6304
  114OSM    H8S11858   1.798   5.840  10.529  0.7779 -1.4675 -0.0486
  114OSM    H8T11859   1.949   5.773  10.459  1.2296  1.2672 -4.2925
  114OSM    C9S11860   1.857   5.928  10.338 -0.1152 -0.4699  0.0592
  114OSM    H9S11861   1.959   5.958  10.308 -1.0509  2.2915 -0.5087
  114OSM    H9T11862   1.793   6.018  10.351  0.6660 -0.2853  2.9414
  114OSM   C10S11863   1.775   5.840  10.242 -0.6296  0.2943 -0.8389
  114OSM   H10S11864   1.677   5.814  10.287 -2.6845  0.5001 -4.9164
  114OSM   H10T11865   1.832   5.745  10.232  0.0673  0.6906 -0.6948
  114OSM   C11S11866   1.745   5.923  10.116  0.2303 -0.7421 -0.3127
  114OSM   H11S11867   1.838   5.967  10.074 -2.2692  2.3905 -2.9352
  114OSM   H11T11868   1.679   6.008  10.145  3.2570  0.9936  1.7266
  114OSM   C12S11869   1.669   5.852  10.003 -0.0741 -0.2246  0.3501
  114OSM   H12S11870   1.577   5.808  10.047  0.4218 -1.8170 -0.1608
  114OSM   H12T11871   1.725   5.762   9.969 -1.8595 -0.8463 -1.0436
  114OSM   C13S11872   1.642   5.940   9.875 -0.3568 -0.0520 -0.9709
  114OSM   H13S11873   1.735   6.000   9.871 -0.2367 -0.1341  0.4638
  114OSM   H13T11874   1.557   6.011   9.879  0.3864  0.7702  1.0989
  114OSM   C14S11875   1.629   5.855   9.750 -0.3339 -0.0357 -0.0672
  114OSM   H14S11876   1.537   5.793   9.757  0.3355 -0.9491  0.7517
  114OSM   H14T11877   1.713   5.783   9.739 -0.9175 -0.6596 -0.5056
  114OSM   C15S11878   1.628   5.942   9.624 -0.2069  0.7926 -0.3503
  114OSM   H15S11879   1.701   6.026   9.633  0.7613  0.2677 -2.9276
  114OSM   H15T11880   1.529   5.992   9.616 -0.8643  0.5179  4.4678
  114OSM   C16S11881   1.657   5.854   9.500  0.4074 -0.3136  0.9896
  114OSM   H16S11882   1.592   5.765   9.492 -1.6572  1.1754  0.6623
  114OSM   H16T11883   1.759   5.817   9.521  2.2640  1.8771 -3.4233
  114OSM   C17S11884   1.647   5.932   9.364 -0.1766  0.7896 -0.7390
  114OSM   H17S11885   1.687   5.861   9.288 -1.7212 -0.7483 -0.1528
  114OSM   H17T11886   1.716   6.018   9.358  0.5763  0.3268  1.0905
  114OSM   C18S11887   1.502   5.983   9.332  0.4489 -0.5876 -0.2504
  114OSM   H18S11888   1.464   6.052   9.411  0.8496  1.1978 -1.5936
  114OSM   H18T11889   1.435   5.895   9.324  0.3142 -0.2308 -3.4101
  114OSM   H18U11890   1.494   6.036   9.235 -0.7013  1.4496  0.9241
  114OSM    C1F11891   2.447   6.225  10.718 -0.7719 -0.0492  0.3970
  114OSM     OF11892   2.527   6.161  10.777  0.4778  0.3182  0.0935
  114OSM    C2F11893   2.481   6.289  10.589  0.1239  0.1943  0.1266
  114OSM    H2F11894   2.585   6.327  10.587 -1.2383  4.2606  0.7419
  114OSM    H2G11895   2.417   6.379  10.575 -0.4756 -0.2028  0.2718
  114OSM    C3F11896   2.464   6.194  10.470 -0.5607  0.4309  0.6012
  114OSM    H3F11897   2.361   6.156  10.455 -0.9312  1.1462  1.3226
  114OSM    H3G11898   2.528   6.103  10.476 -0.9724  0.0561 -0.5017
  114OSM    C4F11899   2.501   6.261  10.335 -0.5729  0.3336  0.2920
  114OSM    H4F11900   2.609   6.290  10.332 -0.5165  0.0249 -0.9424
  114OSM    H4G11901   2.444   6.356  10.346 -3.6820 -1.4123 -0.5162
  114OSM    C5F11902   2.459   6.187  10.209 -0.1449 -0.0101 -0.5509
  114OSM    H5F11903   2.351   6.169  10.227  0.1514 -0.1719  1.1821
  114OSM    H5G11904   2.524   6.096  10.205  0.4623  0.4787 -2.4574
  114OSM    C6F11905   2.487   6.278  10.092 -0.0771  0.5019 -0.2184
  114OSM    H6F11906   2.595   6.303  10.083  0.1122 -0.8307 -1.8946
  114OSM    H6G11907   2.430   6.373  10.096  0.5375  0.9738 -2.2805
  114OSM    C7F11908   2.457   6.218   9.950  0.0738 -0.3569 -0.0190
  114OSM    H7F11909   2.347   6.202   9.941 -0.3165  2.2307 -0.2329
  114OSM    H7G11910   2.505   6.118   9.954 -0.7102 -0.7080  0.7181
  114OSM    C8F11911   2.514   6.311   9.840  0.1230 -0.0953  0.3355
  114OSM    H8F11912   2.617   6.328   9.877 -0.2967 -1.3613  2.1507
  114OSM    H8G11913   2.452   6.403   9.839 -1.8670 -1.3905 -1.6155
  114OSM    C9F11914   2.491   6.261   9.699 -0.1360  0.0183  0.1477
  114OSM    H9F11915   2.393   6.211   9.691  1.3626 -3.2525  1.1066
  114OSM   C10F11916   2.567   6.273   9.589 -0.2856 -0.0768  0.0023
  114OSM   H10F11917   2.534   6.223   9.496 -1.7862  0.0379  0.4631
  114OSM   C11F11918   2.706   6.335   9.598 -0.2856  0.4281 -0.6051
  114OSM   H11F11919   2.772   6.249   9.626 -3.2219 -2.0648 -1.0367
  114OSM   H11G11920   2.716   6.401   9.687 -0.8787  0.7773 -0.8013
  114OSM   C12F11921   2.746   6.417   9.471 -0.0744 -0.1528 -0.5092
  114OSM   H12F11922   2.847   6.463   9.484  0.1415 -0.3240 -1.5832
  114OSM   H12G11923   2.668   6.496   9.475 -1.5781 -1.4573 -3.1793
  114OSM   C13F11924   2.732   6.342   9.342 -0.2745  0.8484  0.2423
  114OSM   H13F11925   2.630   6.305   9.320  0.5044 -0.3302 -1.5313
  114OSM   H13G11926   2.799   6.253   9.337  0.6946  1.5445  0.5361
  114OSM   C14F11927   2.774   6.432   9.224 -0.6826 -0.1135  0.4151
  114OSM   H14F11928   2.861   6.496   9.246 -0.1871 -0.7229  0.2564
  114OSM   H14G11929   2.684   6.493   9.201 -1.5456 -0.0107  3.7745
  114OSM   C15F11930   2.820   6.355   9.091 -0.0270 -0.3898  0.1840
  114OSM   H15F11931   2.748   6.278   9.057 -0.8369  1.3750 -2.1828
  114OSM   H15G11932   2.912   6.303   9.124 -0.4112 -0.1630  1.6627
  114OSM   C16F11933   2.851   6.450   8.972 -0.7308  0.3653  0.0152
  114OSM   H16F11934   2.911   6.532   9.016 -0.4102 -0.3733  0.9679
  114OSM   H16G11935   2.763   6.501   8.927 -0.7751 -1.1122 -1.6123
  114OSM   C17F11936   2.917   6.392   8.845  0.7849 -0.2192 -0.6336
  114OSM   H17F11937   2.848   6.317   8.801  0.9554 -1.4403  1.1311
  114OSM   H17G11938   3.000   6.325   8.879 -0.2401 -2.1407 -1.7929
  114OSM   C18F11939   2.965   6.500   8.744 -0.0867  0.3934  0.0759
  114OSM   H18F11940   2.885   6.570   8.713  0.2173  0.2375 -1.0880
  114OSM   H18G11941   2.979   6.441   8.650 -4.6551  0.6233 -0.8353
  114OSM   H18H11942   3.063   6.547   8.769  0.4538 -0.0797 -1.0942
  115OSM      N11943   2.558   3.628   6.232 -0.4335 -0.0539  0.2902
  115OSM    C1511944   2.416   3.610   6.273  0.2721 -0.1572  0.2806
  115OSM   H15A11945   2.396   3.504   6.284 -0.2119 -0.0667  0.2780
  115OSM   H15B11946   2.335   3.645   6.212 -1.0049 -1.9271  0.9221
  115OSM   H15C11947   2.397   3.658   6.368 -2.1331  0.1351 -0.3104
  115OSM    C1411948   2.573   3.550   6.104  0.5822 -0.6188  0.7305
  115OSM   H14A11949   2.569   3.444   6.123 -0.3786 -0.9834 -1.3552
  115OSM   H14B11950   2.671   3.573   6.065  0.5269 -1.7089 -0.0783
  115OSM   H14C11951   2.500   3.579   6.030  0.4704  0.6131  1.3120
  115OSM    C1311952   2.573   3.772   6.207  0.2237  0.1514  0.5972
  115OSM   H13A11953   2.678   3.799   6.207  0.3905 -0.4633  1.2117
  115OSM   H13B11954   2.524   3.840   6.276 -0.1314 -1.3935  1.8983
  115OSM   H13C11955   2.533   3.796   6.110 -1.9658  3.1992  2.1496
  115OSM    C1211956   2.642   3.582   6.352 -0.0413  0.0175  0.8588
  115OSM   H12A11957   2.599   3.629   6.439  0.2187  3.8509 -0.9812
  115OSM   H12B11958   2.737   3.627   6.328 -0.3385 -0.2313 -0.9031
  115OSM    C1111959   2.670   3.434   6.383 -0.0267  0.4831 -0.5083
  115OSM   H11A11960   2.589   3.359   6.396  0.3384  0.3890  1.3413
  115OSM   H11B11961   2.722   3.436   6.481  0.6722  2.9623 -0.8801
  115OSM      P11962   2.903   3.429   6.249  0.1672 -0.2710  0.2750
  115OSM    O1311963   2.965   3.346   6.143 -0.2380  0.0061  0.0889
  115OSM    O1411964   2.899   3.573   6.227 -0.5809  0.1967 -0.0588
  115OSM    O1111965   2.969   3.408   6.393  0.3872 -0.5838 -0.7824
  115OSM    O1211966   2.752   3.388   6.275 -0.5471  0.3191 -0.7090
  115OSM    C1S11967   2.965   3.279   6.458 -0.3429 -1.1079  0.4004
  115OSM    H1S11968   3.014   3.202   6.395  0.2247 -0.7880  0.4478
  115OSM    H1T11969   2.859   3.246   6.472  0.3384 -3.8325 -0.5283
  115OSM     NF11970   3.042   3.152   6.651 -0.3660 -0.2547 -0.0107
  115OSM    HNF11971   2.990   3.140   6.735  0.0054  1.7438  0.5419
  115OSM    C2S11972   3.025   3.289   6.600 -0.3699  0.7285  0.5709
  115OSM    H2S11973   3.127   3.330   6.589  0.0578 -1.0383 -2.4677
  115OSM    C3S11974   2.949   3.389   6.696  0.0373 -0.0118  0.9928
  115OSM    H3S11975   2.849   3.343   6.712 -0.4404  0.2637 -1.1279
  115OSM     O311976   2.927   3.519   6.642 -0.3390  0.2140 -0.2173
  115OSM    HO311977   2.933   3.509   6.547  1.1531  0.0328 -0.1113
  115OSM    C4S11978   3.033   3.392   6.817 -0.8904  0.6422 -0.3730
  115OSM    H4S11979   3.006   3.319   6.896 -2.1187  1.1209 -0.3323
  115OSM    C5S11980   3.123   3.491   6.850 -0.4674  0.4475  0.3967
  115OSM    H5S11981   3.141   3.572   6.778  0.1230 -1.8682 -2.1519
  115OSM    C6S11982   3.210   3.496   6.973 -0.2160  0.1485  0.0556
  115OSM    H6S11983   3.263   3.594   6.979 -2.6696  1.8075 -3.3470
  115OSM    H6T11984   3.288   3.420   6.948  1.7394  2.1530 -0.1208
  115OSM    C7S11985   3.139   3.462   7.098 -0.0148  0.1558 -0.2160
  115OSM    H7S11986   3.117   3.354   7.108  1.0905  0.2175  3.9878
  115OSM    H7T11987   3.040   3.511   7.102 -1.9457 -3.6316  0.1429
  115OSM    C8S11988   3.225   3.506   7.216  0.2274 -0.3702 -0.6249
  115OSM    H8S11989   3.235   3.617   7.213  0.8983 -0.3955  0.6534
  115OSM    H8T11990   3.330   3.469   7.226  0.3825  0.4082  0.7455
  115OSM    C9S11991   3.155   3.465   7.341 -0.2716  0.1598  0.1690
  115OSM    H9S11992   3.126   3.358   7.349 -1.2979  0.4018 -0.3207
  115OSM    H9T11993   3.065   3.526   7.361  0.3475  0.8140  1.0008
  115OSM   C10S11994   3.250   3.497   7.457 -0.1026  0.7612 -0.3911
  115OSM   H10S11995   3.272   3.606   7.460 -0.0358  0.7217  1.0968
  115OSM   H10T11996   3.347   3.445   7.440  2.0412  3.5860  2.6541
  115OSM   C11S11997   3.197   3.449   7.587  0.0134  0.4939 -0.2544
  115OSM   H11S11998   3.185   3.340   7.573  0.5548  0.6640 -2.2101
  115OSM   H11T11999   3.099   3.495   7.610 -1.1304 -1.0828 -1.8740
  115OSM   C12S12000   3.286   3.492   7.703 -0.2048  0.3574 -0.1184
  115OSM   H12S12001   3.322   3.596   7.688 -1.0154  0.5030 -1.1414
  115OSM   H12T12002   3.370   3.419   7.707 -1.0136 -0.6603 -1.2205
  115OSM   C13S12003   3.198   3.474   7.831  0.1141  0.7015 -0.2201
  115OSM   H13S12004   3.150   3.376   7.851  0.3976  0.6686  0.2894
  115OSM   H13T12005   3.111   3.542   7.822  0.8950  1.7657  0.1812
  115OSM   C14S12006   3.275   3.515   7.968  0.5780 -0.8080 -0.1653
  115OSM   H14S12007   3.300   3.623   7.964  2.1698 -1.1846 -0.8338
  115OSM   H14T12008   3.373   3.463   7.975  2.0088  1.8561  0.4363
  115OSM   C15S12009   3.197   3.476   8.097 -0.4206  0.2247  0.3288
  115OSM   H15S12010   3.151   3.376   8.078  1.3503 -0.2652 -1.6143
  115OSM   H15T12011   3.116   3.552   8.102  0.7080  1.5970 -1.5314
  115OSM   C16S12012   3.300   3.473   8.212  0.5483  0.6652  0.4124
  115OSM   H16S12013   3.356   3.569   8.219  2.2086 -0.1905 -0.7611
  115OSM   H16T12014   3.386   3.408   8.183  0.6923  0.7994  0.5361
  115OSM   C17S12015   3.246   3.428   8.347  0.0138  0.1655 -0.3478
  115OSM   H17S12016   3.201   3.327   8.337  0.2943  0.1044 -1.0401
  115OSM   H17T12017   3.175   3.505   8.382  0.6620 -0.3198  2.1827
  115OSM   C18S12018   3.359   3.415   8.448  0.3446  0.2464  0.8941
  115OSM   H18S12019   3.448   3.367   8.403 -0.4842  0.4960 -1.1004
  115OSM   H18T12020   3.325   3.349   8.530 -1.2976 -0.7366 -0.5351
  115OSM   H18U12021   3.369   3.516   8.493 -0.5897  0.9641 -0.4605
  115OSM    C1F12022   3.133   3.060   6.617 -0.1460  1.0782 -0.5819
  115OSM     OF12023   3.203   3.073   6.517 -0.0736  0.3715 -0.2367
  115OSM    C2F12024   3.162   2.938   6.695 -0.0321 -0.5698  0.3797
  115OSM    H2F12025   3.168   2.860   6.616 -2.2115 -1.3584  0.9604
  115OSM    H2G12026   3.074   2.928   6.762 -0.8293 -0.3592 -0.6398
  115OSM    C3F12027   3.298   2.957   6.769 -0.0599  1.0796 -0.8722
  115OSM    H3F12028   3.362   3.004   6.691 -0.9963 -0.6045 -2.7047
  115OSM    H3G12029   3.340   2.858   6.797 -2.0492  0.3158 -0.4992
  115OSM    C4F12030   3.299   3.053   6.886  0.1641 -0.0214 -0.1014
  115OSM    H4F12031   3.264   3.156   6.863 -3.4538 -1.2094 -0.2394
  115OSM    H4G12032   3.403   3.083   6.912 -0.0634 -0.8530  1.8349
  115OSM    C5F12033   3.224   2.987   7.006 -0.2753  0.1754 -0.1740
  115OSM    H5F12034   3.268   2.888   7.029  0.8675  1.2405  2.4903
  115OSM    H5G12035   3.118   2.969   6.979 -0.4058  1.4478 -0.5490
  115OSM    C6F12036   3.235   3.079   7.136  0.5320  0.1878  0.2374
  115OSM    H6F12037   3.135   3.069   7.183 -0.4598 -2.5822 -2.3454
  115OSM    H6G12038   3.242   3.182   7.095  0.1016  0.0456 -0.1913
  115OSM    C7F12039   3.358   3.044   7.215  0.3069  0.0444 -0.6900
  115OSM    H7F12040   3.386   3.130   7.279 -0.3622 -0.7550  0.7178
  115OSM    H7G12041   3.444   3.031   7.146 -0.7178 -0.6584 -1.8638
  115OSM    C8F12042   3.355   2.914   7.304  0.3628 -0.2480 -0.4211
  115OSM    H8F12043   3.462   2.901   7.333  1.0486  2.5609 -1.5119
  115OSM    H8G12044   3.324   2.827   7.241  1.3715 -0.6653 -0.3505
  115OSM    C9F12045   3.260   2.918   7.412  0.4352 -0.2455 -0.4378
  115OSM    H9F12046   3.160   2.885   7.381  1.1257 -1.3116 -1.5434
  115OSM   C10F12047   3.285   2.913   7.548 -0.1162 -0.6311 -0.6083
  115OSM   H10F12048   3.201   2.899   7.618 -0.5105  1.7898 -0.5441
  115OSM   C11F12049   3.424   2.916   7.607  0.3540 -0.3302 -0.5123
  115OSM   H11F12050   3.500   2.952   7.534  2.1698 -1.6196  0.7037
  115OSM   H11G12051   3.468   2.821   7.643  3.5803  1.7127  1.1732
  115OSM   C12F12052   3.430   3.000   7.738  0.6336  0.1379  0.1555
  115OSM   H12F12053   3.399   3.104   7.714 -1.4003  0.2972  3.1585
  115OSM   H12G12054   3.533   3.007   7.778 -0.0162  0.8574  1.7257
  115OSM   C13F12055   3.338   2.944   7.858 -0.2942 -0.0184  1.0460
  115OSM   H13F12056   3.376   2.842   7.879  1.6829  0.5235  0.1572
  115OSM   H13G12057   3.235   2.936   7.817 -0.8322  3.4397  1.5635
  115OSM   C14F12058   3.351   3.032   7.985 -0.1497 -0.0259  0.2995
  115OSM   H14F12059   3.315   3.134   7.959 -2.0106 -0.5883  0.6161
  115OSM   H14G12060   3.458   3.039   8.014 -0.5265  2.0486  1.2597
  115OSM   C15F12061   3.267   2.989   8.107 -0.1754 -0.3353  0.1681
  115OSM   H15F12062   3.315   2.896   8.146 -0.6328 -0.0840  1.3662
  115OSM   H15G12063   3.163   2.961   8.078 -0.2035 -0.9998  0.8748
  115OSM   C16F12064   3.270   3.086   8.223  0.9343 -0.2181 -1.0881
  115OSM   H16F12065   3.205   3.176   8.223  0.4202 -0.5877 -1.4652
  115OSM   H16G12066   3.372   3.130   8.226  0.7366  0.1773  0.7663
  115OSM   C17F12067   3.246   3.025   8.361  0.3750 -0.4172 -0.0491
  115OSM   H17F12068   3.316   3.056   8.441 -0.8083  1.6790  0.1923
  115OSM   H17G12069   3.253   2.914   8.353  2.1959 -0.2215 -1.4350
  115OSM   C18F12070   3.102   3.061   8.408  0.4887 -0.1137 -0.4157
  115OSM   H18F12071   3.077   3.021   8.509  0.9174 -0.3541 -0.4010
  115OSM   H18G12072   3.037   3.039   8.321  3.3640 -2.0364 -2.1701
  115OSM   H18H12073   3.096   3.169   8.432 -0.3191 -0.1323 -0.5352
  116OSM      N12074   2.137   0.813   5.942 -0.3208  0.0073  0.5470
  116OSM    C1512075   2.278   0.818   5.991 -0.2165 -0.3024  0.1434
  116OSM   H15A12076   2.283   0.781   6.093 -1.5986 -0.3988  0.1793
  116OSM   H15B12077   2.327   0.913   5.981 -2.0881  0.5435 -1.2326
  116OSM   H15C12078   2.344   0.755   5.932  0.9757  0.6119  0.4835
  116OSM    C1412079   2.151   0.876   5.806 -0.1932 -0.2287 -0.4033
  116OSM   H14A12080   2.059   0.884   5.751 -0.3511  4.1792  0.3149
  116OSM   H14B12081   2.220   0.817   5.748  1.2730 -0.4052  1.4465
  116OSM   H14C12082   2.194   0.975   5.813  0.2171 -0.5415  1.8924
  116OSM    C1312083   2.093   0.674   5.939 -0.1324  0.1513 -0.1047
  116OSM   H13A12084   1.993   0.673   5.900  0.2246  0.3623 -1.0442
  116OSM   H13B12085   2.081   0.635   6.039 -2.3597 -0.4392 -0.5808
  116OSM   H13C12086   2.158   0.611   5.880 -0.1260  0.7917 -0.7964
  116OSM    C1212087   2.047   0.894   6.026 -0.2121 -0.4474  0.4927
  116OSM   H12A12088   1.954   0.909   5.973 -1.8764 -0.6847  3.2285
  116OSM   H12B12089   2.094   0.990   6.045  1.9529 -1.3236 -0.3234
  116OSM    C1112090   2.017   0.840   6.167 -0.5392 -0.8138 -0.4512
  116OSM   H11A12091   1.966   0.920   6.225  2.1475 -0.2584  1.2140
  116OSM   H11B12092   2.112   0.813   6.218 -1.2999 -0.8413  0.9646
  116OSM      P12093   1.791   0.705   6.156  0.2662 -0.2649 -0.2666
  116OSM    O1312094   1.738   0.816   6.075  0.6558  0.0925 -0.2016
  116OSM    O1412095   1.769   0.567   6.101  0.2825  0.3241 -0.3433
  116OSM    O1112096   1.727   0.729   6.301 -0.1281 -0.2134 -0.3195
  116OSM    O1212097   1.945   0.722   6.184  0.0241 -0.5569  0.0385
  116OSM    C1S12098   1.793   0.677   6.416 -0.2399  0.3262 -0.2420
  116OSM    H1S12099   1.903   0.693   6.419 -0.1291 -0.6137  1.5508
  116OSM    H1T12100   1.780   0.568   6.429 -2.0867  0.6530  0.9554
  116OSM     NF12101   1.787   0.694   6.658  0.0542  0.2470 -0.1169
  116OSM    HNF12102   1.744   0.624   6.714 -2.6799  1.4279 -0.6622
  116OSM    C2S12103   1.722   0.742   6.539  0.2694 -0.5387  0.2613
  116OSM    H2S12104   1.744   0.851   6.539 -1.7900 -0.1011  1.6518
  116OSM    C3S12105   1.566   0.725   6.539 -0.9672  0.4428  0.7485
  116OSM    H3S12106   1.546   0.618   6.516  0.1751  0.5160 -0.6697
  116OSM     O312107   1.502   0.811   6.445  0.5049 -0.1779 -0.7319
  116OSM    HO312108   1.572   0.823   6.381  0.8414  2.0560 -0.0044
  116OSM    C4S12109   1.504   0.745   6.671 -0.0782  0.0485 -0.1135
  116OSM    H4S12110   1.495   0.652   6.730  1.7238 -0.8251 -1.1654
  116OSM    C5S12111   1.481   0.857   6.738 -0.6353 -1.3053 -0.8688
  116OSM    H5S12112   1.522   0.951   6.698  0.2001 -1.4131 -0.2792
  116OSM    C6S12113   1.432   0.871   6.885  0.9260 -0.0726  0.8715
  116OSM    H6S12114   1.340   0.934   6.889  1.0485  0.1221  0.6063
  116OSM    H6T12115   1.506   0.931   6.942  1.4191 -0.3472  0.5211
  116OSM    C7S12116   1.406   0.740   6.965 -0.2378 -0.2417 -0.6132
  116OSM    H7S12117   1.491   0.668   6.958 -1.5267 -1.6167 -2.8597
  116OSM    H7T12118   1.319   0.695   6.912 -0.5510  1.1317 -1.2734
  116OSM    C8S12119   1.374   0.761   7.108 -0.5154  0.0712 -0.7343
  116OSM    H8S12120   1.457   0.810   7.163  0.1505 -1.2211 -0.5864
  116OSM    H8T12121   1.352   0.657   7.142 -2.8135  0.8396  0.2553
  116OSM    C9S12122   1.249   0.852   7.136  0.0070 -0.4137 -0.4479
  116OSM    H9S12123   1.162   0.830   7.070 -0.4519 -1.4193  0.4666
  116OSM    H9T12124   1.265   0.961   7.127 -4.0786  0.4638  1.5226
  116OSM   C10S12125   1.186   0.831   7.278 -0.9622  0.3887 -0.2167
  116OSM   H10S12126   1.148   0.727   7.274 -0.3070  0.1980 -1.4886
  116OSM   H10T12127   1.101   0.900   7.297 -0.8913  0.1906  0.8929
  116OSM   C11S12128   1.290   0.856   7.396 -0.0784 -0.1483  0.0999
  116OSM   H11S12129   1.328   0.961   7.402 -0.3737 -0.0396  0.1108
  116OSM   H11T12130   1.377   0.788   7.387 -0.5309 -0.8044  0.6052
  116OSM   C12S12131   1.215   0.838   7.526  0.1052  0.2043  0.1078
  116OSM   H12S12132   1.147   0.753   7.505  0.9637 -0.7664  1.1327
  116OSM   H12T12133   1.158   0.932   7.543  0.9674  0.8185 -0.3336
  116OSM   C13S12134   1.315   0.814   7.645  0.0061 -0.2659 -0.0436
  116OSM   H13S12135   1.392   0.893   7.640  1.1129 -1.0032  3.4679
  116OSM   H13T12136   1.376   0.721   7.639  3.2006  1.8734 -1.4501
  116OSM   C14S12137   1.253   0.808   7.783  0.0109 -0.3512 -0.1900
  116OSM   H14S12138   1.175   0.728   7.774 -0.6272  0.3735 -1.2307
  116OSM   H14T12139   1.197   0.902   7.799  0.1470 -0.3554  0.3199
  116OSM   C15S12140   1.347   0.782   7.899 -0.6909 -0.2533 -0.3311
  116OSM   H15S12141   1.424   0.862   7.887 -0.5112 -0.1607  1.3973
  116OSM   H15T12142   1.400   0.685   7.882  1.3851  0.7175  0.4646
  116OSM   C16S12143   1.294   0.800   8.036  0.3092 -0.1994 -0.3668
  116OSM   H16S12144   1.209   0.737   8.069  0.4462  0.2428  0.8496
  116OSM   H16T12145   1.255   0.904   8.039 -0.2326 -0.4007 -0.4773
  116OSM   C17S12146   1.402   0.787   8.146  0.5580  0.5500 -0.4985
  116OSM   H17S12147   1.475   0.869   8.131 -1.4025  1.9906 -2.4152
  116OSM   H17T12148   1.451   0.690   8.125 -0.3268  0.3862 -1.8832
  116OSM   C18S12149   1.341   0.794   8.285 -0.2992  0.1666 -0.3561
  116OSM   H18S12150   1.283   0.888   8.295  1.0671  1.1335 -1.5053
  116OSM   H18T12151   1.420   0.803   8.363 -1.6422 -1.3657  1.2202
  116OSM   H18U12152   1.274   0.710   8.316  0.3728 -0.4736 -0.6106
  116OSM    C1F12153   1.914   0.720   6.684 -0.8355 -0.2455  0.4619
  116OSM     OF12154   1.983   0.784   6.608 -0.0186 -0.7274  0.2914
  116OSM    C2F12155   1.972   0.671   6.808  0.4992 -0.2215 -0.2387
  116OSM    H2F12156   1.982   0.560   6.798  1.0658 -0.2951  0.9825
  116OSM    H2G12157   1.904   0.698   6.892 -2.4647  2.5715 -3.4019
  116OSM    C3F12158   2.118   0.721   6.838 -0.1839  0.5755  0.1865
  116OSM    H3F12159   2.128   0.828   6.807 -2.2367  1.1336  1.3394
  116OSM    H3G12160   2.199   0.673   6.778 -1.1490  0.4948 -1.0743
  116OSM    C4F12161   2.156   0.698   6.984 -0.1358  0.5342 -0.4805
  116OSM    H4F12162   2.167   0.589   7.000  0.8054  0.4439 -1.7213
  116OSM    H4G12163   2.081   0.738   7.056  0.8705 -0.5897  1.2571
  116OSM    C5F12164   2.295   0.756   7.020  0.6856  0.5434  0.0134
  116OSM    H5F12165   2.286   0.867   7.017  1.9974  0.6806  0.8158
  116OSM    H5G12166   2.361   0.724   6.936 -1.4300  1.5213 -2.0876
  116OSM    C6F12167   2.353   0.705   7.150 -0.2187 -0.2516  0.5258
  116OSM    H6F12168   2.459   0.732   7.167 -1.4527  2.2096  4.9596
  116OSM    H6G12169   2.346   0.595   7.162 -0.8556 -0.5291 -2.1160
  116OSM    C7F12170   2.282   0.763   7.281  0.0502  0.6050 -0.8003
  116OSM    H7F12171   2.176   0.782   7.255 -0.0571 -0.6859 -1.3501
  116OSM    H7G12172   2.333   0.851   7.325  0.6168 -0.1086 -0.0188
  116OSM    C8F12173   2.296   0.665   7.400  1.0483 -0.1860  0.2609
  116OSM    H8F12174   2.226   0.580   7.381  0.9674 -0.1348  0.3302
  116OSM    H8G12175   2.260   0.711   7.495 -2.6570 -2.0070 -0.1526
  116OSM    C9F12176   2.440   0.624   7.411 -0.7826  0.3927  0.7379
  116OSM    H9F12177   2.471   0.529   7.366  1.3258  0.3489  2.1750
  116OSM   C10F12178   2.521   0.668   7.513 -0.5192  0.2363  0.8256
  116OSM   H10F12179   2.616   0.613   7.518 -0.6374 -0.6028 -3.7879
  116OSM   C11F12180   2.494   0.781   7.623 -0.5507  0.5903  0.7041
  116OSM   H11F12181   2.406   0.841   7.590 -0.5192  0.5750  0.5921
  116OSM   H11G12182   2.584   0.846   7.622  1.3987 -2.0050  1.2120
  116OSM   C12F12183   2.477   0.733   7.772 -0.0516 -0.0915 -0.6403
  116OSM   H12F12184   2.402   0.651   7.782 -0.4216  0.3719  0.3953
  116OSM   H12G12185   2.427   0.818   7.823 -0.5477 -1.4811  1.2424
  116OSM   C13F12186   2.606   0.696   7.846  0.7920  0.6161  0.4401
  116OSM   H13F12187   2.668   0.788   7.852 -0.4671  1.6805 -2.0142
  116OSM   H13G12188   2.658   0.610   7.800  0.2363 -1.1131  2.9528
  116OSM   C14F12189   2.573   0.648   7.992 -0.2045  0.2149 -0.2754
  116OSM   H14F12190   2.538   0.542   7.997 -0.6735  0.4735  3.4496
  116OSM   H14G12191   2.498   0.719   8.032 -1.4590 -2.1480  1.7121
  116OSM   C15F12192   2.684   0.656   8.088 -0.3736  0.4103  0.2230
  116OSM   H15F12193   2.726   0.759   8.081 -0.6552  0.8174  3.7045
  116OSM   H15G12194   2.759   0.581   8.053  0.1099  1.2365 -0.5292
  116OSM   C16F12195   2.643   0.624   8.227  0.3176 -0.0275 -0.0669
  116OSM   H16F12196   2.609   0.518   8.236  0.9094 -0.1797  0.4623
  116OSM   H16G12197   2.558   0.690   8.254 -0.5750 -1.5452  0.9443
  116OSM   C17F12198   2.743   0.666   8.334  0.3494  0.5256 -0.4449
  116OSM   H17F12199   2.773   0.771   8.314 -0.0841  0.4206 -1.6811
  116OSM   H17G12200   2.832   0.603   8.316  0.9162  1.5139 -1.1708
  116OSM   C18F12201   2.696   0.661   8.473  0.2148 -1.4730 -0.0635
  116OSM   H18F12202   2.780   0.688   8.540 -0.0102 -2.1452  0.4889
  116OSM   H18G12203   2.662   0.560   8.505 -0.4763 -1.2275 -0.0245
  116OSM   H18H12204   2.607   0.725   8.488  0.5950 -0.9617  0.0292
  117OSM      N12205   0.188   3.864   6.201  0.0490 -0.5144  0.0816
  117OSM    C1512206   0.091   3.854   6.083  0.0491 -0.9728  0.3639
  117OSM   H15A12207   0.009   3.787   6.103 -0.5197  0.1265  1.7760
  117OSM   H15B12208   0.142   3.827   5.992  0.2045  3.1711 -0.8708
  117OSM   H15C12209   0.047   3.949   6.057 -0.8446 -1.7254 -0.9238
  117OSM    C1412210   0.302   3.952   6.166 -0.5682 -0.2953 -0.2120
  117OSM   H14A12211   0.366   3.953   6.253 -2.9920 -1.2186  1.6272
  117OSM   H14B12212   0.278   4.053   6.138  1.0896 -0.0904 -0.9421
  117OSM   H14C12213   0.355   3.902   6.086 -0.3554  2.8389 -2.1007
  117OSM    C1312214   0.130   3.935   6.321  0.0618  0.4656  0.4434
  117OSM   H13A12215   0.031   3.896   6.342 -0.0316  0.9658  0.9401
  117OSM   H13B12216   0.111   4.041   6.315 -0.6343  0.4256  1.6163
  117OSM   H13C12217   0.188   3.923   6.411 -3.0497  0.3383  2.5176
  117OSM    C1212218   0.243   3.730   6.235 -0.2641  0.5527  0.4922
  117OSM   H12A12219   0.273   3.688   6.140  1.5308  2.5563  0.1336
  117OSM   H12B12220   0.169   3.669   6.284  0.8728 -1.9173 -0.7567
  117OSM    C1112221   0.370   3.727   6.329 -0.2974  0.4412 -0.5658
  117OSM   H11A12222   0.365   3.629   6.381  0.5040 -0.3395 -1.9269
  117OSM   H11B12223   0.366   3.810   6.402  0.2662  0.1279 -0.1764
  117OSM      P12224   0.606   3.650   6.257  0.0921 -0.0020  0.2592
  117OSM    O1312225   0.599   3.548   6.152  0.0730  0.8609  0.0195
  117OSM    O1412226   0.727   3.737   6.274 -0.0762 -0.0734 -0.0758
  117OSM    O1112227   0.585   3.584   6.398 -0.6227 -0.5945  0.1258
  117OSM    O1212228   0.478   3.744   6.248  0.7396 -0.4660  0.0450
  117OSM    C1S12229   0.570   3.448   6.422  0.1390  1.2906  0.1670
  117OSM    H1S12230   0.635   3.381   6.362 -1.5291 -0.2607  0.0358
  117OSM    H1T12231   0.466   3.420   6.394 -0.5881  1.8650  2.2768
  117OSM     NF12232   0.579   3.257   6.597  0.2558  0.1105  0.2251
  117OSM    HNF12233   0.488   3.219   6.612 -0.2556  1.9861  2.0733
  117OSM    C2S12234   0.592   3.409   6.576  0.1808  0.2827  0.6962
  117OSM    H2S12235   0.696   3.437   6.603  0.0806  0.0599  1.3232
  117OSM    C3S12236   0.494   3.492   6.660 -0.3236  0.1346 -0.0488
  117OSM    H3S12237   0.391   3.459   6.635 -1.2604  0.2833  3.4422
  117OSM     O312238   0.497   3.630   6.637 -0.1701 -0.5036  0.3314
  117OSM    HO312239   0.510   3.637   6.542  2.2448 -0.2298  0.6395
  117OSM    C4S12240   0.513   3.471   6.814  0.0735  0.8038  0.1666
  117OSM    H4S12241   0.601   3.530   6.846 -1.0433  2.7112 -0.1965
  117OSM    C5S12242   0.432   3.398   6.895  0.6836 -0.0194  0.4669
  117OSM    H5S12243   0.360   3.331   6.844  2.5355 -1.9074  0.2870
  117OSM    C6S12244   0.444   3.401   7.043 -0.3974 -0.4427  0.0720
  117OSM    H6S12245   0.359   3.453   7.091  0.9027  0.1335  1.7962
  117OSM    H6T12246   0.535   3.461   7.068  0.8124 -1.8860 -0.7405
  117OSM    C7S12247   0.465   3.260   7.105  0.4345 -0.9680  0.5515
  117OSM    H7S12248   0.574   3.239   7.095  1.0947  2.0552  0.7813
  117OSM    H7T12249   0.405   3.185   7.050 -0.7253  1.6358 -1.8296
  117OSM    C8S12250   0.428   3.250   7.259 -0.0368  0.1808  0.2198
  117OSM    H8S12251   0.442   3.145   7.292 -0.2216  0.1786  0.2919
  117OSM    H8T12252   0.325   3.286   7.281  0.2145  0.0514  1.6409
  117OSM    C9S12253   0.532   3.330   7.342  0.4083  0.1631 -0.1173
  117OSM    H9S12254   0.527   3.438   7.317  2.5268  0.9456  2.4749
  117OSM    H9T12255   0.636   3.301   7.315  0.6649  1.9933 -1.1649
  117OSM   C10S12256   0.520   3.321   7.496  0.3104  0.3904 -0.1078
  117OSM   H10S12257   0.595   3.396   7.528  2.0503 -1.3098 -0.1363
  117OSM   H10T12258   0.536   3.218   7.533 -2.2027 -0.6321 -1.7251
  117OSM   C11S12259   0.387   3.363   7.549  0.4945  0.2069  0.0019
  117OSM   H11S12260   0.306   3.287   7.544  0.4296  0.2532  0.3523
  117OSM   H11T12261   0.354   3.455   7.495 -0.7265  0.0393  0.4312
  117OSM   C12S12262   0.387   3.407   7.694  0.8308 -0.5720 -0.4823
  117OSM   H12S12263   0.300   3.476   7.705 -1.0968 -2.7414 -1.4821
  117OSM   H12T12264   0.477   3.466   7.721 -1.0008  1.3875  1.5345
  117OSM   C13S12265   0.390   3.286   7.789  0.7943 -0.1381 -0.3558
  117OSM   H13S12266   0.487   3.237   7.766  0.9235 -0.4408  0.7945
  117OSM   H13T12267   0.309   3.213   7.765 -0.9003  2.3375 -2.3739
  117OSM   C14S12268   0.367   3.332   7.931 -0.5101  0.7061  0.5092
  117OSM   H14S12269   0.278   3.398   7.935 -0.1239  1.2641 -0.1518
  117OSM   H14T12270   0.452   3.402   7.948  0.5154 -1.0209  2.7013
  117OSM   C15S12271   0.362   3.225   8.040 -0.0705 -0.0736  0.2315
  117OSM   H15S12272   0.438   3.145   8.032 -0.4705 -0.4350 -0.0243
  117OSM   H15T12273   0.263   3.176   8.032  0.5199 -1.5401  1.7393
  117OSM   C16S12274   0.366   3.287   8.174 -0.4887  0.2384 -0.2914
  117OSM   H16S12275   0.451   3.360   8.176 -0.4388  0.1839 -0.4141
  117OSM   H16T12276   0.389   3.216   8.256  0.5262 -0.5182 -1.2103
  117OSM   C17S12277   0.230   3.350   8.220  0.3889  0.5800  0.1564
  117OSM   H17S12278   0.187   3.428   8.154 -0.1547 -0.2754 -0.5031
  117OSM   H17T12279   0.242   3.393   8.322 -0.9058 -0.0697  0.5848
  117OSM   C18S12280   0.113   3.255   8.227 -0.3971  0.2048 -0.6868
  117OSM   H18S12281   0.093   3.220   8.124  0.0495  0.3183 -0.8156
  117OSM   H18T12282   0.025   3.311   8.265 -0.3799  0.2153 -0.6614
  117OSM   H18U12283   0.139   3.159   8.277  1.7942  1.2198  0.2240
  117OSM    C1F12284   0.674   3.185   6.545  0.7500  0.2457 -0.0777
  117OSM     OF12285   0.779   3.239   6.502 -0.2041 -0.2784  0.2454
  117OSM    C2F12286   0.659   3.039   6.551 -0.2117  0.2707  0.3466
  117OSM    H2F12287   0.630   3.010   6.447  0.2924  0.8431  0.0409
  117OSM    H2G12288   0.572   3.016   6.615  0.1082  0.3635  0.8210
  117OSM    C3F12289   0.782   2.963   6.598 -0.4374 -0.1657 -0.3226
  117OSM    H3F12290   0.865   2.969   6.524  0.5882 -1.1540  0.7311
  117OSM    H3G12291   0.757   2.855   6.593 -0.3059 -0.2849  1.3721
  117OSM    C4F12292   0.831   3.007   6.739  0.4825  0.6773 -0.0437
  117OSM    H4F12293   0.893   3.099   6.728  0.3531  0.6920 -0.6365
  117OSM    H4G12294   0.899   2.934   6.788  0.1028  0.3836  0.0489
  117OSM    C5F12295   0.721   3.026   6.838 -0.0113  0.4099  0.1029
  117OSM    H5F12296   0.643   2.949   6.819  1.7731 -1.2668 -0.6290
  117OSM    H5G12297   0.670   3.124   6.827 -1.7680 -0.6170 -1.3887
  117OSM    C6F12298   0.773   3.015   6.984  0.8819 -0.0471 -0.5376
  117OSM    H6F12299   0.691   3.026   7.058 -0.5749 -1.3863 -1.9201
  117OSM    H6G12300   0.851   3.093   6.999 -1.1927  2.3891 -1.9384
  117OSM    C7F12301   0.826   2.876   7.023 -0.1014 -0.0809 -0.2622
  117OSM    H7F12302   0.933   2.881   6.992 -0.4424  0.1864 -1.3949
  117OSM    H7G12303   0.758   2.803   6.975  1.9671 -1.5871 -0.9988
  117OSM    C8F12304   0.838   2.859   7.174 -0.8731 -0.0369  0.5193
  117OSM    H8F12305   0.744   2.870   7.231 -0.0162  0.7271  1.8235
  117OSM    H8G12306   0.917   2.931   7.205 -0.2471  0.3356 -1.7940
  117OSM    C9F12307   0.895   2.725   7.212 -0.3031  0.4793 -0.9267
  117OSM    H9F12308   0.923   2.664   7.124 -0.5396 -0.3165 -0.4618
  117OSM   C10F12309   0.901   2.676   7.337 -0.3104 -0.8791  0.1878
  117OSM   H10F12310   0.933   2.573   7.360  0.0680 -1.0921 -1.2381
  117OSM   C11F12311   0.848   2.752   7.462 -0.2800 -0.0381 -0.4368
  117OSM   H11F12312   0.745   2.721   7.490 -0.4515 -0.6908 -1.7468
  117OSM   H11G12313   0.855   2.862   7.447 -1.6762  0.0598 -0.4313
  117OSM   C12F12314   0.919   2.692   7.585 -0.1924 -0.0653 -0.6851
  117OSM   H12F12315   1.028   2.703   7.568 -0.2184  1.5460  0.1505
  117OSM   H12G12316   0.897   2.583   7.596  0.7551 -0.2677 -0.7604
  117OSM   C13F12317   0.893   2.768   7.717  0.8278 -0.2582 -0.4284
  117OSM   H13F12318   0.791   2.812   7.713  0.9040  0.1756  1.8855
  117OSM   H13G12319   0.958   2.857   7.727  0.1160  0.0631  1.5836
  117OSM   C14F12320   0.891   2.696   7.854 -0.3162  0.1612  0.2258
  117OSM   H14F12321   0.998   2.673   7.874 -1.2579 -3.2188  1.7683
  117OSM   H14G12322   0.838   2.598   7.860  0.3140 -0.3339 -1.9440
  117OSM   C15F12323   0.847   2.784   7.967  0.7219  0.0622  0.1871
  117OSM   H15F12324   0.742   2.820   7.978  0.6768  0.1454 -0.4678
  117OSM   H15G12325   0.913   2.873   7.960 -0.0586  0.7715  1.6113
  117OSM   C16F12326   0.876   2.711   8.096  0.2721 -0.1485 -0.9762
  117OSM   H16F12327   0.856   2.780   8.181 -0.2861 -2.1233  0.5190
  117OSM   H16G12328   0.986   2.696   8.094  0.2817 -0.3210  0.5921
  117OSM   C17F12329   0.798   2.581   8.111 -0.0261 -0.5540  0.4490
  117OSM   H17F12330   0.690   2.600   8.090  0.3584  1.1836 -0.0881
  117OSM   H17G12331   0.837   2.510   8.034 -3.4817  0.7329 -2.6560
  117OSM   C18F12332   0.817   2.517   8.255  0.0520  0.1853 -0.8646
  117OSM   H18F12333   0.927   2.502   8.259  0.0207  0.2749  0.8282
  117OSM   H18G12334   0.762   2.420   8.251  0.2062  0.1487 -2.4152
  117OSM   H18H12335   0.772   2.576   8.338 -1.5663 -0.7361 -1.0621
  118OSM      N12336   2.565   5.055   6.243  0.2901 -0.3898 -0.4783
  118OSM    C1512337   2.606   4.947   6.143  0.3212 -0.3937  0.2037
  118OSM   H15A12338   2.672   4.876   6.191  0.4876  0.9199  1.9653
  118OSM   H15B12339   2.651   4.995   6.057  2.3562  0.1593  1.5445
  118OSM   H15C12340   2.522   4.892   6.103  0.4197  0.3944 -1.1346
  118OSM    C1412341   2.508   5.171   6.173  0.8820 -0.5231 -0.5430
  118OSM   H14A12342   2.469   5.251   6.234 -2.6627 -0.9316 -2.1467
  118OSM   H14B12343   2.413   5.153   6.124  2.0554 -1.2984 -2.5887
  118OSM   H14C12344   2.587   5.218   6.117  0.9448  2.8081  2.2067
  118OSM    C1312345   2.469   4.994   6.342  0.4742 -0.0028  0.4538
  118OSM   H13A12346   2.510   4.921   6.409  0.1680  0.0267  0.6754
  118OSM   H13B12347   2.388   4.939   6.296  1.0898  1.2820 -2.2841
  118OSM   H13C12348   2.420   5.071   6.400  0.0160 -0.5936  0.8667
  118OSM    C1212349   2.694   5.109   6.302 -0.5154  0.7042  0.2004
  118OSM   H12A12350   2.667   5.196   6.361  1.7843  1.1279  0.7104
  118OSM   H12B12351   2.761   5.161   6.234  1.5245 -2.0483  0.0332
  118OSM    C1112352   2.780   5.005   6.394 -0.4509 -0.6263  0.0083
  118OSM   H11A12353   2.735   4.972   6.490  0.7568 -3.0495 -0.2097
  118OSM   H11B12354   2.870   5.065   6.420 -1.6429  0.8290  0.8394
  118OSM      P12355   2.861   4.763   6.398  0.6434  0.0581  0.0816
  118OSM    O1312356   2.754   4.717   6.493 -0.2120  0.2918  0.6529
  118OSM    O1412357   2.916   4.665   6.303 -0.0818 -0.3133  0.0548
  118OSM    O1112358   2.974   4.825   6.483  0.3369  0.5598  0.0545
  118OSM    O1212359   2.818   4.889   6.315 -0.1364 -0.0809  0.3364
  118OSM    C1S12360   3.025   4.747   6.584 -0.5378 -0.7153 -0.5789
  118OSM    H1S12361   3.091   4.666   6.546  0.9587  0.0299  0.3883
  118OSM    H1T12362   2.951   4.684   6.639 -0.5050 -0.6801 -0.4944
  118OSM     NF12363   3.163   4.724   6.778  1.6430 -0.1440 -0.5153
  118OSM    HNF12364   3.101   4.709   6.854  0.1071  0.7847 -1.5690
  118OSM    C2S12365   3.102   4.824   6.694 -0.2217 -1.0880  0.0123
  118OSM    H2S12366   3.183   4.888   6.653 -1.1313 -0.2926 -0.5547
  118OSM    C3S12367   2.998   4.918   6.763  0.4553  0.4856  0.3578
  118OSM    H3S12368   2.916   4.860   6.808  2.1884  0.3483  3.4737
  118OSM     O312369   2.936   5.011   6.676  0.4398  0.5744 -0.8917
  118OSM    HO312370   2.945   4.969   6.590  2.9555 -0.0550 -0.3485
  118OSM    C4S12371   3.061   5.002   6.867  0.2210 -0.0761  0.3091
  118OSM    H4S12372   3.140   5.068   6.828  0.7683  0.5126  2.3326
  118OSM    C5S12373   3.050   5.004   7.002 -0.1543 -0.0385  0.2899
  118OSM    H5S12374   2.986   4.925   7.044 -0.1501  0.5059  1.3300
  118OSM    C6S12375   3.127   5.085   7.099  0.0104 -0.4143 -0.0490
  118OSM    H6S12376   3.064   5.117   7.185  1.3452 -0.0574  0.8122
  118OSM    H6T12377   3.150   5.183   7.052  0.2425 -0.7736 -0.6858
  118OSM    C7S12378   3.259   5.030   7.158  0.0060  0.5278 -0.6177
  118OSM    H7S12379   3.333   5.027   7.075 -1.2728 -0.4382 -1.7442
  118OSM    H7T12380   3.245   4.930   7.204  3.0805  0.5068  0.3633
  118OSM    C8S12381   3.318   5.122   7.262 -0.1575 -0.4784 -0.5528
  118OSM    H8S12382   3.242   5.149   7.337 -0.8866  1.1531 -1.8461
  118OSM    H8T12383   3.341   5.225   7.228  1.1691 -0.5987 -0.0521
  118OSM    C9S12384   3.453   5.063   7.331  0.0605  0.2204  0.7386
  118OSM    H9S12385   3.541   5.065   7.264  0.3010 -0.4370  1.0365
  118OSM    H9T12386   3.420   4.962   7.365 -1.8751  0.1977 -1.0742
  118OSM   C10S12387   3.494   5.132   7.461 -0.7798  0.1804 -0.2878
  118OSM   H10S12388   3.402   5.128   7.524  0.6606 -2.7803  1.7648
  118OSM   H10T12389   3.509   5.240   7.442  0.5174  0.2583  1.0766
  118OSM   C11S12390   3.610   5.077   7.544  1.3907 -0.0727  0.4802
  118OSM   H11S12391   3.707   5.103   7.496  0.3983  1.3704 -0.7857
  118OSM   H11T12392   3.584   4.969   7.554  1.9686 -0.3942 -1.2636
  118OSM   C12S12393   3.620   5.126   7.691  0.1949 -0.1516 -0.1007
  118OSM   H12S12394   3.686   5.057   7.748 -0.4955  3.0028  4.8587
  118OSM   H12T12395   3.523   5.113   7.743  0.5235  2.2732  1.1908
  118OSM   C13S12396   3.678   5.262   7.715  0.7108 -1.4204 -0.7718
  118OSM   H13S12397   3.613   5.334   7.659  4.7577  1.4545 -2.0784
  118OSM   H13T12398   3.783   5.273   7.679  0.1035  2.4662 -1.6575
  118OSM   C14S12399   3.668   5.311   7.859  0.6197 -0.3098 -0.1520
  118OSM   H14S12400   3.737   5.245   7.917 -0.1821  0.9619  2.3491
  118OSM   H14T12401   3.567   5.293   7.902  0.5410  1.5127  0.4909
  118OSM   C15S12402   3.689   5.464   7.885  0.7053  1.0911  0.5590
  118OSM   H15S12403   3.599   5.520   7.852 -1.3882 -2.9089 -0.7895
  118OSM   H15T12404   3.779   5.499   7.829 -0.3016  1.4430 -0.8447
  118OSM   C16S12405   3.716   5.503   8.029  0.1072  0.2073 -0.2724
  118OSM   H16S12406   3.731   5.612   8.041 -4.0791  0.6705  1.4480
  118OSM   H16T12407   3.811   5.455   8.061 -0.6543 -1.5036 -0.5428
  118OSM   C17S12408   3.605   5.453   8.122  0.4445  0.3778 -0.4950
  118OSM   H17S12409   3.577   5.351   8.088 -1.2841  0.7144 -0.1595
  118OSM   H17T12410   3.513   5.513   8.103 -0.6131 -0.6629  1.1709
  118OSM   C18S12411   3.646   5.453   8.267 -0.5406  0.2700  0.0225
  118OSM   H18S12412   3.716   5.373   8.299 -2.6736 -2.2165 -1.3419
  118OSM   H18T12413   3.557   5.438   8.332 -0.8335 -2.0766 -0.8819
  118OSM   H18U12414   3.696   5.547   8.301 -1.9495  0.1701  2.4798
  118OSM    C1F12415   3.265   4.643   6.744 -0.1150  0.2504  0.0578
  118OSM     OF12416   3.325   4.667   6.640  0.1606  0.0616  0.7333
  118OSM    C2F12417   3.292   4.521   6.832  0.5700  0.3754 -0.2535
  118OSM    H2F12418   3.288   4.424   6.778 -1.8783  0.3011 -0.0134
  118OSM    H2G12419   3.209   4.516   6.906  3.1956  0.3171  2.8120
  118OSM    C3F12420   3.419   4.527   6.911  0.2401  0.2053  1.0925
  118OSM    H3F12421   3.414   4.618   6.976  1.0960  2.0487 -1.3652
  118OSM    H3G12422   3.503   4.545   6.841 -0.1575  0.5394  0.6981
  118OSM    C4F12423   3.436   4.404   7.002 -0.1316 -0.2328 -0.4085
  118OSM    H4F12424   3.539   4.399   7.044 -0.1752 -0.7290 -0.3641
  118OSM    H4G12425   3.415   4.311   6.946 -0.1354 -0.1985 -0.4639
  118OSM    C5F12426   3.336   4.407   7.116 -0.5784  0.1476 -0.3741
  118OSM    H5F12427   3.237   4.406   7.066  0.0452 -1.3038 -1.6375
  118OSM    H5G12428   3.333   4.498   7.180 -1.0240 -2.2250  3.1506
  118OSM    C6F12429   3.349   4.293   7.216  0.0173 -0.9526  0.1226
  118OSM    H6F12430   3.448   4.299   7.266  0.6069 -1.0593 -1.0040
  118OSM    H6G12431   3.351   4.200   7.155 -0.2266  1.0674 -3.0824
  118OSM    C7F12432   3.239   4.292   7.317 -0.7812 -0.1902 -0.1272
  118OSM    H7F12433   3.218   4.192   7.360  2.7124 -1.3899 -1.0108
  118OSM    H7G12434   3.144   4.323   7.268  0.1485 -0.2774 -2.0138
  118OSM    C8F12435   3.258   4.388   7.439  0.2319 -0.1411  0.0629
  118OSM    H8F12436   3.167   4.374   7.502  1.0114 -2.2462  0.7368
  118OSM    H8G12437   3.258   4.492   7.400  2.1570  0.5085  1.7067
  118OSM    C9F12438   3.374   4.368   7.530  0.3687 -0.0726 -0.2893
  118OSM    H9F12439   3.472   4.374   7.482  0.2560 -1.0440 -0.6651
  118OSM   C10F12440   3.366   4.330   7.660 -0.7859 -0.0538  0.3996
  118OSM   H10F12441   3.463   4.329   7.713 -0.3416  0.5159 -0.3898
  118OSM   C11F12442   3.236   4.297   7.740 -0.1022  0.1713 -0.8086
  118OSM   H11F12443   3.266   4.205   7.794  0.7449  2.0808  2.0699
  118OSM   H11G12444   3.158   4.255   7.673  0.3429 -0.4415 -0.9472
  118OSM   C12F12445   3.185   4.408   7.836 -0.2023  0.6471  0.1425
  118OSM   H12F12446   3.160   4.497   7.774  1.1184  0.4856 -0.6407
  118OSM   H12G12447   3.263   4.445   7.905  1.4795 -0.4531 -1.1201
  118OSM   C13F12448   3.063   4.375   7.920  0.1798 -0.1348 -0.0873
  118OSM   H13F12449   3.096   4.287   7.980 -2.0251 -1.9482 -1.4075
  118OSM   H13G12450   2.987   4.342   7.845  3.0011  0.1694 -3.1644
  118OSM   C14F12451   3.005   4.491   8.003  0.1705  0.2601 -0.5433
  118OSM   H14F12452   2.979   4.579   7.941  0.5467  1.1192  0.4897
  118OSM   H14G12453   3.092   4.525   8.062  1.0646 -0.9454 -1.1596
  118OSM   C15F12454   2.892   4.462   8.107 -0.8347  0.2661  0.8673
  118OSM   H15F12455   2.916   4.367   8.158 -0.1547 -0.2868 -0.4609
  118OSM   H15G12456   2.797   4.434   8.057 -1.1107  0.8852  1.0373
  118OSM   C16F12457   2.894   4.568   8.210  0.3037 -0.7691  0.2110
  118OSM   H16F12458   2.853   4.657   8.159  0.6308 -1.5274 -1.4032
  118OSM   H16G12459   3.001   4.592   8.228  0.2306 -1.0009  0.9918
  118OSM   C17F12460   2.815   4.536   8.334 -0.5443 -0.2815 -0.0254
  118OSM   H17F12461   2.836   4.434   8.373 -0.0041  0.1630  0.8842
  118OSM   H17G12462   2.706   4.529   8.315 -1.0786 -2.8475  3.5025
  118OSM   C18F12463   2.849   4.636   8.446  0.4583  0.2855 -0.9823
  118OSM   H18F12464   2.945   4.611   8.495  0.3985  0.1477 -0.9343
  118OSM   H18G12465   2.777   4.647   8.529 -0.9779  1.6303 -2.3562
  118OSM   H18H12466   2.858   4.740   8.407 -0.6166  0.0171 -1.9951
  119OSM      N12467   4.196   3.774   5.685 -0.4691 -0.7728  0.9430
  119OSM    C1512468   4.109   3.678   5.748  0.2249  0.4565  0.7382
  119OSM   H15A12469   4.134   3.579   5.712 -3.6365  0.1917 -1.4612
  119OSM   H15B12470   4.004   3.700   5.733  0.3170  0.0502 -0.5289
  119OSM   H15C12471   4.130   3.679   5.854  1.4259 -0.3316  0.5179
  119OSM    C1412472   4.341   3.770   5.736 -0.0394 -0.1568  0.0330
  119OSM   H14A12473   4.412   3.838   5.690  0.6377 -0.1450  1.0811
  119OSM   H14B12474   4.378   3.670   5.724  0.3617  0.2314 -2.2439
  119OSM   H14C12475   4.350   3.785   5.842 -3.1393 -0.5658  0.4000
  119OSM    C1312476   4.188   3.759   5.535 -0.1662  0.6118  0.5978
  119OSM   H13A12477   4.087   3.775   5.500  0.3253 -0.7736 -1.5645
  119OSM   H13B12478   4.228   3.663   5.505  1.3747  1.2543  0.5266
  119OSM   H13C12479   4.260   3.826   5.489  0.1890  0.2914  0.6842
  119OSM    C1212480   4.146   3.903   5.727 -0.0085  0.6070 -0.5008
  119OSM   H12A12481   4.055   3.937   5.680  0.7238  2.1305 -0.8247
  119OSM   H12B12482   4.220   3.975   5.696  0.3655  0.5451  0.2541
  119OSM    C1112483   4.120   3.932   5.878  0.1133 -0.6104  0.2190
  119OSM   H11A12484   4.130   4.041   5.893  0.2699 -0.6862  0.6570
  119OSM   H11B12485   4.206   3.885   5.929  1.0703  0.6695 -0.2006
  119OSM      P12486   3.867   3.958   5.904  0.2310 -0.6817  0.0300
  119OSM    O1312487   3.859   3.979   5.758 -0.0682 -0.2647  0.5065
  119OSM    O1412488   3.750   3.901   5.979  0.4551 -0.3319  0.1795
  119OSM    O1112489   3.914   4.096   5.971 -0.1394  0.2739  0.4789
  119OSM    O1212490   3.997   3.871   5.923  0.0504  0.2358  0.2690
  119OSM    C1S12491   3.908   4.105   6.116 -0.2764  0.1151 -0.3964
  119OSM    H1S12492   3.929   4.007   6.164 -0.6039  1.9660  3.7164
  119OSM    H1T12493   3.805   4.129   6.147  0.2800  0.3724  1.2911
  119OSM     NF12494   4.008   4.224   6.323 -0.6018 -0.0161 -0.1846
  119OSM    HNF12495   3.953   4.282   6.383  0.2514 -2.5905  3.2419
  119OSM    C2S12496   4.002   4.226   6.175 -0.2636 -0.3759 -0.0857
  119OSM    H2S12497   4.104   4.214   6.134 -0.3280  1.8462 -0.9576
  119OSM    C3S12498   3.954   4.364   6.113  0.3415 -0.0984  0.1645
  119OSM    H3S12499   3.856   4.388   6.160  0.3946 -0.1587  0.3062
  119OSM     O312500   3.928   4.352   5.975 -0.0787  0.3382  0.1619
  119OSM    HO312501   3.957   4.263   5.955 -1.9295  0.0794 -1.4800
  119OSM    C4S12502   4.045   4.474   6.150  0.0125  0.9880 -0.0587
  119OSM    H4S12503   4.138   4.443   6.201 -1.2161 -1.2261  0.9149
  119OSM    C5S12504   4.011   4.607   6.164  0.1300  0.0160  0.5327
  119OSM    H5S12505   3.912   4.640   6.128  1.6097  1.3871 -2.5269
  119OSM    C6S12506   4.094   4.724   6.214 -0.1445 -0.4170  0.3134
  119OSM    H6S12507   4.105   4.803   6.138  1.0374 -2.0758 -1.2952
  119OSM    H6T12508   4.194   4.692   6.250  0.8746  2.3302  0.0036
  119OSM    C7S12509   4.026   4.808   6.335 -0.4080 -0.3896 -0.4942
  119OSM    H7S12510   3.991   4.734   6.410 -1.5060 -0.4966 -1.1126
  119OSM    H7T12511   3.939   4.867   6.299  0.4940  1.0416 -0.3661
  119OSM    C8S12512   4.117   4.899   6.415 -0.1052  0.2339  0.4593
  119OSM    H8S12513   4.155   4.975   6.344 -0.4857  2.0023  2.1098
  119OSM    H8T12514   4.204   4.844   6.455  0.2964 -1.4710 -2.5628
  119OSM    C9S12515   4.037   4.962   6.531 -0.7109 -0.6547 -0.1608
  119OSM    H9S12516   3.994   4.879   6.590 -0.3708 -0.1620  0.8021
  119OSM    H9T12517   3.957   5.023   6.484 -0.9212 -1.1010 -0.3774
  119OSM   C10S12518   4.123   5.055   6.623  0.1079 -0.0289  0.1962
  119OSM   H10S12519   4.127   5.152   6.570 -1.2886 -1.2364 -2.1779
  119OSM   H10T12520   4.222   5.007   6.639  1.3546  2.2939 -0.3577
  119OSM   C11S12521   4.049   5.082   6.751 -0.6064  0.0434 -0.1893
  119OSM   H11S12522   4.067   4.992   6.814  0.5420  0.1822 -0.3159
  119OSM   H11T12523   3.939   5.099   6.744 -0.5857  0.1730 -0.2037
  119OSM   C12S12524   4.098   5.213   6.822 -0.2304 -0.0663  0.0066
  119OSM   H12S12525   4.119   5.282   6.738 -1.0952 -0.7946 -0.8209
  119OSM   H12T12526   4.198   5.207   6.868  0.6637  0.0054 -1.8863
  119OSM   C13S12527   4.005   5.268   6.938 -0.0303 -0.0459  0.1186
  119OSM   H13S12528   3.909   5.299   6.893 -0.0814 -1.8837 -1.0840
  119OSM   H13T12529   4.058   5.358   6.976 -0.9574  0.9587 -0.9312
  119OSM   C14S12530   3.975   5.166   7.052 -0.2691  0.0436  0.1709
  119OSM   H14S12531   4.064   5.163   7.118 -1.0248 -0.0541  1.1881
  119OSM   H14T12532   3.977   5.068   7.000 -1.8209  0.5876 -0.9497
  119OSM   C15S12533   3.844   5.193   7.134 -0.6512 -0.3576  0.6754
  119OSM   H15S12534   3.806   5.115   7.203 -0.8766  0.5635  1.5977
  119OSM   H15T12535   3.768   5.184   7.054 -1.4504 -1.4322  1.5366
  119OSM   C16S12536   3.852   5.322   7.214 -0.0147 -0.1228  0.0764
  119OSM   H16S12537   3.747   5.351   7.234  0.6915  2.3826  0.2279
  119OSM   H16T12538   3.904   5.399   7.154 -0.0096  0.9223  1.3961
  119OSM   C17S12539   3.918   5.314   7.350  0.1168  0.0001  0.2098
  119OSM   H17S12540   4.029   5.314   7.345  0.1201 -1.1540  0.2471
  119OSM   H17T12541   3.893   5.222   7.407 -0.9523  1.1180  1.6059
  119OSM   C18S12542   3.865   5.440   7.424  0.7148  0.1827 -0.6186
  119OSM   H18S12543   3.916   5.458   7.522  0.9128  0.9893 -0.8596
  119OSM   H18T12544   3.755   5.443   7.439  0.7073 -1.7435 -0.1703
  119OSM   H18U12545   3.884   5.524   7.354 -0.8778 -0.9959 -2.5100
  119OSM    C1F12546   4.072   4.121   6.387 -0.1801  0.2109 -0.1099
  119OSM     OF12547   4.114   4.037   6.314 -0.5476  0.3732  0.5338
  119OSM    C2F12548   4.068   4.117   6.536 -0.4338 -0.7210  0.3470
  119OSM    H2F12549   3.968   4.078   6.564 -1.1263 -0.5418 -1.7850
  119OSM    H2G12550   4.086   4.217   6.580  1.0654 -1.4434  1.4064
  119OSM    C3F12551   4.172   4.027   6.609  0.4313 -0.2294 -0.4957
  119OSM    H3F12552   4.271   4.049   6.563 -0.0009  2.7044 -0.1572
  119OSM    H3G12553   4.146   3.922   6.586  2.1855 -0.9984  0.8882
  119OSM    C4F12554   4.190   4.053   6.764 -0.4040 -0.3209 -0.4118
  119OSM    H4F12555   4.165   4.161   6.776 -2.6905 -0.8256 -0.5111
  119OSM    H4G12556   4.295   4.037   6.795 -0.7229 -0.1982  0.7432
  119OSM    C5F12557   4.094   3.961   6.846 -0.4414 -0.0184 -0.1137
  119OSM    H5F12558   4.110   3.855   6.817  1.6145 -0.0883  1.1693
  119OSM    H5G12559   3.993   3.987   6.809 -0.2581 -0.0522 -0.6482
  119OSM    C6F12560   4.114   3.981   7.002 -0.3317  0.0556  0.3728
  119OSM    H6F12561   4.149   4.086   7.016  0.0553  0.0085 -0.2390
  119OSM    H6G12562   4.193   3.911   7.037  0.1023 -0.0652 -0.8175
  119OSM    C7F12563   3.992   3.934   7.081 -0.0251 -0.6379  0.6365
  119OSM    H7F12564   3.969   3.831   7.046 -0.5333 -0.3979  0.2493
  119OSM    H7G12565   3.906   3.997   7.048  1.8976  1.5385 -0.3714
  119OSM    C8F12566   4.022   3.932   7.236  0.2896  0.8861  0.0062
  119OSM    H8F12567   4.023   4.036   7.274 -0.4522  0.0496  2.4151
  119OSM    H8G12568   4.121   3.883   7.250  0.5924  0.6653 -2.6169
  119OSM    C9F12569   3.924   3.860   7.324 -0.0566 -1.2474 -0.8485
  119OSM    H9F12570   3.827   3.911   7.324 -0.5047 -2.0562  1.3062
  119OSM   C10F12571   3.945   3.761   7.413 -1.0201  0.2830  0.0564
  119OSM   H10F12572   3.859   3.732   7.475 -0.0164  0.8896  1.7618
  119OSM   C11F12573   4.072   3.689   7.454  0.1354  0.1102  0.2126
  119OSM   H11F12574   4.138   3.704   7.366 -0.9891  0.1322 -0.6297
  119OSM   H11G12575   4.050   3.580   7.451 -0.6000  0.2838 -1.0264
  119OSM   C12F12576   4.132   3.737   7.584  0.2701 -0.0737 -0.7101
  119OSM   H12F12577   4.146   3.846   7.570  0.5170 -0.2240 -1.7120
  119OSM   H12G12578   4.239   3.710   7.594  0.9416  1.8672 -2.3595
  119OSM   C13F12579   4.053   3.699   7.712  0.5432  0.0293 -0.5782
  119OSM   H13F12580   4.067   3.589   7.715 -1.0685 -0.1580  0.8247
  119OSM   H13G12581   3.944   3.720   7.703  0.2367 -2.0221 -1.9332
  119OSM   C14F12582   4.105   3.784   7.829  0.6915 -0.1644 -0.7164
  119OSM   H14F12583   4.080   3.888   7.800  1.1791  0.3062  0.4866
  119OSM   H14G12584   4.216   3.777   7.829  0.7849  0.9718  0.2093
  119OSM   C15F12585   4.045   3.748   7.964  0.1455 -0.2808  0.1671
  119OSM   H15F12586   4.061   3.638   7.976  2.2694  0.1812  1.8497
  119OSM   H15G12587   3.941   3.787   7.967 -0.2863 -1.5264  2.8659
  119OSM   C16F12588   4.125   3.807   8.082  0.2096  0.3018  0.2216
  119OSM   H16F12589   4.228   3.766   8.095 -0.5185 -1.4069  0.7338
  119OSM   H16G12590   4.083   3.764   8.175 -1.1046 -0.9339 -0.9176
  119OSM   C17F12591   4.130   3.954   8.086  0.1521 -0.2290 -0.8046
  119OSM   H17F12592   4.028   3.996   8.076 -0.4974 -1.6096 -0.0458
  119OSM   H17G12593   4.191   3.984   7.998 -0.1700 -0.2938 -1.0517
  119OSM   C18F12594   4.199   4.015   8.204 -0.4122 -0.3372 -0.2113
  119OSM   H18F12595   4.165   3.980   8.304  4.2621  0.6487  1.8881
  119OSM   H18G12596   4.184   4.125   8.199  0.7162 -0.0922  1.3696
  119OSM   H18H12597   4.309   3.998   8.192 -0.5858 -0.3882 -1.8725
  120OSM      N12598   1.824   1.849   6.342  0.0577  0.2929  0.2454
  120OSM    C1512599   1.767   1.843   6.482 -0.1557 -0.4365  0.2782
  120OSM   H15A12600   1.805   1.929   6.536 -0.9372  0.2967 -0.3237
  120OSM   H15B12601   1.809   1.759   6.536 -0.0988 -0.2351  0.5524
  120OSM   H15C12602   1.660   1.846   6.494 -0.2963 -1.6537 -0.6045
  120OSM    C1412603   1.759   1.960   6.268 -0.1592 -0.8023 -0.2264
  120OSM   H14A12604   1.768   2.055   6.317  0.4972  0.3188 -2.4287
  120OSM   H14B12605   1.652   1.944   6.259 -0.6786  1.7211  1.3563
  120OSM   H14C12606   1.800   1.966   6.168 -0.2809  1.8332 -0.1305
  120OSM    C1312607   1.969   1.883   6.352  0.5299  0.4079 -0.1230
  120OSM   H13A12608   2.019   1.853   6.443 -1.4476 -0.9540  0.5341
  120OSM   H13B12609   1.981   1.990   6.345  0.6250  0.4098  0.0522
  120OSM   H13C12610   2.037   1.851   6.275  0.8495  1.6618 -0.3818
  120OSM    C1212611   1.798   1.719   6.264  0.1907  0.3779 -0.5314
  120OSM   H12A12612   1.830   1.747   6.165 -1.4627  2.0171 -0.6354
  120OSM   H12B12613   1.694   1.689   6.256  0.5933 -1.5110  0.9608
  120OSM    C1112614   1.874   1.589   6.305  0.2679 -0.1570 -0.1176
  120OSM   H11A12615   1.982   1.616   6.311  0.0627 -0.0485  3.9231
  120OSM   H11B12616   1.872   1.509   6.228 -1.5618 -1.1268  0.9214
  120OSM      P12617   1.704   1.447   6.441 -0.0475 -0.3442  0.4142
  120OSM    O1312618   1.584   1.536   6.449 -0.7804  0.0532  0.3041
  120OSM    O1412619   1.711   1.352   6.330 -0.1428  0.2547  0.2165
  120OSM    O1112620   1.714   1.376   6.578 -0.3184 -0.0571  0.3585
  120OSM    O1212621   1.838   1.538   6.431  0.2872  0.1372 -0.6345
  120OSM    C1S12622   1.820   1.395   6.671 -0.2619  0.1815  0.4835
  120OSM    H1S12623   1.816   1.501   6.704  0.9498 -0.2740  2.1658
  120OSM    H1T12624   1.918   1.387   6.620  0.5631 -1.4765  2.2696
  120OSM     NF12625   1.906   1.373   6.901  0.3977 -0.2423  0.5208
  120OSM    HNF12626   1.995   1.328   6.898  0.3854 -0.1565 -2.5172
  120OSM    C2S12627   1.816   1.314   6.807  0.7720  0.4848 -0.4528
  120OSM    H2S12628   1.715   1.327   6.851  0.6452 -0.8497 -0.3359
  120OSM    C3S12629   1.827   1.163   6.778 -0.3249  0.2428  0.1489
  120OSM    H3S12630   1.931   1.144   6.743 -0.6806 -2.0345  0.2935
  120OSM     O312631   1.742   1.122   6.672 -0.3151 -0.1328 -0.5690
  120OSM    HO312632   1.693   1.201   6.650 -2.3882 -0.5499  2.3108
  120OSM    C4S12633   1.796   1.084   6.903  0.4360  0.3133 -0.0932
  120OSM    H4S12634   1.695   1.101   6.941 -0.2563 -2.1168 -0.7623
  120OSM    C5S12635   1.875   0.992   6.955  0.8222 -0.4775 -0.7213
  120OSM    H5S12636   1.969   0.952   6.912  1.6958  0.7339  0.0347
  120OSM    C6S12637   1.830   0.920   7.086  0.3800  0.9231  0.4810
  120OSM    H6S12638   1.892   0.832   7.114  0.3293  0.6808 -0.1816
  120OSM    H6T12639   1.723   0.889   7.077  0.5611  0.1371  0.9529
  120OSM    C7S12640   1.856   1.019   7.209 -0.5221  0.2220  0.6547
  120OSM    H7S12641   1.784   1.103   7.205 -0.0450  0.5656 -0.8701
  120OSM    H7T12642   1.956   1.064   7.194 -0.4145 -0.3693 -0.5110
  120OSM    C8S12643   1.840   0.950   7.347  0.3482 -0.3750 -0.1131
  120OSM    H8S12644   1.869   1.026   7.422  1.3942 -1.6847  0.8566
  120OSM    H8T12645   1.917   0.869   7.351 -1.6455 -2.3799 -1.0932
  120OSM    C9S12646   1.703   0.893   7.375  0.4768  0.9642  0.5899
  120OSM    H9S12647   1.676   0.832   7.287  1.2011 -0.4718  1.3457
  120OSM    H9T12648   1.624   0.971   7.380 -0.5329 -0.1200  1.8988
  120OSM   C10S12649   1.698   0.811   7.505  0.7947  0.4596 -0.5844
  120OSM   H10S12650   1.776   0.732   7.507 -0.0436 -0.3771 -0.0253
  120OSM   H10T12651   1.603   0.755   7.519  0.4405  1.7431  2.6200
  120OSM   C11S12652   1.709   0.889   7.638 -0.2536  0.6298 -0.6612
  120OSM   H11S12653   1.629   0.965   7.630  0.1436  1.0623 -0.5278
  120OSM   H11T12654   1.810   0.935   7.647  0.6022 -1.2822 -0.0180
  120OSM   C12S12655   1.675   0.812   7.771  0.6273  0.4356  0.6695
  120OSM   H12S12656   1.570   0.780   7.758  1.0390 -0.3313 -0.9135
  120OSM   H12T12657   1.687   0.891   7.848  0.8548  1.3962 -0.3351
  120OSM   C13S12658   1.769   0.703   7.796  0.4479 -0.1499 -0.1495
  120OSM   H13S12659   1.877   0.728   7.809  0.1777  1.8643 -1.5251
  120OSM   H13T12660   1.764   0.629   7.713  2.0530  0.6054 -0.9422
  120OSM   C14S12661   1.721   0.620   7.919  0.5725 -0.1592  0.4407
  120OSM   H14S12662   1.756   0.515   7.915  1.2041 -0.0159  1.7770
  120OSM   H14T12663   1.612   0.602   7.928  0.6568 -0.1749  1.5364
  120OSM   C15S12664   1.773   0.696   8.047  0.1824  0.0654  0.0903
  120OSM   H15S12665   1.725   0.796   8.046  0.0250  0.0002 -1.3381
  120OSM   H15T12666   1.883   0.700   8.035  0.3322  0.9703  1.8080
  120OSM   C16S12667   1.735   0.627   8.172  0.0721  0.4870 -0.1756
  120OSM   H16S12668   1.816   0.559   8.206  0.8993  1.2417 -0.6174
  120OSM   H16T12669   1.642   0.567   8.164  0.3046  0.4137 -2.5800
  120OSM   C17S12670   1.719   0.728   8.284  0.0335 -0.4303 -0.0950
  120OSM   H17S12671   1.632   0.793   8.260 -0.9343 -1.3353  0.9174
  120OSM   H17T12672   1.811   0.791   8.285 -0.2401 -0.0356  1.0644
  120OSM   C18S12673   1.705   0.658   8.422 -0.2516 -0.3020 -0.7162
  120OSM   H18S12674   1.802   0.614   8.452 -1.0190 -1.1944  0.4774
  120OSM   H18T12675   1.624   0.583   8.413 -0.5686  0.1135 -1.4296
  120OSM   H18U12676   1.675   0.739   8.492  0.5122 -1.4055  0.9071
  120OSM    C1F12677   1.903   1.499   6.939  0.5455 -0.5348 -0.2507
  120OSM     OF12678   1.790   1.556   6.945 -0.6748 -0.4995  0.2388
  120OSM    C2F12679   2.039   1.566   6.980  0.4158 -0.2246  0.2764
  120OSM    H2F12680   2.071   1.641   6.905 -1.2625  0.6008  0.3611
  120OSM    H2G12681   2.117   1.488   6.983  1.3105  0.6078 -1.1878
  120OSM    C3F12682   2.023   1.636   7.113 -0.8288  0.3291  0.5586
  120OSM    H3F12683   1.919   1.653   7.147 -1.3960 -1.3166 -0.2824
  120OSM    H3G12684   2.069   1.737   7.107 -1.1611  0.4478 -0.0141
  120OSM    C4F12685   2.092   1.561   7.231 -0.4320 -0.3257 -0.0184
  120OSM    H4F12686   2.195   1.538   7.195 -0.6673 -2.4127  0.5430
  120OSM    H4G12687   2.049   1.461   7.256  2.8313 -1.3780  1.7015
  120OSM    C5F12688   2.084   1.644   7.365  0.0941 -0.6293  0.7266
  120OSM    H5F12689   1.976   1.654   7.390 -0.2968  0.4113 -1.2856
  120OSM    H5G12690   2.125   1.743   7.337 -0.3611 -0.2060  1.5559
  120OSM    C6F12691   2.164   1.572   7.474  0.4516 -0.6447 -0.5028
  120OSM    H6F12692   2.265   1.567   7.427  0.0850  0.1934 -1.4111
  120OSM    H6G12693   2.111   1.475   7.480  0.5175 -0.5526  2.2431
  120OSM    C7F12694   2.158   1.652   7.607 -0.3578 -0.1008 -0.2108
  120OSM    H7F12695   2.049   1.670   7.622  0.0231  0.7345  1.6808
  120OSM    H7G12696   2.203   1.753   7.598  0.8435 -0.6367 -0.3571
  120OSM    C8F12697   2.220   1.574   7.723 -0.0521  0.5399  1.4515
  120OSM    H8F12698   2.252   1.653   7.794  1.2373  0.2085  1.2669
  120OSM    H8G12699   2.320   1.539   7.687 -0.6436 -0.1090  0.4002
  120OSM    C9F12700   2.141   1.471   7.783  0.4721  0.2068  0.2219
  120OSM    H9F12701   2.067   1.422   7.718 -2.7743  1.6520  2.6363
  120OSM   C10F12702   2.126   1.451   7.919 -0.3633  0.1657 -0.4273
  120OSM   H10F12703   2.070   1.364   7.956  0.5898 -0.2394  0.0773
  120OSM   C11F12704   2.199   1.531   8.022 -0.6100  0.2652 -0.3809
  120OSM   H11F12705   2.152   1.632   8.032  1.5296  1.2369  0.1770
  120OSM   H11G12706   2.308   1.542   8.003 -1.0194  1.1301 -2.4231
  120OSM   C12F12707   2.190   1.462   8.166  0.3842 -0.0164  0.2625
  120OSM   H12F12708   2.220   1.355   8.170  0.9117  0.1273  0.1633
  120OSM   H12G12709   2.084   1.475   8.196  0.6465  1.6474  0.5018
  120OSM   C13F12710   2.273   1.533   8.269  0.8729  0.0920  0.1815
  120OSM   H13F12711   2.245   1.640   8.268  2.1642  0.4301 -1.7177
  120OSM   H13G12712   2.379   1.521   8.237  0.2706 -0.1640 -1.7609
  120OSM   C14F12713   2.232   1.475   8.403 -0.2863  0.5908  0.6196
  120OSM   H14F12714   2.234   1.364   8.397  0.4924  0.6334 -0.0166
  120OSM   H14G12715   2.133   1.509   8.440 -1.0768  0.8978 -1.6554
  120OSM   C15F12716   2.329   1.514   8.521 -0.0026  0.2169 -0.3079
  120OSM   H15F12717   2.337   1.625   8.522  3.6553  0.0142 -0.2304
  120OSM   H15G12718   2.430   1.472   8.502 -0.7295 -1.9868  0.5301
  120OSM   C16F12719   2.291   1.475   8.662  0.9900 -0.5469 -0.1355
  120OSM   H16F12720   2.370   1.470   8.739 -1.0723 -1.8617  1.9547
  120OSM   H16G12721   2.219   1.391   8.662  1.1026 -0.6461 -0.6947
  120OSM   C17F12722   2.201   1.587   8.721 -0.5501  0.4103 -0.1623
  120OSM   H17F12723   2.111   1.601   8.657 -1.0916  0.8401  0.6887
  120OSM   H17G12724   2.259   1.680   8.706  1.4310 -0.6776  0.5884
  120OSM   C18F12725   2.155   1.579   8.867 -0.0885  0.2694 -1.4302
  120OSM   H18F12726   2.115   1.480   8.898 -2.2338  1.1436 -1.2846
  120OSM   H18G12727   2.083   1.663   8.881 -1.4294 -1.1304  0.1705
  120OSM   H18H12728   2.245   1.591   8.931  0.1097 -1.2340 -1.4150
  121OSM      N12729   3.390   2.831   6.256 -0.6103  0.5748  0.6393
  121OSM    C1512730   3.281   2.760   6.174  0.4481 -0.4512  0.2003
  121OSM   H15A12731   3.242   2.682   6.236 -0.7436 -0.0449 -0.0284
  121OSM   H15B12732   3.320   2.714   6.084 -2.0184 -3.5808  0.6555
  121OSM   H15C12733   3.206   2.833   6.148  2.2390  0.2678 -3.2396
  121OSM    C1412734   3.339   2.845   6.399 -0.0382  0.0681  1.2444
  121OSM   H14A12735   3.257   2.916   6.406  1.5028  1.8998  1.1661
  121OSM   H14B12736   3.415   2.889   6.462  0.7662 -0.6442  0.7716
  121OSM   H14C12737   3.308   2.752   6.444  0.9060 -0.3552  1.0353
  121OSM    C1312738   3.509   2.738   6.261  0.6516 -0.4073 -0.3383
  121OSM   H13A12739   3.565   2.748   6.353  3.1595 -0.3164 -1.8248
  121OSM   H13B12740   3.573   2.746   6.174 -0.1331 -2.7368 -1.1662
  121OSM   H13C12741   3.468   2.639   6.272  1.0224 -0.8425 -2.6191
  121OSM    C1212742   3.425   2.961   6.193  0.4764 -0.7129  0.0010
  121OSM   H12A12743   3.511   3.004   6.242 -0.7031  3.1472 -1.1274
  121OSM   H12B12744   3.345   3.033   6.207  1.3104  0.3090 -0.4301
  121OSM    C1112745   3.457   2.963   6.040  0.2953  0.2870 -0.5112
  121OSM   H11A12746   3.447   3.069   6.008 -2.5101  0.0800 -0.4847
  121OSM   H11B12747   3.376   2.915   5.981 -2.0907  3.0460  0.3541
  121OSM      P12748   3.716   2.975   6.063  0.2854  0.5722  0.0053
  121OSM    O1312749   3.828   2.877   6.050 -0.5759  0.0000 -0.2066
  121OSM    O1412750   3.732   3.107   5.994  0.1131  0.1501 -0.3494
  121OSM    O1112751   3.709   2.999   6.212 -0.2601 -0.3868 -0.7611
  121OSM    O1212752   3.581   2.898   6.021 -0.2522 -0.0508  0.0794
  121OSM    C1S12753   3.811   3.017   6.307  0.2452  0.0019 -0.5623
  121OSM    H1S12754   3.914   3.010   6.265  0.1082 -0.8719 -0.7672
  121OSM    H1T12755   3.803   2.933   6.381  0.6492  1.0302  0.6717
  121OSM     NF12756   3.868   3.146   6.519 -0.6951 -0.1477  0.0478
  121OSM    HNF12757   3.822   3.096   6.592 -2.0607  2.4675  1.0586
  121OSM    C2S12758   3.802   3.155   6.385 -0.4038  0.0187 -0.2075
  121OSM    H2S12759   3.855   3.230   6.322  0.3761  0.6991  1.2435
  121OSM    C3S12760   3.649   3.199   6.378  0.6344  0.3028  0.3246
  121OSM    H3S12761   3.578   3.113   6.381 -1.5115  2.0345  0.8229
  121OSM     O312762   3.605   3.258   6.256 -0.2091  0.3412  0.2598
  121OSM    HO312763   3.677   3.240   6.196 -0.7623 -0.0311 -0.2977
  121OSM    C4S12764   3.617   3.285   6.502  0.6734  0.3496  0.0322
  121OSM    H4S12765   3.677   3.376   6.515  0.4542  0.6303 -0.8404
  121OSM    C5S12766   3.522   3.259   6.592 -0.3872  0.8800 -0.2465
  121OSM    H5S12767   3.478   3.159   6.590  2.9071 -0.6859  0.8101
  121OSM    C6S12768   3.511   3.341   6.720 -1.1470 -0.0576  0.3942
  121OSM    H6S12769   3.409   3.336   6.764 -0.7158 -0.0427  1.4031
  121OSM    H6T12770   3.543   3.443   6.690  0.2532 -0.4329  0.5900
  121OSM    C7S12771   3.613   3.295   6.825 -0.6070 -0.2008  0.3159
  121OSM    H7S12772   3.715   3.298   6.780  0.3080  1.2827  2.3742
  121OSM    H7T12773   3.601   3.187   6.849 -0.3165 -0.0316  1.2501
  121OSM    C8S12774   3.601   3.370   6.951 -0.6733  0.0012 -0.3825
  121OSM    H8S12775   3.500   3.355   6.996 -0.7211 -0.8133 -0.7409
  121OSM    H8T12776   3.606   3.477   6.924 -1.1434 -0.3613 -1.9352
  121OSM    C9S12777   3.706   3.332   7.058 -0.2745  0.4084  0.8799
  121OSM    H9S12778   3.807   3.370   7.034  0.0374  0.1681  1.8056
  121OSM    H9T12779   3.712   3.222   7.064 -1.0441  0.4106  1.8044
  121OSM   C10S12780   3.666   3.394   7.201 -0.1221  0.1768 -0.1617
  121OSM   H10S12781   3.556   3.391   7.220 -0.2750  2.3321 -0.5849
  121OSM   H10T12782   3.689   3.502   7.189  2.1655  0.0199  2.3096
  121OSM   C11S12783   3.745   3.350   7.318  0.6381  0.3176 -0.2038
  121OSM   H11S12784   3.853   3.340   7.294  0.9358  1.4185  0.6493
  121OSM   H11T12785   3.713   3.245   7.335  0.4931  0.0670 -1.9149
  121OSM   C12S12786   3.701   3.428   7.442 -0.2790  0.3008 -0.1962
  121OSM   H12S12787   3.591   3.423   7.457 -0.1579 -0.6394  0.4538
  121OSM   H12T12788   3.750   3.527   7.450  1.0350 -0.3291 -0.2679
  121OSM   C13S12789   3.755   3.363   7.575  0.1077 -0.1298  0.0985
  121OSM   H13S12790   3.864   3.347   7.564  0.1889  0.4320  0.0855
  121OSM   H13T12791   3.705   3.264   7.578 -0.8472  0.3816  1.5017
  121OSM   C14S12792   3.720   3.435   7.703 -0.1307  0.3936 -0.0878
  121OSM   H14S12793   3.609   3.434   7.712 -0.1208  0.2349  0.0263
  121OSM   H14T12794   3.753   3.541   7.700 -1.8554  0.9963  1.1998
  121OSM   C15S12795   3.783   3.369   7.830  0.3635 -0.2310  0.0590
  121OSM   H15S12796   3.892   3.390   7.829  0.6194 -1.5085  0.1862
  121OSM   H15T12797   3.760   3.260   7.827  1.0729 -0.3859  0.3421
  121OSM   C16S12798   3.709   3.424   7.955 -0.7973  1.1200 -0.2256
  121OSM   H16S12799   3.598   3.425   7.954 -0.7925  0.5344 -3.1304
  121OSM   H16T12800   3.738   3.531   7.961 -0.1179  0.8877  0.8936
  121OSM   C17S12801   3.755   3.363   8.081 -0.0033 -0.3339  0.3322
  121OSM   H17S12802   3.721   3.435   8.159 -1.7099 -1.7612  0.9357
  121OSM   H17T12803   3.866   3.354   8.075 -0.0427 -1.7762  1.4189
  121OSM   C18S12804   3.693   3.222   8.110  1.3732 -0.8889 -0.9161
  121OSM   H18S12805   3.738   3.171   8.198 -0.8087  1.1533  1.4461
  121OSM   H18T12806   3.699   3.145   8.030  2.1075 -2.5949  0.7315
  121OSM   H18U12807   3.589   3.242   8.142  2.2497 -0.2083  1.5583
  121OSM    C1F12808   3.998   3.136   6.515 -0.1521  1.0303  0.6115
  121OSM     OF12809   4.065   3.177   6.420  0.9270 -0.0332  0.5495
  121OSM    C2F12810   4.061   3.069   6.630  0.1602 -0.3098 -0.4334
  121OSM    H2F12811   4.083   2.962   6.610  1.9001 -0.4574  1.9940
  121OSM    H2G12812   3.982   3.065   6.709 -1.2705 -1.3849 -1.8928
  121OSM    C3F12813   4.184   3.140   6.683  0.0890 -0.0873 -0.0191
  121OSM    H3F12814   4.157   3.247   6.675  2.5958  0.4418 -2.4140
  121OSM    H3G12815   4.268   3.130   6.611  0.0604  0.8233 -0.1820
  121OSM    C4F12816   4.226   3.102   6.829  0.9451  0.3218 -0.0476
  121OSM    H4F12817   4.332   3.135   6.834  1.3532 -1.2106  2.0716
  121OSM    H4G12818   4.232   2.992   6.839  1.4649  0.3903  0.4366
  121OSM    C5F12819   4.154   3.173   6.949  0.2244 -0.1253 -0.0381
  121OSM    H5F12820   4.057   3.120   6.958  0.6118 -0.5230  2.1979
  121OSM    H5G12821   4.139   3.281   6.931  1.6697  0.4202  1.8221
  121OSM    C6F12822   4.230   3.145   7.078 -0.1316 -0.1141 -0.2008
  121OSM    H6F12823   4.331   3.192   7.076 -0.3603  0.3621 -0.6769
  121OSM    H6G12824   4.248   3.036   7.085 -0.3710 -0.0771  1.2139
  121OSM    C7F12825   4.154   3.200   7.196  0.2559  0.0329  0.3649
  121OSM    H7F12826   4.054   3.153   7.182  1.2367 -2.2188  0.8113
  121OSM    H7G12827   4.147   3.310   7.177 -0.3145 -0.1790 -0.7132
  121OSM    C8F12828   4.224   3.160   7.327  0.4327  0.5863 -0.9522
  121OSM    H8F12829   4.326   3.205   7.336  0.8888 -0.5307 -0.3278
  121OSM    H8G12830   4.245   3.051   7.330  0.8655  0.6758 -0.6617
  121OSM    C9F12831   4.138   3.204   7.445 -0.1009  0.0741 -0.0680
  121OSM    H9F12832   4.163   3.305   7.481 -1.9696  1.0446 -1.3965
  121OSM   C10F12833   4.050   3.128   7.508 -0.8831 -0.8518 -0.1191
  121OSM   H10F12834   3.988   3.178   7.584  0.2731 -1.8598  1.5299
  121OSM   C11F12835   4.021   2.986   7.469  0.5312  0.2725 -0.7738
  121OSM   H11F12836   4.108   2.930   7.508 -0.2088 -0.9896 -0.9218
  121OSM   H11G12837   4.011   2.969   7.359  1.3056 -0.0519 -0.7945
  121OSM   C12F12838   3.895   2.920   7.541 -0.2337 -0.7398  0.2189
  121OSM   H12F12839   3.907   2.943   7.649  0.8613 -1.7171  0.3136
  121OSM   H12G12840   3.907   2.813   7.517 -0.0435 -0.5368 -0.6170
  121OSM   C13F12841   3.769   2.972   7.475 -0.3078 -0.2768  0.0563
  121OSM   H13F12842   3.755   3.081   7.493  0.5416 -0.1958  0.2505
  121OSM   H13G12843   3.697   2.904   7.526  0.6043 -2.4430 -1.4539
  121OSM   C14F12844   3.751   2.953   7.323  1.6438  0.2607  0.7752
  121OSM   H14F12845   3.835   3.009   7.277 -0.4994  1.1313 -2.2067
  121OSM   H14G12846   3.658   3.011   7.308  1.0172 -0.9619 -0.1419
  121OSM   C15F12847   3.739   2.815   7.264 -0.2053  0.5158  0.5052
  121OSM   H15F12848   3.656   2.757   7.309 -0.0780 -0.3701 -0.3692
  121OSM   H15G12849   3.835   2.765   7.291 -0.7261 -0.6705  0.2031
  121OSM   C16F12850   3.720   2.807   7.110  0.1374  0.0980 -0.0698
  121OSM   H16F12851   3.621   2.852   7.085  0.3888  0.1941 -0.9056
  121OSM   H16G12852   3.719   2.700   7.078 -0.9284  0.5122 -1.4972
  121OSM   C17F12853   3.821   2.878   7.027  0.0497  0.1595 -0.1463
  121OSM   H17F12854   3.819   2.986   7.052 -0.9235  0.0664  0.2156
  121OSM   H17G12855   3.802   2.875   6.918 -0.4294  0.2972 -0.0678
  121OSM   C18F12856   3.957   2.823   7.051 -0.1149  0.0941 -0.4242
  121OSM   H18F12857   4.039   2.874   6.997  1.3406 -2.3251 -0.5667
  121OSM   H18G12858   3.969   2.712   7.046  3.9618  0.4869 -0.5227
  121OSM   H18H12859   3.987   2.844   7.156 -0.4505 -1.3821 -0.0214
  122OSM      N12860   3.182   5.424   5.682 -0.3711 -0.3845  0.2849
  122OSM    C1512861   3.072   5.447   5.594  0.5652  0.1416  0.2745
  122OSM   H15A12862   3.063   5.379   5.511  2.3800  0.4106 -0.1559
  122OSM   H15B12863   3.060   5.549   5.561 -1.6597 -0.8135 -2.0315
  122OSM   H15C12864   2.985   5.442   5.658  2.2254  1.3792  2.7175
  122OSM    C1412865   3.178   5.288   5.730  0.5744 -0.0795 -0.5771
  122OSM   H14A12866   3.261   5.280   5.799  0.4134 -0.1500 -0.3928
  122OSM   H14B12867   3.176   5.213   5.652  1.7979 -1.4910  0.7276
  122OSM   H14C12868   3.089   5.276   5.789 -0.0539  0.6220 -1.3619
  122OSM    C1312869   3.310   5.440   5.604 -0.3758  0.1529 -0.3199
  122OSM   H13A12870   3.301   5.530   5.544  0.2254 -0.2121 -0.9591
  122OSM   H13B12871   3.319   5.359   5.533  0.2965 -1.2972  1.3933
  122OSM   H13C12872   3.399   5.437   5.665 -2.0807 -2.9275  2.0856
  122OSM    C1212873   3.173   5.524   5.798  0.4245 -1.0378 -0.6375
  122OSM   H12A12874   3.191   5.625   5.766 -1.2115 -0.7568 -0.7335
  122OSM   H12B12875   3.252   5.507   5.869 -0.3040  0.6334  0.6078
  122OSM    C1112876   3.037   5.526   5.877  0.4825 -0.1823  0.5951
  122OSM   H11A12877   2.942   5.540   5.821  0.6754 -1.0511  0.0308
  122OSM   H11B12878   3.033   5.615   5.942  0.6981 -0.2186  0.6576
  122OSM      P12879   2.905   5.391   6.062  0.3323 -0.1505 -0.8807
  122OSM    O1312880   2.777   5.443   6.016  0.2790 -0.2512 -0.3218
  122OSM    O1412881   2.909   5.253   6.104  0.2528 -0.5932 -0.3544
  122OSM    O1112882   2.956   5.477   6.188  0.1962  0.4401 -0.0288
  122OSM    O1212883   3.022   5.404   5.954  0.1367 -0.1326  0.2165
  122OSM    C1S12884   3.092   5.452   6.235  0.4105 -1.0730  0.3101
  122OSM    H1S12885   3.159   5.536   6.206 -1.3521  1.1165  2.3524
  122OSM    H1T12886   3.144   5.363   6.194  0.8988  0.6396 -2.9914
  122OSM     NF12887   3.217   5.373   6.422  0.3084 -0.3177 -0.2985
  122OSM    HNF12888   3.208   5.279   6.453 -1.6117 -0.1724 -0.3320
  122OSM    C2S12889   3.088   5.436   6.396 -0.7881 -0.0232  0.0106
  122OSM    H2S12890   3.090   5.539   6.437 -2.4157  0.1724 -0.3590
  122OSM    C3S12891   2.971   5.357   6.461 -0.5748  0.5813 -0.5119
  122OSM    H3S12892   2.968   5.253   6.421  1.1950  1.1518 -2.2182
  122OSM     O312893   2.833   5.414   6.437  0.2732  0.1181 -0.1120
  122OSM    HO312894   2.849   5.492   6.384 -1.2169  1.8508  1.9042
  122OSM    C4S12895   3.003   5.355   6.606 -0.1535 -0.7316  0.1230
  122OSM    H4S12896   3.053   5.262   6.638 -0.1747 -1.1523 -1.0543
  122OSM    C5S12897   2.983   5.451   6.694 -0.3276 -0.3247  0.2030
  122OSM    H5S12898   2.931   5.545   6.669 -0.0889 -1.3816 -4.6566
  122OSM    C6S12899   3.028   5.441   6.841  0.2402  0.2825  0.1279
  122OSM    H6S12900   3.099   5.525   6.858 -1.1167  1.6130 -0.6257
  122OSM    H6T12901   3.097   5.356   6.859  0.3902  0.3470 -0.1364
  122OSM    C7S12902   2.906   5.435   6.933  0.2286  0.1434 -0.0281
  122OSM    H7S12903   2.857   5.335   6.922 -2.0550  1.2737 -0.4851
  122OSM    H7T12904   2.829   5.514   6.921  2.0133  2.3106  2.3781
  122OSM    C8S12905   2.946   5.448   7.082  0.0771 -0.4600 -0.3772
  122OSM    H8S12906   2.953   5.557   7.106  1.8521 -0.8933  1.1477
  122OSM    H8T12907   3.047   5.405   7.098 -0.1073 -1.4602 -1.8573
  122OSM    C9S12908   2.846   5.371   7.175 -0.7034 -0.2797 -0.5785
  122OSM    H9S12909   2.821   5.270   7.136  1.5931 -0.8929 -0.5170
  122OSM    H9T12910   2.753   5.431   7.176 -0.6002 -0.1189 -0.6436
  122OSM   C10S12911   2.915   5.370   7.312  0.3189  0.3963 -0.3998
  122OSM   H10S12912   2.960   5.469   7.330  2.0045 -0.0080 -2.1703
  122OSM   H10T12913   3.002   5.302   7.300  0.7779  0.5941  1.6830
  122OSM   C11S12914   2.828   5.319   7.425  1.1909  0.0069  0.3327
  122OSM   H11S12915   2.760   5.234   7.403 -0.1166  1.1164  0.0576
  122OSM   H11T12916   2.767   5.406   7.460  1.0879  0.0034  0.1596
  122OSM   C12S12917   2.913   5.279   7.543  0.9682  0.1873  0.0471
  122OSM   H12S12918   2.969   5.365   7.585  0.2687  0.1050  1.1567
  122OSM   H12T12919   2.983   5.194   7.528 -2.5100 -2.8778  0.4660
  122OSM   C13S12920   2.832   5.231   7.673 -0.4016  0.3157  0.5174
  122OSM   H13S12921   2.895   5.163   7.735  1.3322  0.0229 -1.4997
  122OSM   H13T12922   2.749   5.169   7.632 -0.7167  0.6751  0.6176
  122OSM   C14S12923   2.779   5.348   7.759  0.6459 -0.0342  0.4770
  122OSM   H14S12924   2.699   5.404   7.706  1.5302  2.1131  1.3755
  122OSM   H14T12925   2.864   5.418   7.773 -0.0084  0.9678 -0.5007
  122OSM   C15S12926   2.726   5.295   7.894  0.2839  0.2926  0.3204
  122OSM   H15S12927   2.808   5.240   7.944  0.0837  0.2322  0.5790
  122OSM   H15T12928   2.654   5.215   7.868  1.7321 -0.2556 -2.1978
  122OSM   C16S12929   2.668   5.392   7.996  0.6350  0.3594  0.0022
  122OSM   H16S12930   2.574   5.432   7.951 -0.4222 -1.2205  0.7627
  122OSM   H16T12931   2.732   5.477   8.029  0.3026 -0.2632  2.3302
  122OSM   C17S12932   2.637   5.313   8.126 -0.2006 -0.3100 -0.5288
  122OSM   H17S12933   2.731   5.329   8.182 -0.6723  1.2939 -0.1654
  122OSM   H17T12934   2.612   5.206   8.108  0.6381 -0.9399  1.9129
  122OSM   C18S12935   2.531   5.383   8.211  0.2086 -0.0629 -0.0157
  122OSM   H18S12936   2.512   5.351   8.316 -0.3885  2.6127  0.7258
  122OSM   H18T12937   2.435   5.369   8.156  0.1444  0.5825 -0.0648
  122OSM   H18U12938   2.547   5.492   8.203  3.2065 -0.5328 -1.3399
  122OSM    C1F12939   3.337   5.432   6.390  0.3542  0.1376  0.0690
  122OSM     OF12940   3.348   5.540   6.336  0.2502 -0.3684  0.7149
  122OSM    C2F12941   3.453   5.350   6.432 -0.3211  0.3694  0.2364
  122OSM    H2F12942   3.519   5.327   6.346 -2.8183 -0.0285 -1.5976
  122OSM    H2G12943   3.427   5.256   6.485  0.5121 -0.0397 -0.0689
  122OSM    C3F12944   3.532   5.430   6.537 -0.6408 -0.2075 -0.4208
  122OSM    H3F12945   3.587   5.515   6.493  2.0779  0.3791  3.7958
  122OSM    H3G12946   3.616   5.363   6.568 -0.7409 -0.0648  0.1597
  122OSM    C4F12947   3.456   5.493   6.651 -0.3815  0.3594 -0.3889
  122OSM    H4F12948   3.386   5.422   6.700  0.8283 -0.4531  0.1686
  122OSM    H4G12949   3.395   5.570   6.599  0.9714  0.0872 -2.4219
  122OSM    C5F12950   3.549   5.576   6.743  0.7519 -0.8497 -0.2919
  122OSM    H5F12951   3.502   5.629   6.828 -0.6123  0.3886 -1.7786
  122OSM    H5G12952   3.615   5.637   6.677 -0.3632  0.4451 -0.2313
  122OSM    C6F12953   3.653   5.483   6.808  0.0808 -0.2323 -0.4416
  122OSM    H6F12954   3.727   5.531   6.875 -2.1701  0.4008  1.6785
  122OSM    H6G12955   3.703   5.437   6.721  1.3728  1.9762 -0.9060
  122OSM    C7F12956   3.593   5.363   6.886 -0.2029 -0.0791  0.2464
  122OSM    H7F12957   3.685   5.313   6.922  0.8290  0.5754 -1.4041
  122OSM    H7G12958   3.532   5.296   6.821  2.2906 -3.1254  0.9517
  122OSM    C8F12959   3.498   5.409   7.000 -0.3141  0.0994 -0.0527
  122OSM    H8F12960   3.462   5.322   7.059 -0.3080  1.6975  2.3976
  122OSM    H8G12961   3.403   5.444   6.955 -0.8224 -0.6118  0.4392
  122OSM    C9F12962   3.555   5.512   7.097  0.7701  0.2916 -0.1684
  122OSM    H9F12963   3.662   5.532   7.084  0.3826  1.9145 -1.0371
  122OSM   C10F12964   3.470   5.582   7.181 -0.3917  0.3667 -0.0888
  122OSM   H10F12965   3.521   5.664   7.233 -0.0215 -2.0763  3.5955
  122OSM   C11F12966   3.325   5.572   7.212  0.5632 -0.4525 -0.0611
  122OSM   H11F12967   3.263   5.510   7.144  1.8876 -0.7977 -0.9697
  122OSM   H11G12968   3.278   5.672   7.203  1.0074 -0.3955 -1.7462
  122OSM   C12F12969   3.293   5.492   7.342  0.9355 -0.2488  0.1239
  122OSM   H12F12970   3.354   5.399   7.342  0.2751 -0.6879  0.4075
  122OSM   H12G12971   3.184   5.469   7.339  0.2047  3.1040 -1.4443
  122OSM   C13F12972   3.315   5.558   7.478  0.4422  0.2919  0.6390
  122OSM   H13F12973   3.271   5.660   7.476  0.2956  0.2159 -0.3535
  122OSM   H13G12974   3.421   5.578   7.507  0.5623  0.3139  0.1918
  122OSM   C14F12975   3.245   5.478   7.591  0.0588 -0.1340 -0.6708
  122OSM   H14F12976   3.256   5.374   7.554 -1.3796 -0.5110 -0.0689
  122OSM   H14G12977   3.138   5.507   7.602 -0.0902 -0.2011 -1.8329
  122OSM   C15F12978   3.307   5.494   7.727 -0.5837  0.3922  0.5583
  122OSM   H15F12979   3.342   5.596   7.754 -2.0352  1.3153 -0.9589
  122OSM   H15G12980   3.398   5.430   7.725 -0.5500  0.3710  2.0075
  122OSM   C16F12981   3.212   5.433   7.829 -0.0131  0.0670 -0.1056
  122OSM   H16F12982   3.180   5.328   7.809 -2.4942  0.7069  0.3273
  122OSM   H16G12983   3.114   5.485   7.827  0.5275  1.0481 -2.7269
  122OSM   C17F12984   3.280   5.431   7.970  0.2429 -1.0275 -0.3374
  122OSM   H17F12985   3.340   5.524   7.974 -0.1798 -0.8668  3.1776
  122OSM   H17G12986   3.342   5.339   7.962  1.1836 -0.4388  0.0921
  122OSM   C18F12987   3.174   5.427   8.077  0.8225 -0.2850  0.1653
  122OSM   H18F12988   3.214   5.407   8.178 -1.0382 -0.0432  0.9821
  122OSM   H18G12989   3.096   5.352   8.051 -0.4699  0.4294  1.8576
  122OSM   H18H12990   3.121   5.524   8.090 -0.8543 -0.9686 -1.2875
  123OSM      N12991   0.091   0.696   5.989  0.0511  0.2090  0.7184
  123OSM    C1512992   0.148   0.559   5.975  0.2232  0.4709 -0.5075
  123OSM   H15A12993   0.102   0.509   5.891 -0.4941  1.3113 -0.6280
  123OSM   H15B12994   0.142   0.499   6.064  0.8258  1.4289  0.1964
  123OSM   H15C12995   0.252   0.576   5.952 -0.2397  2.3657 -1.3487
  123OSM    C1412996   0.093   0.761   5.853 -0.6918 -0.2018  0.5584
  123OSM   H14A12997   0.195   0.763   5.820  0.2244  2.6873  3.4248
  123OSM   H14B12998   0.063   0.863   5.869 -0.4518 -0.0875  0.2672
  123OSM   H14C12999   0.039   0.710   5.774  2.0394  0.3674 -1.7411
  123OSM    C1313000  -0.053   0.701   6.019  0.6296 -0.7223  0.6831
  123OSM   H13A13001  -0.102   0.604   6.016 -0.5848 -0.0718 -1.0200
  123OSM   H13B13002  -0.112   0.774   5.966  0.9776 -1.8857 -1.4084
  123OSM   H13C13003  -0.066   0.724   6.123  2.3635  1.5721  0.4301
  123OSM    C1213004   0.167   0.782   6.089  0.0266 -0.2002 -0.2193
  123OSM   H12A13005   0.134   0.885   6.084  1.6542  0.3729  0.5677
  123OSM   H12B13006   0.272   0.787   6.066 -0.2916  1.4802 -1.4271
  123OSM    C1113007   0.160   0.747   6.245  0.1222 -0.2596 -0.9163
  123OSM   H11A13008   0.245   0.790   6.302 -0.1192  0.6489 -1.2225
  123OSM   H11B13009   0.165   0.637   6.257 -2.0507 -0.0192  3.2030
  123OSM      P13010   0.015   0.939   6.315  0.0642  0.0005  0.3379
  123OSM    O1313011   0.128   1.021   6.273  0.0037 -0.2079  0.2976
  123OSM    O1413012  -0.118   0.954   6.251  0.0908 -0.0210  0.1885
  123OSM    O1113013   0.002   0.947   6.474  0.2814  0.0206  0.3901
  123OSM    O1213014   0.042   0.785   6.303  0.1122  0.5535  0.3988
  123OSM    C1S13015   0.092   0.881   6.564 -0.2427 -0.4805 -0.2636
  123OSM    H1S13016   0.199   0.905   6.547 -0.9780  1.0588 -2.8730
  123OSM    H1T13017   0.070   0.774   6.546  0.6983 -0.6572 -0.3687
  123OSM     NF13018   0.162   0.829   6.800 -0.9393 -0.2686 -0.0788
  123OSM    HNF13019   0.128   0.769   6.872  0.1335 -0.1866  0.4937
  123OSM    C2S13020   0.063   0.905   6.719  0.3262 -1.1663  0.7178
  123OSM    H2S13021   0.081   1.014   6.732 -0.5206 -1.0092  0.6601
  123OSM    C3S13022  -0.089   0.887   6.768 -0.1128  0.3564 -0.2206
  123OSM    H3S13023  -0.108   0.778   6.755 -1.2060  0.3150  1.4692
  123OSM     O313024  -0.176   0.964   6.689  0.4954  0.1457  0.2010
  123OSM    HO313025  -0.127   0.986   6.609 -0.7364 -2.3108 -1.2828
  123OSM    C4S13026  -0.102   0.918   6.921  0.1649 -0.0971 -0.2671
  123OSM    H4S13027  -0.076   0.830   6.982 -0.3268 -1.5141 -2.0897
  123OSM    C5S13028  -0.124   1.034   6.987 -0.3540  0.0790 -0.2477
  123OSM    H5S13029  -0.125   1.132   6.937 -0.7085  0.5698  0.7135
  123OSM    C6S13030  -0.146   1.044   7.139  0.3707  0.3623  0.1398
  123OSM    H6S13031  -0.243   1.095   7.159 -0.7667 -1.2663 -1.1233
  123OSM    H6T13032  -0.072   1.113   7.185 -0.0672  2.3584 -2.0807
  123OSM    C7S13033  -0.148   0.919   7.229 -0.1752 -0.0950  0.4257
  123OSM    H7S13034  -0.064   0.849   7.209  0.3177  0.7154 -0.3885
  123OSM    H7T13035  -0.237   0.867   7.187  0.3808 -0.7062 -0.0111
  123OSM    C8S13036  -0.143   0.957   7.372  0.4963 -0.4255 -0.2037
  123OSM    H8S13037  -0.219   1.031   7.403 -1.5767 -2.5169 -0.2154
  123OSM    H8T13038  -0.042   1.001   7.390  0.6525 -0.9987  0.3144
  123OSM    C9S13039  -0.178   0.829   7.447  0.2339  0.3685  0.1133
  123OSM    H9S13040  -0.136   0.737   7.403 -1.9935 -0.3335 -0.6153
  123OSM    H9T13041  -0.288   0.833   7.431  0.5004 -0.4228 -2.0714
  123OSM   C10S13042  -0.143   0.826   7.601  0.4363  0.2616 -0.0703
  123OSM   H10S13043  -0.193   0.736   7.641  0.1225  0.3216 -0.3310
  123OSM   H10T13044  -0.168   0.920   7.655  1.8880  1.0164 -0.6729
  123OSM   C11S13045   0.008   0.805   7.627  0.3040 -0.0607  0.0841
  123OSM   H11S13046   0.069   0.890   7.591 -0.0555  0.1464 -0.0284
  123OSM   H11T13047   0.046   0.713   7.577 -0.7181 -1.4044  1.7238
  123OSM   C12S13048   0.034   0.784   7.784  0.4444  0.2565  0.6191
  123OSM   H12S13049   0.116   0.711   7.798 -1.0379 -1.6620 -0.3990
  123OSM   H12T13050  -0.060   0.741   7.826 -0.1205 -0.4031 -1.2763
  123OSM   C13S13051   0.072   0.910   7.859 -0.7123 -0.1415 -0.3909
  123OSM   H13S13052  -0.029   0.952   7.877 -0.5165  1.1054 -2.1551
  123OSM   H13T13053   0.120   0.974   7.782  1.9328  1.0205  2.1145
  123OSM   C14S13054   0.164   0.905   7.978 -0.7879 -0.2531 -0.2932
  123OSM   H14S13055   0.248   0.837   7.955 -1.1729 -0.6014 -0.6735
  123OSM   H14T13056   0.118   0.873   8.074 -0.6407 -2.7231 -1.0163
  123OSM   C15S13057   0.230   1.045   8.003  0.0915  0.2316  0.0177
  123OSM   H15S13058   0.149   1.121   8.002 -1.4374 -1.3676 -1.0073
  123OSM   H15T13059   0.304   1.059   7.921  0.8608 -2.7779  0.1320
  123OSM   C16S13060   0.296   1.055   8.144 -1.0362  0.4997  0.0453
  123OSM   H16S13061   0.382   0.986   8.157  1.1279  3.4923  2.2784
  123OSM   H16T13062   0.224   1.025   8.223 -0.0021  0.4499  0.9892
  123OSM   C17S13063   0.355   1.195   8.173 -0.7753 -0.3900  0.3333
  123OSM   H17S13064   0.275   1.272   8.178 -0.4340  0.0306 -0.6583
  123OSM   H17T13065   0.411   1.227   8.082 -0.6107 -1.5610  0.0165
  123OSM   C18S13066   0.456   1.212   8.286  0.4721  0.7050  0.0402
  123OSM   H18S13067   0.419   1.162   8.378 -0.9992  0.7007 -0.5565
  123OSM   H18T13068   0.469   1.320   8.308  1.6076  0.9994 -1.9544
  123OSM   H18U13069   0.555   1.168   8.258  0.0972  0.3903 -0.7956
  123OSM    C1F13070   0.291   0.852   6.801  0.0863 -0.1631  0.7492
  123OSM     OF13071   0.344   0.939   6.729 -0.0532  0.8943  0.2030
  123OSM    C2F13072   0.378   0.767   6.893 -0.3258 -0.2490  0.7931
  123OSM    H2F13073   0.467   0.743   6.832  0.6121 -0.4407  2.2038
  123OSM    H2G13074   0.334   0.667   6.913  0.0064 -0.6817 -0.6158
  123OSM    C3F13075   0.411   0.847   7.024 -0.0053  0.1884  0.3794
  123OSM    H3F13076   0.438   0.950   6.995  1.1324  0.0011  0.7427
  123OSM    H3G13077   0.502   0.803   7.070  0.7775 -0.7616 -1.9697
  123OSM    C4F13078   0.299   0.855   7.128  0.5835 -0.7294 -0.3343
  123OSM    H4F13079   0.246   0.758   7.143 -0.3365  0.1313  2.2609
  123OSM    H4G13080   0.216   0.921   7.093 -0.2886 -0.5900  1.8847
  123OSM    C5F13081   0.350   0.916   7.258  0.1330 -0.5160 -0.3416
  123OSM    H5F13082   0.426   0.989   7.225 -1.5410  1.4552  0.0752
  123OSM    H5G13083   0.390   0.845   7.333  3.1655  2.7496  1.2396
  123OSM    C6F13084   0.247   0.991   7.338 -0.2871 -1.0736 -0.3373
  123OSM    H6F13085   0.180   0.919   7.390  0.3317  0.2486  2.3836
  123OSM    H6G13086   0.191   1.053   7.265  3.5796  0.3666 -2.1873
  123OSM    C7F13087   0.305   1.090   7.442  0.4774  0.1260  0.2993
  123OSM    H7F13088   0.381   1.158   7.398  0.1966 -0.7348 -1.5543
  123OSM    H7G13089   0.353   1.016   7.510 -0.1515 -1.4442 -0.9383
  123OSM    C8F13090   0.202   1.170   7.521 -0.3049  1.1313  0.3282
  123OSM    H8F13091   0.258   1.223   7.600  1.2758  0.2242 -0.1681
  123OSM    H8G13092   0.130   1.104   7.575  0.2303  0.0670 -0.2468
  123OSM    C9F13093   0.129   1.268   7.434  0.7645 -0.4665  0.2207
  123OSM    H9F13094   0.042   1.225   7.382 -0.0790 -0.1554  1.3729
  123OSM   C10F13095   0.141   1.399   7.434 -0.0575 -0.7950 -0.5582
  123OSM   H10F13096   0.085   1.468   7.370  1.9970  0.1300 -1.4131
  123OSM   C11F13097   0.236   1.487   7.510 -0.7580  0.4625 -0.3182
  123OSM   H11F13098   0.328   1.514   7.453 -0.1159  0.3897  0.6811
  123OSM   H11G13099   0.275   1.434   7.599  1.9713  1.8756 -0.6056
  123OSM   C12F13100   0.176   1.618   7.564 -0.5905  0.3533  0.1898
  123OSM   H12F13101   0.087   1.590   7.623 -0.9509 -0.4507 -0.7197
  123OSM   H12G13102   0.141   1.685   7.483  2.3829  2.5610  0.6521
  123OSM   C13F13103   0.272   1.704   7.652  0.0419  0.4291  0.7939
  123OSM   H13F13104   0.334   1.643   7.721  1.1144 -0.7735 -1.1864
  123OSM   H13G13105   0.214   1.772   7.718 -0.0892 -0.0990  1.2244
  123OSM   C14F13106   0.365   1.786   7.556  0.0588  0.6064  0.1281
  123OSM   H14F13107   0.302   1.853   7.495 -0.8205 -0.6812 -0.4017
  123OSM   H14G13108   0.402   1.710   7.484  0.1275  0.7142  0.0518
  123OSM   C15F13109   0.483   1.848   7.636 -0.3699 -0.2723 -0.2231
  123OSM   H15F13110   0.558   1.900   7.572  0.0102  0.3399  0.7118
  123OSM   H15G13111   0.529   1.758   7.682 -0.3336 -1.0587 -1.7683
  123OSM   C16F13112   0.450   1.943   7.753 -0.4494 -1.0434 -0.8023
  123OSM   H16F13113   0.358   1.999   7.726 -0.3713 -0.9101 -0.7925
  123OSM   H16G13114   0.539   2.009   7.761 -0.2503 -1.2373 -1.3551
  123OSM   C17F13115   0.426   1.869   7.883  0.6229 -0.3849  0.2178
  123OSM   H17F13116   0.515   1.803   7.894  0.2058 -0.9167  0.4340
  123OSM   H17G13117   0.346   1.792   7.886  0.4924 -0.2267  0.6980
  123OSM   C18F13118   0.410   1.955   8.008  0.4762  0.0207 -0.0671
  123OSM   H18F13119   0.422   1.911   8.109  1.7992  2.3898  0.8665
  123OSM   H18G13120   0.307   1.996   8.015  1.6277  2.6864  1.9469
  123OSM   H18H13121   0.480   2.041   8.010  2.3525 -1.5023  0.8690
  124OSM      N13122   1.277   3.818   6.287 -0.3430  0.2345  0.6642
  124OSM    C1513123   1.218   3.955   6.281 -0.2608 -0.0932 -0.3377
  124OSM   H15A13124   1.254   4.019   6.360 -1.0082 -0.5213  0.3668
  124OSM   H15B13125   1.115   3.932   6.306 -1.0312  0.8052 -2.5940
  124OSM   H15C13126   1.233   4.007   6.188 -2.1526  3.5490  1.3100
  124OSM    C1413127   1.214   3.744   6.404  0.9136 -0.2965 -0.1300
  124OSM   H14A13128   1.249   3.642   6.401 -2.1360 -1.4859  1.9840
  124OSM   H14B13129   1.108   3.730   6.387  1.0433 -1.3286 -0.1245
  124OSM   H14C13130   1.244   3.782   6.500 -1.7103  1.1036  0.1744
  124OSM    C1313131   1.248   3.756   6.154 -0.0140 -0.3028 -0.9524
  124OSM   H13A13132   1.283   3.654   6.152  1.1910  0.0644  0.5568
  124OSM   H13B13133   1.293   3.814   6.075  0.1902  1.8123  0.6582
  124OSM   H13C13134   1.141   3.755   6.136 -0.2695  2.7816  0.1200
  124OSM    C1213135   1.429   3.826   6.300  0.7567  0.6528 -0.3900
  124OSM   H12A13136   1.456   3.728   6.337 -1.9690 -0.2627 -0.6767
  124OSM   H12B13137   1.448   3.893   6.382  0.2689  1.3954 -0.8719
  124OSM    C1113138   1.519   3.854   6.175  0.4318  0.4233  0.6444
  124OSM   H11A13139   1.481   3.780   6.101  0.3942  0.4611  0.6260
  124OSM   H11B13140   1.627   3.833   6.189  0.5166 -1.0651 -2.0208
  124OSM      P13141   1.555   4.114   6.185 -0.4465 -0.2178  0.0880
  124OSM    O1313142   1.676   4.164   6.115  0.1344  0.2203  0.0065
  124OSM    O1413143   1.441   4.207   6.186 -0.4271  0.7008  0.0828
  124OSM    O1113144   1.602   4.062   6.328  0.8166 -0.6397 -0.0525
  124OSM    O1213145   1.496   3.979   6.118 -0.2745 -0.8130  0.4662
  124OSM    C1S13146   1.625   4.161   6.423  0.3022  0.3107 -0.2282
  124OSM    H1S13147   1.525   4.192   6.460 -1.5051 -1.5322 -3.3966
  124OSM    H1T13148   1.672   4.253   6.383  2.5771  0.7195  3.1238
  124OSM     NF13149   1.731   4.205   6.643 -0.8636 -0.5071 -0.0608
  124OSM    HNF13150   1.823   4.241   6.653 -0.7439 -0.8337  0.0126
  124OSM    C2S13151   1.710   4.113   6.541  0.1417  0.9723 -0.5088
  124OSM    H2S13152   1.651   4.032   6.588  1.3296 -0.2561 -1.0801
  124OSM    C3S13153   1.837   4.039   6.492 -0.5694  0.2528  0.0525
  124OSM    H3S13154   1.903   4.113   6.440 -1.6271  1.4997  0.4464
  124OSM     O313155   1.818   3.937   6.401 -0.6149 -0.6902 -0.0579
  124OSM    HO313156   1.730   3.962   6.374 -1.2590 -0.3028  2.3278
  124OSM    C4S13157   1.930   3.996   6.604 -0.1098  0.0244  0.8418
  124OSM    H4S13158   2.011   4.070   6.607  1.1379 -1.2784  0.0792
  124OSM    C5S13159   1.928   3.903   6.698  0.1501 -0.9393  0.3818
  124OSM    H5S13160   1.838   3.840   6.703  0.5798 -1.7705 -1.9275
  124OSM    C6S13161   2.032   3.884   6.802  0.2940  0.5438  0.1197
  124OSM    H6S13162   2.107   3.966   6.801 -0.2873  1.0893  0.7895
  124OSM    H6T13163   2.090   3.790   6.788 -0.4331  0.0646  0.2980
  124OSM    C7S13164   1.980   3.892   6.948  0.7643 -0.4090 -0.0732
  124OSM    H7S13165   1.889   3.831   6.969 -1.8469  3.1076 -0.6649
  124OSM    H7T13166   1.929   3.991   6.946 -1.2844 -1.4294 -0.5944
  124OSM    C8S13167   2.093   3.879   7.060  1.0649 -0.0536  0.2264
  124OSM    H8S13168   2.165   3.959   7.031 -1.5508  2.0557 -0.6609
  124OSM    H8T13169   2.133   3.777   7.042  2.6273  0.6113 -0.1912
  124OSM    C9S13170   2.041   3.904   7.202 -0.7254  0.4986 -0.2506
  124OSM    H9S13171   1.953   3.844   7.231 -0.5335  1.1188  1.7469
  124OSM    H9T13172   2.012   4.011   7.210  1.6510  1.0956  0.9373
  124OSM   C10S13173   2.148   3.877   7.311  0.4052  0.2785  0.4425
  124OSM   H10S13174   2.244   3.932   7.307  1.1513 -1.0967 -2.0494
  124OSM   H10T13175   2.176   3.773   7.283 -3.3200 -0.5850 -0.4234
  124OSM   C11S13176   2.094   3.866   7.452  0.4002  0.1170 -0.1237
  124OSM   H11S13177   2.021   3.783   7.469  0.0953  0.0041 -1.8967
  124OSM   H11T13178   2.050   3.964   7.479 -0.2097 -0.2292  0.1580
  124OSM   C12S13179   2.209   3.864   7.554  0.3472  0.3399  0.3819
  124OSM   H12S13180   2.272   3.954   7.538 -0.2416  0.2524 -2.6932
  124OSM   H12T13181   2.259   3.767   7.534 -1.6413 -0.9277  1.4463
  124OSM   C13S13182   2.167   3.848   7.700 -0.4810 -0.1008 -0.0740
  124OSM   H13S13183   2.115   3.942   7.728 -2.2656 -1.9051  2.8597
  124OSM   H13T13184   2.260   3.840   7.760 -0.6106 -0.3317  0.0947
  124OSM   C14S13185   2.083   3.726   7.731  0.0205 -0.0846  0.7030
  124OSM   H14S13186   2.152   3.641   7.711 -0.4462 -0.2737 -0.1034
  124OSM   H14T13187   1.991   3.714   7.669 -0.6772  1.9172  1.3048
  124OSM   C15S13188   2.058   3.709   7.880 -0.3920  0.4871 -0.0008
  124OSM   H15S13189   2.156   3.700   7.932 -1.2959 -0.3089  1.6134
  124OSM   H15T13190   2.006   3.616   7.913  0.2778  0.6528  1.5780
  124OSM   C16S13191   1.974   3.832   7.939  0.5973  0.2641  0.2227
  124OSM   H16S13192   1.880   3.814   7.883  1.2477  1.7737 -1.3925
  124OSM   H16T13193   2.023   3.930   7.916 -1.6743  0.9278 -1.9754
  124OSM   C17S13194   1.953   3.821   8.090  0.0360  0.3203 -0.8812
  124OSM   H17S13195   1.893   3.908   8.124 -1.2399 -1.0914  0.6116
  124OSM   H17T13196   2.053   3.827   8.138 -0.1941 -0.4819 -0.2990
  124OSM   C18S13197   1.890   3.693   8.142  0.5269  0.1782  0.3771
  124OSM   H18S13198   1.808   3.665   8.072 -1.1836  3.9076  0.7924
  124OSM   H18T13199   1.849   3.707   8.244  1.2766  0.6096  0.6254
  124OSM   H18U13200   1.961   3.608   8.150  0.3442  0.0573  0.7203
  124OSM    C1F13201   1.637   4.251   6.720  0.7292 -0.9200 -0.1946
  124OSM     OF13202   1.516   4.221   6.694 -0.6787 -0.5870 -0.3029
  124OSM    C2F13203   1.678   4.359   6.818 -0.0053  0.0406 -0.7520
  124OSM    H2F13204   1.733   4.445   6.774 -0.0107  1.6288  2.2396
  124OSM    H2G13205   1.758   4.318   6.884 -0.0947  2.7790  1.1494
  124OSM    C3F13206   1.558   4.411   6.899 -0.0909  0.5135  0.6788
  124OSM    H3F13207   1.501   4.321   6.931  0.9580 -0.2619  0.3857
  124OSM    H3G13208   1.489   4.457   6.825 -0.4303  1.8105  1.7795
  124OSM    C4F13209   1.595   4.511   7.012 -0.4967 -0.0462  0.9104
  124OSM    H4F13210   1.496   4.558   7.028 -0.4841 -0.4715  2.3486
  124OSM    H4G13211   1.666   4.586   6.970 -0.2623 -0.1513  1.1192
  124OSM    C5F13212   1.661   4.459   7.143  0.0195 -0.6587  0.2014
  124OSM    H5F13213   1.766   4.429   7.125 -0.1540 -0.6467 -0.9279
  124OSM    H5G13214   1.605   4.367   7.170  2.3640 -1.9017  0.8957
  124OSM    C6F13215   1.653   4.557   7.254 -0.3898  0.4663 -0.1894
  124OSM    H6F13216   1.550   4.596   7.263 -0.8406 -0.9256  0.8987
  124OSM    H6G13217   1.721   4.642   7.230 -0.2550  0.1180 -1.0512
  124OSM    C7F13218   1.693   4.483   7.381 -0.0024 -0.0153  1.0181
  124OSM    H7F13219   1.801   4.458   7.391  0.2991  0.9802  0.3250
  124OSM    H7G13220   1.630   4.391   7.383 -0.1183 -0.1163 -2.8557
  124OSM    C8F13221   1.649   4.555   7.513  0.3241 -0.7839  0.0773
  124OSM    H8F13222   1.686   4.659   7.514  1.5765 -1.2101 -0.2943
  124OSM    H8G13223   1.715   4.511   7.591  0.5447  0.3178  0.5225
  124OSM    C9F13224   1.503   4.557   7.555  0.1294  0.5765  0.2428
  124OSM    H9F13225   1.425   4.571   7.480 -0.0903 -0.4007  0.2921
  124OSM   C10F13226   1.456   4.538   7.672 -0.1095 -0.0887  0.3846
  124OSM   H10F13227   1.347   4.540   7.675 -0.0686  1.0384  1.2587
  124OSM   C11F13228   1.535   4.507   7.792 -0.2304 -0.1497  0.3808
  124OSM   H11F13229   1.642   4.494   7.766 -0.0779  1.1904  0.3262
  124OSM   H11G13230   1.496   4.414   7.840 -0.9668  1.7909  3.7218
  124OSM   C12F13231   1.523   4.628   7.891  0.1335  0.1366 -0.5702
  124OSM   H12F13232   1.416   4.657   7.899 -0.1769 -0.6519 -1.6717
  124OSM   H12G13233   1.581   4.714   7.852 -1.9345  1.7534 -0.1858
  124OSM   C13F13234   1.564   4.586   8.033 -0.4345 -0.1413  0.3598
  124OSM   H13F13235   1.660   4.529   8.033 -0.0438  0.5085  0.9795
  124OSM   H13G13236   1.479   4.531   8.079 -1.7961  0.7443 -1.0236
  124OSM   C14F13237   1.591   4.706   8.127  0.7086  0.2526  0.0677
  124OSM   H14F13238   1.499   4.748   8.175  0.2646  1.1853 -1.5649
  124OSM   H14G13239   1.645   4.785   8.072 -0.5773  1.0605 -0.0555
  124OSM   C15F13240   1.672   4.666   8.250  0.1405 -0.2388  0.2144
  124OSM   H15F13241   1.780   4.659   8.223  0.4337 -1.0401  1.5392
  124OSM   H15G13242   1.641   4.564   8.282 -0.4696 -0.0121  0.3493
  124OSM   C16F13243   1.662   4.768   8.364 -0.4426  0.0676  0.4451
  124OSM   H16F13244   1.563   4.746   8.408 -0.9891  0.4206 -0.6057
  124OSM   H16G13245   1.651   4.857   8.299  1.7792 -1.4435 -2.1515
  124OSM   C17F13246   1.774   4.770   8.461 -0.1186 -1.0395 -0.1088
  124OSM   H17F13247   1.773   4.864   8.520 -1.2760 -2.8780  2.8737
  124OSM   H17G13248   1.870   4.756   8.406 -0.0463  0.3085 -0.3485
  124OSM   C18F13249   1.778   4.645   8.555  0.1535 -0.2851  0.3606
  124OSM   H18F13250   1.694   4.654   8.627 -1.3326 -1.4013 -1.2115
  124OSM   H18G13251   1.875   4.636   8.609  0.1203 -0.5413  0.3766
  124OSM   H18H13252   1.769   4.553   8.493  1.5992 -0.7335  0.7949
  125OSM      N13253   4.356   3.136   6.081 -0.2838 -0.3354  0.2040
  125OSM    C1513254   4.209   3.094   6.098 -0.9931  0.5738 -0.7878
  125OSM   H15A13255   4.162   3.092   6.001 -1.6360 -0.2561 -0.4584
  125OSM   H15B13256   4.157   3.176   6.145  0.1133  0.8576 -0.0315
  125OSM   H15C13257   4.197   3.001   6.152 -2.5095  0.9137 -0.5282
  125OSM    C1413258   4.369   3.257   6.001 -0.3072 -0.4063 -0.2763
  125OSM   H14A13259   4.467   3.269   5.958 -0.8582 -0.4209 -1.5564
  125OSM   H14B13260   4.352   3.345   6.060  2.3327 -0.0137 -0.0570
  125OSM   H14C13261   4.294   3.261   5.924  1.3512  3.3690 -1.8215
  125OSM    C1313262   4.424   3.166   6.214  0.0595 -0.0158 -0.3810
  125OSM   H13A13263   4.523   3.204   6.196 -1.3912  2.5680 -3.2835
  125OSM   H13B13264   4.426   3.077   6.276  0.4947  0.1212 -0.2019
  125OSM   H13C13265   4.353   3.223   6.273  0.3322 -0.1671  0.0988
  125OSM    C1213266   4.430   3.022   6.005  1.1276 -0.0679 -0.3043
  125OSM   H12A13267   4.532   3.055   5.991  0.5162  2.0039 -0.0925
  125OSM   H12B13268   4.385   3.001   5.909 -0.1651 -2.4395  0.7790
  125OSM    C1113269   4.436   2.886   6.087  0.2858  0.4560  0.0001
  125OSM   H11A13270   4.478   2.820   6.008  0.9974  3.6632 -2.4034
  125OSM   H11B13271   4.329   2.857   6.094  0.3050  0.0444 -1.1507
  125OSM      P13272   4.673   2.897   6.213  0.0036 -0.6073  0.0688
  125OSM    O1313273   4.735   2.773   6.177  0.2986 -0.0027 -0.5345
  125OSM    O1413274   4.706   3.013   6.124 -0.5230  0.3392 -1.0667
  125OSM    O1113275   4.710   2.918   6.365 -0.0540 -0.2225  0.0255
  125OSM    O1213276   4.514   2.884   6.210 -0.2770 -0.0601 -0.1525
  125OSM    C1S13277   4.698   2.798   6.451 -0.0143 -0.4950  0.2444
  125OSM    H1S13278   4.789   2.743   6.419 -0.7019 -1.9683  0.7871
  125OSM    H1T13279   4.606   2.738   6.431  0.1366  0.0654 -2.2982
  125OSM     NF13280   4.698   2.697   6.671  0.4055 -0.4731  0.4824
  125OSM    HNF13281   4.622   2.684   6.734 -1.1496  2.5205 -0.6654
  125OSM    C2S13282   4.704   2.826   6.602 -0.2847 -0.0631  0.0160
  125OSM    H2S13283   4.803   2.874   6.614 -1.8486  3.4285 -0.6565
  125OSM    C3S13284   4.601   2.922   6.654  0.4642  0.0637 -0.3562
  125OSM    H3S13285   4.496   2.886   6.646  0.2269  0.0914  2.0719
  125OSM     O313286   4.589   3.045   6.587  0.4537  0.8591  0.7807
  125OSM    HO313287   4.623   3.018   6.501 -1.1815 -0.8661  0.6469
  125OSM    C4S13288   4.629   2.958   6.799 -0.2309 -0.2995 -0.9308
  125OSM    H4S13289   4.575   2.895   6.871 -0.8817  0.4978 -0.7133
  125OSM    C5S13290   4.695   3.062   6.855  0.5620  0.2806 -0.0275
  125OSM    H5S13291   4.730   3.129   6.775 -0.1037  1.6186  0.7814
  125OSM    C6S13292   4.713   3.109   7.000 -0.3136  0.6316  0.4644
  125OSM    H6S13293   4.657   3.204   7.013 -0.1544  0.8625 -0.4815
  125OSM    H6T13294   4.820   3.131   7.019 -0.1485  0.6418 -0.4431
  125OSM    C7S13295   4.654   2.999   7.098  0.4443 -0.6604 -0.1593
  125OSM    H7S13296   4.701   2.899   7.080  0.7335 -0.9707  2.2323
  125OSM    H7T13297   4.544   2.996   7.078  0.3900  3.2759 -0.7741
  125OSM    C8S13298   4.667   3.039   7.249 -0.0842 -0.2236 -0.5805
  125OSM    H8S13299   4.664   3.149   7.267 -1.5392 -0.5339  1.1876
  125OSM    H8T13300   4.769   3.014   7.286 -1.0576  0.8192  3.0150
  125OSM    C9S13301   4.576   2.961   7.342 -0.6826  0.1268  0.3863
  125OSM    H9S13302   4.585   2.853   7.319 -1.2222 -0.4187  2.6438
  125OSM    H9T13303   4.472   2.983   7.308  0.3781  1.9714 -1.7598
  125OSM   C10S13304   4.603   2.996   7.493  0.2290  0.2395  0.9263
  125OSM   H10S13305   4.577   3.104   7.503  0.0921  0.2527  0.4328
  125OSM   H10T13306   4.707   2.974   7.524 -0.3704 -3.1360  0.7633
  125OSM   C11S13307   4.511   2.915   7.584  0.1746  0.0271  0.4759
  125OSM   H11S13308   4.551   2.812   7.578  0.3439  0.0669  0.8940
  125OSM   H11T13309   4.411   2.923   7.537  0.7533 -3.0657 -1.3512
  125OSM   C12S13310   4.501   2.972   7.728 -0.5987  0.7304  0.3876
  125OSM   H12S13311   4.593   2.995   7.787 -0.2556 -0.2426  0.2446
  125OSM   H12T13312   4.440   2.911   7.797 -0.4985  1.9979  1.6155
  125OSM   C13S13313   4.418   3.103   7.731 -0.0218 -0.1612 -0.1662
  125OSM   H13S13314   4.317   3.080   7.690  0.2753 -0.2114 -0.8714
  125OSM   H13T13315   4.465   3.189   7.679  1.1487 -0.9988 -0.5189
  125OSM   C14S13316   4.382   3.146   7.875  0.1947  0.7934  0.1552
  125OSM   H14S13317   4.470   3.193   7.924  0.6478  0.1057  0.0129
  125OSM   H14T13318   4.347   3.052   7.924  0.2563  1.2245  1.0199
  125OSM   C15S13319   4.271   3.248   7.873  0.1189 -0.2020 -0.0701
  125OSM   H15S13320   4.209   3.246   7.780 -0.4828 -0.8755  0.3413
  125OSM   H15T13321   4.332   3.341   7.869  0.1407 -0.2128  0.0391
  125OSM   C16S13322   4.188   3.233   7.996 -0.2702  0.2521  0.6892
  125OSM   H16S13323   4.170   3.126   8.015  3.5169 -0.4636  0.7609
  125OSM   H16T13324   4.090   3.280   7.975  0.1070  1.3955  1.4422
  125OSM   C17S13325   4.270   3.295   8.115  0.0735 -1.4811  0.5988
  125OSM   H17S13326   4.375   3.267   8.093  0.6354 -0.4206  1.8026
  125OSM   H17T13327   4.246   3.239   8.208  1.1605 -0.1507  1.7074
  125OSM   C18S13328   4.260   3.447   8.119  0.6368  0.4300 -0.1684
  125OSM   H18S13329   4.151   3.469   8.121 -0.0682 -2.7032 -0.5999
  125OSM   H18T13330   4.309   3.497   8.033 -1.7528  0.7114 -1.4136
  125OSM   H18U13331   4.305   3.494   8.208 -1.6685  0.1813  1.1716
  125OSM    C1F13332   4.789   2.603   6.656 -0.1277 -0.7187 -0.0872
  125OSM     OF13333   4.903   2.627   6.616 -0.3672 -0.4850 -0.3925
  125OSM    C2F13334   4.755   2.478   6.727  0.7138 -0.1336  0.1144
  125OSM    H2F13335   4.667   2.426   6.681  0.5723 -1.6760  2.0516
  125OSM    H2G13336   4.732   2.494   6.834 -0.5414 -1.1625  0.0167
  125OSM    C3F13337   4.872   2.379   6.711  0.2874  1.1011  0.0570
  125OSM    H3F13338   4.966   2.416   6.756  1.8561 -1.6541 -0.8798
  125OSM    H3G13339   4.900   2.352   6.607 -2.1327  0.0029 -0.3533
  125OSM    C4F13340   4.840   2.246   6.794 -0.5475 -0.6420  0.3432
  125OSM    H4F13341   4.892   2.156   6.755  0.0079 -0.0350 -0.3479
  125OSM    H4G13342   4.734   2.218   6.775 -0.6461 -0.4789  0.6472
  125OSM    C5F13343   4.876   2.254   6.943 -0.6056  0.0605 -0.0521
  125OSM    H5F13344   4.815   2.336   6.986  0.2757  0.3067  0.7516
  125OSM    H5G13345   4.982   2.283   6.961 -1.6662  3.4670  1.1645
  125OSM    C6F13346   4.835   2.120   7.009 -0.1900 -0.0519  0.0841
  125OSM    H6F13347   4.891   2.039   6.957  1.3942  1.7805 -1.1251
  125OSM    H6G13348   4.731   2.095   6.977 -0.9449  0.7654  1.8417
  125OSM    C7F13349   4.864   2.130   7.162 -0.3398 -0.9320  0.6437
  125OSM    H7F13350   4.825   2.225   7.206 -0.5614 -0.2515 -0.9917
  125OSM    H7G13351   4.972   2.127   7.186 -0.2178 -0.7463  0.1251
  125OSM    C8F13352   4.809   2.011   7.242  0.3014 -0.0264 -0.6924
  125OSM    H8F13353   4.870   2.006   7.335 -0.0315  0.5482 -0.4379
  125OSM    H8G13354   4.825   1.920   7.180 -1.1862  0.0005 -1.1422
  125OSM    C9F13355   4.663   2.021   7.266  0.0391  0.8297  0.0715
  125OSM    H9F13356   4.603   2.056   7.181  0.3391  4.0243  1.1085
  125OSM   C10F13357   4.602   2.006   7.388 -0.8191 -0.0878 -0.0459
  125OSM   H10F13358   4.495   2.029   7.401 -0.2698  2.5639  0.0211
  125OSM   C11F13359   4.671   1.975   7.520  0.4376 -0.5697  0.0918
  125OSM   H11F13360   4.752   1.900   7.508  1.5912  0.8655 -1.3365
  125OSM   H11G13361   4.597   1.925   7.586 -2.7244  2.9152 -0.6788
  125OSM   C12F13362   4.737   2.091   7.590 -0.7818 -0.1735 -0.2148
  125OSM   H12F13363   4.662   2.170   7.611 -0.5526  0.2747 -1.0465
  125OSM   H12G13364   4.814   2.133   7.521 -1.0457 -0.4465 -0.6811
  125OSM   C13F13365   4.809   2.043   7.713 -0.0169  0.5527 -0.4089
  125OSM   H13F13366   4.896   1.981   7.682 -0.2013  1.0973 -2.0881
  125OSM   H13G13367   4.751   1.970   7.773 -1.8021  0.9828 -1.5632
  125OSM   C14F13368   4.862   2.154   7.808 -0.1377  0.1824  0.0311
  125OSM   H14F13369   4.779   2.220   7.843  1.4388  1.5650  1.2165
  125OSM   H14G13370   4.925   2.230   7.758  1.1248 -0.7679  0.1596
  125OSM   C15F13371   4.940   2.102   7.937  0.5809 -0.5852 -0.3573
  125OSM   H15F13372   5.031   2.045   7.909  0.2358 -2.5539  2.3716
  125OSM   H15G13373   4.866   2.036   7.986 -0.9690 -0.5398 -2.5638
  125OSM   C16F13374   4.976   2.212   8.030  0.6056  0.1338 -0.6173
  125OSM   H16F13375   4.889   2.282   8.035 -0.3790 -1.0772 -0.7573
  125OSM   H16G13376   5.056   2.275   7.986  0.9166 -0.6537 -1.1656
  125OSM   C17F13377   5.021   2.152   8.161 -0.0472  0.3739  0.0082
  125OSM   H17F13378   5.073   2.058   8.131 -0.6263  0.3150 -0.8384
  125OSM   H17G13379   4.928   2.127   8.216 -1.2412  0.8731 -1.7420
  125OSM   C18F13380   5.105   2.237   8.248  0.7775  0.0135  0.6514
  125OSM   H18F13381   5.053   2.335   8.261  1.7595  1.1327 -3.1960
  125OSM   H18G13382   5.198   2.269   8.197 -0.5347  3.8480  0.4747
  125OSM   H18H13383   5.130   2.184   8.342 -0.8139 -0.4511  0.8332
  126OSM      N13384   1.691   0.024   6.229  0.8427  1.0796 -0.6791
  126OSM    C1513385   1.579   0.117   6.200  0.2215  0.7046  0.4541
  126OSM   H15A13386   1.512   0.138   6.282  0.0603  2.5282 -0.1256
  126OSM   H15B13387   1.520   0.086   6.114  2.5450 -1.5828 -0.3924
  126OSM   H15C13388   1.618   0.214   6.173 -2.5624  1.1286 -2.4100
  126OSM    C1413389   1.633  -0.112   6.222  0.7787 -0.0733 -0.0779
  126OSM   H14A13390   1.606  -0.120   6.118  0.7190 -1.4421  0.0242
  126OSM   H14B13391   1.550  -0.132   6.287  2.6668 -2.1613  1.7949
  126OSM   H14C13392   1.698  -0.194   6.250 -0.5891 -0.3667  2.3764
  126OSM    C1313393   1.786   0.034   6.119 -0.2721 -0.0797 -0.1594
  126OSM   H13A13394   1.881  -0.014   6.136  0.0764  0.8208  0.4516
  126OSM   H13B13395   1.803   0.134   6.081 -1.8244  0.2935  0.0627
  126OSM   H13C13396   1.750  -0.019   6.031 -1.2951  0.0119  0.1998
  126OSM    C1213397   1.751   0.052   6.359 -0.0128  0.6245 -0.1424
  126OSM   H12A13398   1.801   0.148   6.353 -0.7241  0.8835 -2.2203
  126OSM   H12B13399   1.835  -0.010   6.386  1.1935  2.4599  0.4405
  126OSM    C1113400   1.659   0.037   6.485 -0.8967 -0.0985 -0.7586
  126OSM   H11A13401   1.717   0.045   6.579 -0.8379 -1.6443 -0.6523
  126OSM   H11B13402   1.615  -0.065   6.490 -1.3976  0.0869 -1.3111
  126OSM      P13403   1.582   0.281   6.513 -0.6926  0.2268  0.2537
  126OSM    O1313404   1.693   0.322   6.428 -0.2438 -0.8107 -0.2483
  126OSM    O1413405   1.460   0.358   6.493 -0.6578  0.4887 -0.5365
  126OSM    O1113406   1.633   0.285   6.664  0.3869 -0.4234 -0.3579
  126OSM    O1213407   1.548   0.126   6.485 -0.3526 -0.3405 -0.2380
  126OSM    C1S13408   1.554   0.222   6.764 -0.1266  0.4240  1.1392
  126OSM    H1S13409   1.581   0.115   6.766 -1.0041  0.2123  2.8908
  126OSM    H1T13410   1.445   0.232   6.745  0.0264 -1.2102 -0.7525
  126OSM     NF13411   1.498   0.189   6.998  0.7182  0.5873 -0.0248
  126OSM    HNF13412   1.424   0.245   7.035  1.7554  1.0318  1.4156
  126OSM    C2S13413   1.589   0.259   6.911 -0.4987 -0.4018  0.3903
  126OSM    H2S13414   1.693   0.229   6.934  0.4462  0.0139 -2.9673
  126OSM    C3S13415   1.585   0.419   6.919  0.7257 -0.6329  0.0008
  126OSM    H3S13416   1.481   0.445   6.890  1.1841  1.1959 -0.0654
  126OSM     O313417   1.667   0.485   6.817 -0.2077 -0.6886 -0.5193
  126OSM    HO313418   1.708   0.411   6.771  0.1912 -1.5233  1.1257
  126OSM    C4S13419   1.610   0.460   7.061 -0.3659  0.7045  0.3286
  126OSM    H4S13420   1.528   0.488   7.130  1.7179  3.7012  1.7027
  126OSM    C5S13421   1.729   0.457   7.116  0.0198  0.3015  0.8850
  126OSM    H5S13422   1.820   0.436   7.059  1.6760  1.1031  3.1599
  126OSM    C6S13423   1.744   0.495   7.261 -0.0605 -0.4273 -0.3463
  126OSM    H6S13424   1.654   0.485   7.326 -1.0054 -0.5623 -1.6610
  126OSM    H6T13425   1.787   0.597   7.272  1.1561 -0.8577 -1.1075
  126OSM    C7S13426   1.857   0.413   7.324  0.2123  1.0752 -0.8027
  126OSM    H7S13427   1.948   0.433   7.264  1.2509  2.1862  1.1247
  126OSM    H7T13428   1.836   0.304   7.311  0.8205  1.0179 -1.3192
  126OSM    C8S13429   1.875   0.448   7.473 -0.3346  0.5589  0.5040
  126OSM    H8S13430   1.778   0.456   7.526 -1.4228 -0.2062 -1.3405
  126OSM    H8T13431   1.928   0.545   7.474  1.0168 -0.0855 -2.7116
  126OSM    C9S13432   1.980   0.371   7.546  0.0596  0.0029  0.0221
  126OSM    H9S13433   2.074   0.382   7.488  0.1533 -1.2879 -0.0783
  126OSM    H9T13434   1.956   0.263   7.538  1.3386 -0.3906  1.2240
  126OSM   C10S13435   2.000   0.419   7.696 -0.0503 -0.4165  0.8622
  126OSM   H10S13436   1.900   0.412   7.743 -0.8693  0.2529 -0.7210
  126OSM   H10T13437   2.028   0.527   7.695 -0.8489 -0.1780  2.5324
  126OSM   C11S13438   2.095   0.348   7.789  0.1839  0.4424 -0.5480
  126OSM   H11S13439   2.198   0.357   7.747  1.1620  0.6167  1.8432
  126OSM   H11T13440   2.075   0.239   7.790  1.5181  0.1894  1.0210
  126OSM   C12S13441   2.104   0.384   7.940  0.2362 -0.5642 -0.6198
  126OSM   H12S13442   2.161   0.309   7.999 -0.7020 -0.3323  0.5987
  126OSM   H12T13443   2.006   0.379   7.992  0.7025 -2.9594  0.0624
  126OSM   C13S13444   2.178   0.515   7.984  0.3143  0.2957  0.1838
  126OSM   H13S13445   2.128   0.604   7.940 -0.8717 -0.0820  0.7449
  126OSM   H13T13446   2.283   0.520   7.948  0.3217  0.5230  0.2337
  126OSM   C14S13447   2.184   0.532   8.141 -0.3411 -0.1120 -0.0891
  126OSM   H14S13448   2.084   0.528   8.189  1.5877 -3.4077  3.9394
  126OSM   H14T13449   2.216   0.638   8.154 -0.6812  0.0707 -0.7598
  126OSM   C15S13450   2.272   0.437   8.213  0.9340 -0.4755  0.1371
  126OSM   H15S13451   2.372   0.422   8.169  0.5942  0.9975 -1.1969
  126OSM   H15T13452   2.224   0.341   8.240  1.4706 -0.9357 -0.5556
  126OSM   C16S13453   2.317   0.483   8.358  0.7104 -0.0513  1.4924
  126OSM   H16S13454   2.226   0.502   8.419  1.1005  1.5495  1.6130
  126OSM   H16T13455   2.363   0.584   8.357 -1.1428  0.8390 -0.8783
  126OSM   C17S13456   2.408   0.378   8.416 -0.4078  0.0045  1.0566
  126OSM   H17S13457   2.498   0.380   8.350 -0.0294  0.2905  1.5705
  126OSM   H17T13458   2.348   0.285   8.406 -0.7252  0.5576 -2.8650
  126OSM   C18S13459   2.446   0.411   8.562 -0.2312  0.5055 -0.2121
  126OSM   H18S13460   2.460   0.521   8.565  0.8044  0.4228 -1.9191
  126OSM   H18T13461   2.545   0.362   8.577 -0.0059  0.6301 -1.3109
  126OSM   H18U13462   2.379   0.356   8.631 -0.3520 -2.5653 -2.6829
  126OSM    C1F13463   1.502   0.056   7.026 -0.3533 -0.3032  0.2846
  126OSM     OF13464   1.597  -0.009   6.986  0.7513  0.1785  0.2887
  126OSM    C2F13465   1.388  -0.002   7.102  0.0461 -0.1087  0.6833
  126OSM    H2F13466   1.315  -0.027   7.022  0.1666  0.0517  0.5217
  126OSM    H2G13467   1.339   0.080   7.159 -0.5967  1.0378 -1.4468
  126OSM    C3F13468   1.419  -0.111   7.210  0.0714 -0.4895  0.0083
  126OSM    H3F13469   1.482  -0.060   7.285  1.1201  0.1810 -1.2941
  126OSM    H3G13470   1.478  -0.194   7.165  1.1651  1.1225 -1.5738
  126OSM    C4F13471   1.286  -0.155   7.270 -0.3584  0.2444  0.0877
  126OSM    H4F13472   1.207  -0.190   7.200  0.0883 -0.0159 -0.2862
  126OSM    H4G13473   1.234  -0.069   7.317 -0.1945  0.6815 -0.5351
  126OSM    C5F13474   1.317  -0.277   7.370 -0.2834  0.2156 -0.6136
  126OSM    H5F13475   1.370  -0.361   7.320  1.6799  0.8300  0.3504
  126OSM    H5G13476   1.219  -0.316   7.405 -0.1356  0.7988  0.4484
  126OSM    C6F13477   1.400  -0.234   7.487  0.0748 -0.0142 -0.4019
  126OSM    H6F13478   1.344  -0.148   7.529 -0.2441 -0.1131 -0.6178
  126OSM    H6G13479   1.503  -0.204   7.458 -0.1970  2.6840  1.3026
  126OSM    C7F13480   1.404  -0.341   7.595 -0.0217  0.4777 -0.0639
  126OSM    H7F13481   1.456  -0.428   7.550 -0.0844  0.0268  0.7384
  126OSM    H7G13482   1.297  -0.365   7.613  0.3417 -0.8494  0.3979
  126OSM    C8F13483   1.490  -0.305   7.714  0.6190  0.5673  0.2706
  126OSM    H8F13484   1.586  -0.271   7.671  0.7348 -1.1566 -0.8617
  126OSM    H8G13485   1.506  -0.393   7.780 -2.8556  1.1645  2.0527
  126OSM    C9F13486   1.429  -0.197   7.799 -0.3819 -0.5605 -0.5235
  126OSM    H9F13487   1.441  -0.094   7.762 -0.2694  0.0032  1.0392
  126OSM   C10F13488   1.363  -0.209   7.914  0.1047  0.1270  0.6524
  126OSM   H10F13489   1.303  -0.127   7.956  1.6915  0.4698  2.3087
  126OSM   C11F13490   1.336  -0.342   7.985 -0.1608 -0.4463  0.2400
  126OSM   H11F13491   1.419  -0.414   7.969  0.4577  0.5773 -1.2850
  126OSM   H11G13492   1.241  -0.393   7.957 -0.1582  0.0612 -0.7518
  126OSM   C12F13493   1.302  -0.307   8.137 -0.3318 -0.2150  0.1358
  126OSM   H12F13494   1.296  -0.409   8.181  0.9261 -0.4275 -0.1648
  126OSM   H12G13495   1.201  -0.262   8.145 -0.0782  0.2439  0.7644
  126OSM   C13F13496   1.410  -0.227   8.212 -0.1503  0.2606  0.1575
  126OSM   H13F13497   1.387  -0.122   8.186 -2.9012 -0.6145 -1.1891
  126OSM   H13G13498   1.514  -0.240   8.175 -0.1752  2.0464 -0.5669
  126OSM   C14F13499   1.401  -0.253   8.363 -0.4949  0.3005 -0.4620
  126OSM   H14F13500   1.409  -0.360   8.390  0.8514  0.9162  1.7755
  126OSM   H14G13501   1.306  -0.226   8.413 -1.2237  1.5235 -2.4332
  126OSM   C15F13502   1.513  -0.190   8.432  0.1850  0.3050 -0.6527
  126OSM   H15F13503   1.503  -0.080   8.426  0.7965  0.2403 -4.2144
  126OSM   H15G13504   1.606  -0.225   8.381 -0.4030 -3.1789  0.5346
  126OSM   C16F13505   1.528  -0.230   8.577 -0.9035 -0.2004 -0.2263
  126OSM   H16F13506   1.540  -0.340   8.574 -1.4838 -0.2643 -0.3206
  126OSM   H16G13507   1.437  -0.204   8.637 -0.0069  2.2013  0.1460
  126OSM   C17F13508   1.640  -0.151   8.644 -0.6099 -0.0676  0.2178
  126OSM   H17F13509   1.603  -0.047   8.654  1.4748  0.8311 -1.0345
  126OSM   H17G13510   1.730  -0.166   8.581 -1.0048  0.2814 -0.4364
  126OSM   C18F13511   1.658  -0.202   8.790 -0.4405 -0.1117 -0.5916
  126OSM   H18F13512   1.576  -0.160   8.853  0.8143 -2.3999  2.6875
  126OSM   H18G13513   1.752  -0.175   8.843 -0.7278 -2.0162  0.9044
  126OSM   H18H13514   1.644  -0.312   8.796 -0.0228 -0.1834 -0.8898
  127OSM      N13515   0.264   1.338   6.482 -0.0960  0.0047  0.5275
  127OSM    C1513516   0.165   1.230   6.475 -0.1258 -1.1142 -0.3882
  127OSM   H15A13517   0.160   1.179   6.571 -1.0157 -0.7591 -0.2394
  127OSM   H15B13518   0.189   1.159   6.397 -1.0822 -0.8582 -0.9199
  127OSM   H15C13519   0.066   1.267   6.451 -0.6769 -0.7670  2.2492
  127OSM    C1413520   0.247   1.411   6.610 -0.1054 -0.0334 -0.5473
  127OSM   H14A13521   0.147   1.447   6.630  0.8839  2.8456 -0.4489
  127OSM   H14B13522   0.311   1.498   6.613 -0.3489  0.1358 -0.1672
  127OSM   H14C13523   0.271   1.347   6.694 -1.3007  1.9191  1.3331
  127OSM    C1313524   0.399   1.277   6.480  0.2919 -0.0336 -0.7453
  127OSM   H13A13525   0.418   1.206   6.401 -1.7834  0.3461 -1.6214
  127OSM   H13B13526   0.400   1.216   6.569 -0.2134  1.4240  0.2669
  127OSM   H13C13527   0.481   1.346   6.489 -0.1691  0.1076  3.3990
  127OSM    C1213528   0.245   1.428   6.364 -0.3246  0.1139 -0.5787
  127OSM   H12A13529   0.330   1.492   6.346  0.4132 -0.5022  0.7064
  127OSM   H12B13530   0.159   1.492   6.378  1.3068  2.2418 -0.0465
  127OSM    C1113531   0.219   1.348   6.230  0.5453 -0.3110 -0.4292
  127OSM   H11A13532   0.286   1.261   6.213 -0.6087 -1.3549  0.2307
  127OSM   H11B13533   0.243   1.415   6.145  0.0331  0.6770  0.2047
  127OSM      P13534  -0.033   1.416   6.173 -0.1408  0.1956 -0.5041
  127OSM    O1313535  -0.007   1.462   6.035 -0.0742 -0.0014 -0.0298
  127OSM    O1413536  -0.164   1.346   6.198  0.9992  0.2273 -0.4834
  127OSM    O1113537  -0.001   1.537   6.278  0.4649 -0.1395 -0.2066
  127OSM    O1213538   0.080   1.317   6.212  0.5782  0.8594  0.5723
  127OSM    C1S13539  -0.082   1.544   6.399  0.4233 -0.6293 -0.0403
  127OSM    H1S13540  -0.085   1.445   6.450  2.8926 -1.1824 -0.9162
  127OSM    H1T13541  -0.188   1.559   6.369  0.7756  0.8969 -0.5410
  127OSM     NF13542  -0.130   1.667   6.609  0.1895 -0.0194  0.4388
  127OSM    HNF13543  -0.196   1.741   6.619 -1.4846 -1.3452 -0.5402
  127OSM    C2S13544  -0.048   1.667   6.489 -0.0157  0.6929  0.1227
  127OSM    H2S13545   0.059   1.664   6.519  0.1854  1.3874 -0.5266
  127OSM    C3S13546  -0.066   1.799   6.412 -0.0455 -0.0823 -0.4669
  127OSM    H3S13547  -0.177   1.803   6.406 -0.1427 -0.0967  0.9974
  127OSM     O313548  -0.016   1.807   6.280  0.1811  0.1547 -0.9165
  127OSM    HO313549   0.022   1.720   6.270 -0.3196 -0.2104  0.3024
  127OSM    C4S13550  -0.018   1.914   6.496  0.0737 -0.4518 -0.1224
  127OSM    H4S13551  -0.103   1.966   6.543 -1.3734 -0.2584 -2.8256
  127OSM    C5S13552   0.104   1.962   6.499  0.9634  0.7735  0.5334
  127OSM    H5S13553   0.184   1.918   6.437 -0.3672 -1.2154  0.1466
  127OSM    C6S13554   0.159   2.077   6.580  0.5137  0.0708  0.4731
  127OSM    H6S13555   0.168   2.160   6.507 -0.2838  0.5850  0.9485
  127OSM    H6T13556   0.263   2.058   6.615  1.2712  1.8013 -0.7924
  127OSM    C7S13557   0.085   2.134   6.701 -0.3667 -0.9046  0.6615
  127OSM    H7S13558   0.075   2.048   6.771  1.3054  0.3062  2.4252
  127OSM    H7T13559  -0.019   2.171   6.687 -0.5735 -1.1725  1.4528
  127OSM    C8S13560   0.169   2.246   6.771  0.1078  0.1406  0.5149
  127OSM    H8S13561   0.160   2.339   6.710  3.4486  0.8051  0.9311
  127OSM    H8T13562   0.275   2.213   6.767  0.7438  1.8575  2.4360
  127OSM    C9S13563   0.122   2.265   6.916 -0.1256  0.4122 -0.4170
  127OSM    H9S13564   0.114   2.168   6.971  2.4907 -0.8315 -2.1541
  127OSM    H9T13565   0.021   2.311   6.907 -1.1441 -1.6833 -0.1137
  127OSM   C10S13566   0.208   2.352   7.004  1.1020  0.0933 -0.1992
  127OSM   H10S13567   0.198   2.454   6.963 -2.0294 -0.1021 -0.0962
  127OSM   H10T13568   0.314   2.320   7.012  0.9095 -0.4025  0.4539
  127OSM   C11S13569   0.154   2.356   7.147 -0.2953  0.1789 -0.1889
  127OSM   H11S13570   0.046   2.378   7.137  0.0159  1.2030 -1.3709
  127OSM   H11T13571   0.197   2.444   7.199 -0.6400  0.6140 -0.6440
  127OSM   C12S13572   0.188   2.232   7.228 -0.8285  0.0129 -0.0420
  127OSM   H12S13573   0.298   2.215   7.241 -0.7786  0.0286 -0.4542
  127OSM   H12T13574   0.146   2.142   7.179 -0.4317 -0.3363  0.2447
  127OSM   C13S13575   0.126   2.225   7.371 -0.0475 -0.4627  0.2505
  127OSM   H13S13576   0.045   2.149   7.377 -2.0997  1.7102  0.9208
  127OSM   H13T13577   0.075   2.319   7.401  1.3026 -0.4899  2.7896
  127OSM   C14S13578   0.221   2.183   7.482 -0.5798 -0.2125  0.1527
  127OSM   H14S13579   0.295   2.108   7.447 -1.8153 -1.4443  0.1338
  127OSM   H14T13580   0.168   2.138   7.569 -3.3065  0.7039 -0.9942
  127OSM   C15S13581   0.301   2.302   7.534  0.0697 -0.2514  0.3271
  127OSM   H15S13582   0.228   2.376   7.572 -0.8642  0.4218 -2.6463
  127OSM   H15T13583   0.357   2.343   7.447  1.8776 -0.4560  1.3531
  127OSM   C16S13584   0.398   2.281   7.652 -0.2195 -0.2079 -0.0351
  127OSM   H16S13585   0.485   2.212   7.642  0.2333 -0.0088  2.2704
  127OSM   H16T13586   0.342   2.250   7.743 -1.5601  3.0270  0.2732
  127OSM   C17S13587   0.465   2.412   7.693  0.2661 -0.3818 -0.2757
  127OSM   H17S13588   0.388   2.492   7.699  0.2285 -0.5609  2.9146
  127OSM   H17T13589   0.531   2.453   7.615 -0.0541  2.0145  0.6773
  127OSM   C18S13590   0.539   2.406   7.831  0.7789 -0.6548  0.3164
  127OSM   H18S13591   0.584   2.504   7.857 -1.4785  0.3902  0.3864
  127OSM   H18T13592   0.626   2.338   7.820 -0.1255 -1.6166 -1.0585
  127OSM   H18U13593   0.480   2.381   7.922  0.9259  2.9033  1.4811
  127OSM    C1F13594  -0.115   1.579   6.701 -0.2814  0.6133 -0.1404
  127OSM     OF13595  -0.017   1.498   6.699  0.1580  0.2240 -0.0438
  127OSM    C2F13596  -0.210   1.584   6.814 -0.2272  0.5876 -0.3345
  127OSM    H2F13597  -0.312   1.573   6.773  0.0903  0.8979 -1.2184
  127OSM    H2G13598  -0.222   1.689   6.848 -2.8761  1.4686 -3.7246
  127OSM    C3F13599  -0.186   1.491   6.936  0.1317 -0.3605 -0.3421
  127OSM    H3F13600  -0.100   1.534   6.993 -0.2794 -0.0239  0.0280
  127OSM    H3G13601  -0.170   1.389   6.895  0.0275 -0.2613 -0.6307
  127OSM    C4F13602  -0.308   1.484   7.022 -0.3781 -1.0726  0.0855
  127OSM    H4F13603  -0.399   1.447   6.970 -1.2765  0.9551  0.1562
  127OSM    H4G13604  -0.331   1.589   7.051  1.9113 -0.9117  1.4401
  127OSM    C5F13605  -0.278   1.412   7.151 -0.3771 -0.0558  0.7668
  127OSM    H5F13606  -0.192   1.467   7.196 -1.1313  2.8440 -1.2078
  127OSM    H5G13607  -0.242   1.314   7.114 -0.3660 -0.3493  1.5456
  127OSM    C6F13608  -0.407   1.418   7.231 -0.8750 -0.1243  0.1664
  127OSM    H6F13609  -0.490   1.352   7.198 -1.1542  0.4285 -0.2516
  127OSM    H6G13610  -0.442   1.524   7.230 -1.4180 -0.2987  0.4180
  127OSM    C7F13611  -0.375   1.377   7.375  0.1155  0.3423 -0.5327
  127OSM    H7F13612  -0.302   1.444   7.425 -2.3771  1.5797  1.5434
  127OSM    H7G13613  -0.346   1.270   7.382 -0.4449  0.2608  0.6818
  127OSM    C8F13614  -0.502   1.385   7.466  0.1859 -0.1429 -0.3537
  127OSM    H8F13615  -0.486   1.334   7.564 -3.2905 -0.9975 -0.1534
  127OSM    H8G13616  -0.587   1.326   7.423 -2.2904  3.5931 -0.8119
  127OSM    C9F13617  -0.563   1.520   7.491  0.5263  0.2620 -0.3038
  127OSM    H9F13618  -0.491   1.603   7.477  1.0213  0.2038  1.6480
  127OSM   C10F13619  -0.691   1.547   7.527 -0.3368  0.2603 -0.8074
  127OSM   H10F13620  -0.718   1.649   7.559 -1.1241 -0.5621  1.2527
  127OSM   C11F13621  -0.798   1.443   7.549  0.6581  0.4500 -0.3263
  127OSM   H11F13622  -0.750   1.347   7.577  1.1077  0.6649 -0.3513
  127OSM   H11G13623  -0.853   1.416   7.457 -0.1505 -0.9138  0.5459
  127OSM   C12F13624  -0.883   1.477   7.678 -0.0549  0.3543  1.3376
  127OSM   H12F13625  -0.966   1.404   7.677  0.0792  0.2124  0.2737
  127OSM   H12G13626  -0.943   1.569   7.669 -1.5909 -0.8353 -1.0272
  127OSM   C13F13627  -0.804   1.466   7.807 -0.2202  0.2954 -0.2019
  127OSM   H13F13628  -0.860   1.522   7.885  1.9221  0.1955  1.4689
  127OSM   H13G13629  -0.701   1.507   7.796 -1.0422  1.6239 -3.3242
  127OSM   C14F13630  -0.796   1.318   7.866  0.2554 -0.0172 -0.0984
  127OSM   H14F13631  -0.739   1.250   7.798  1.3650 -1.4064  2.1576
  127OSM   H14G13632  -0.895   1.269   7.877 -1.1945  3.2315  2.1028
  127OSM   C15F13633  -0.731   1.306   8.005 -0.6189  0.2186  0.2309
  127OSM   H15F13634  -0.782   1.379   8.071 -0.7502  0.3127  0.0261
  127OSM   H15G13635  -0.623   1.331   7.995 -0.8931  1.8466  1.1787
  127OSM   C16F13636  -0.746   1.173   8.069  0.5687  0.2479 -0.2770
  127OSM   H16F13637  -0.680   1.163   8.158  0.3897 -0.2583 -0.1965
  127OSM   H16G13638  -0.721   1.094   7.995 -0.0475  0.0233 -0.2531
  127OSM   C17F13639  -0.888   1.142   8.125  0.3035 -0.2772  0.3540
  127OSM   H17F13640  -0.974   1.155   8.056 -0.0653 -0.7067  0.7248
  127OSM   H17G13641  -0.908   1.227   8.193 -0.5028  0.0149 -0.2448
  127OSM   C18F13642  -0.896   1.015   8.208 -0.4778 -0.3044  0.4813
  127OSM   H18F13643  -0.986   0.995   8.271  0.1935 -2.1257  0.8789
  127OSM   H18G13644  -0.814   1.014   8.283 -0.9065  0.5482  0.9847
  127OSM   H18H13645  -0.871   0.929   8.144  0.5742 -1.9766  3.0522
  128OSM      N13646   0.384   5.007   5.969  0.3808 -0.3635 -0.3326
  128OSM    C1513647   0.322   4.919   5.863  0.5759  0.6121 -0.0732
  128OSM   H15A13648   0.217   4.941   5.854  0.5864  0.6634 -0.0740
  128OSM   H15B13649   0.328   4.815   5.891  0.4074  0.5876 -0.1274
  128OSM   H15C13650   0.358   4.930   5.762  1.8432  2.7145  0.5565
  128OSM    C1413651   0.532   4.987   5.977  0.7968 -0.4474  0.0060
  128OSM   H14A13652   0.571   5.068   6.036 -1.7355  1.6229 -1.0665
  128OSM   H14B13653   0.569   4.992   5.876 -0.2334  3.3714 -0.2467
  128OSM   H14C13654   0.565   4.887   6.002  1.6322 -0.0763  0.3853
  128OSM    C1313655   0.357   5.149   5.933  0.5046  0.1962 -0.1856
  128OSM   H13A13656   0.251   5.167   5.948  0.4480 -1.2740  1.3450
  128OSM   H13B13657   0.401   5.167   5.836 -0.7614  0.3227 -0.7497
  128OSM   H13C13658   0.403   5.215   6.004  0.2954  0.8564 -0.6632
  128OSM    C1213659   0.331   4.971   6.109 -0.2329  0.2625  0.5503
  128OSM   H12A13660   0.237   5.023   6.123 -0.7710 -0.0177 -1.7854
  128OSM   H12B13661   0.391   5.033   6.174  1.5346  2.1591 -2.7749
  128OSM    C1113662   0.319   4.827   6.154 -0.1616  0.2307 -0.1848
  128OSM   H11A13663   0.321   4.811   6.264 -1.6742 -1.6754 -0.4175
  128OSM   H11B13664   0.413   4.770   6.137  0.8260  1.9489 -0.6335
  128OSM      P13665   0.065   4.778   6.141 -0.3889 -0.1434  0.3430
  128OSM    O1313666  -0.001   4.907   6.104  0.5430  0.3348  0.1913
  128OSM    O1413667  -0.008   4.653   6.106 -0.0314 -0.0704 -0.0461
  128OSM    O1113668   0.088   4.775   6.294  0.2660  0.3717 -0.3040
  128OSM    O1213669   0.211   4.763   6.093 -0.0163  0.0726 -0.2387
  128OSM    C1S13670   0.120   4.662   6.379 -0.3268  0.0688  0.5999
  128OSM    H1S13671   0.225   4.625   6.375 -0.8119 -1.3092  0.3746
  128OSM    H1T13672   0.054   4.575   6.361  0.0799 -0.2377  0.5934
  128OSM     NF13673   0.127   4.583   6.612 -0.4991 -0.4702  0.0235
  128OSM    HNF13674   0.057   4.512   6.623  0.4341 -1.4002  0.0536
  128OSM    C2S13675   0.096   4.696   6.530  0.5911 -0.2806  0.1499
  128OSM    H2S13676   0.154   4.784   6.565 -0.0197 -0.1614  0.8798
  128OSM    C3S13677  -0.049   4.752   6.546 -0.2174 -0.2836 -0.1460
  128OSM    H3S13678  -0.122   4.671   6.522 -0.3955 -0.1383 -0.0997
  128OSM     O313679  -0.087   4.863   6.466  0.5439 -0.1802  0.4601
  128OSM    HO313680  -0.031   4.861   6.388  1.5002 -1.1334  1.1641
  128OSM    C4S13681  -0.070   4.798   6.692  0.3762  0.1935  0.1045
  128OSM    H4S13682  -0.015   4.889   6.721 -0.0814  0.3393  0.5157
  128OSM    C5S13683  -0.152   4.736   6.777 -0.0417  0.0716  0.0680
  128OSM    H5S13684  -0.206   4.644   6.752  0.7162 -0.5984  0.8927
  128OSM    C6S13685  -0.183   4.786   6.916  0.6507  0.5309  0.3546
  128OSM    H6S13686  -0.137   4.711   6.984 -1.1488 -2.7665 -1.9374
  128OSM    H6T13687  -0.294   4.787   6.913  0.6715  0.0935 -1.2267
  128OSM    C7S13688  -0.145   4.925   6.955 -0.0771 -0.3280 -0.4726
  128OSM    H7S13689  -0.179   4.994   6.875  1.4853 -0.0290 -0.8894
  128OSM    H7T13690  -0.034   4.925   6.964 -0.2366  0.6291  1.9538
  128OSM    C8S13691  -0.193   4.972   7.096 -0.0876 -0.5137 -0.4678
  128OSM    H8S13692  -0.303   4.987   7.101  0.1960  1.2534  0.9652
  128OSM    H8T13693  -0.147   5.070   7.121 -0.6247  0.0383 -1.5931
  128OSM    C9S13694  -0.151   4.875   7.204 -0.5063 -0.0075 -0.6965
  128OSM    H9S13695  -0.040   4.872   7.214 -0.3794  1.2008 -1.6435
  128OSM    H9T13696  -0.186   4.775   7.172 -0.8452  0.3175 -1.3339
  128OSM   C10S13697  -0.208   4.928   7.338 -0.1486 -1.0607  0.4146
  128OSM   H10S13698  -0.315   4.955   7.327  0.4717  1.6212  0.7092
  128OSM   H10T13699  -0.156   5.025   7.353 -0.6329 -0.8538  0.7702
  128OSM   C11S13700  -0.180   4.841   7.457 -0.0990 -0.2684  0.1779
  128OSM   H11S13701  -0.074   4.808   7.458  1.1666  3.5009 -1.0915
  128OSM   H11T13702  -0.243   4.750   7.457  1.0382 -1.0818  2.3254
  128OSM   C12S13703  -0.197   4.907   7.596 -0.0433  0.0258 -0.0380
  128OSM   H12S13704  -0.283   4.976   7.580 -1.0935 -1.6785 -2.1334
  128OSM   H12T13705  -0.107   4.965   7.623 -0.1200 -0.0438  0.3642
  128OSM   C13S13706  -0.246   4.803   7.699  0.8902  0.2183  0.6957
  128OSM   H13S13707  -0.156   4.741   7.718  1.0253 -0.0396 -0.7124
  128OSM   H13T13708  -0.319   4.724   7.672  1.7945  0.1048 -1.5564
  128OSM   C14S13709  -0.276   4.850   7.840 -0.5509  0.2458  0.3430
  128OSM   H14S13710  -0.362   4.921   7.839  0.5087  1.5806  1.5948
  128OSM   H14T13711  -0.188   4.907   7.876 -0.0987 -1.3993  1.8815
  128OSM   C15S13712  -0.311   4.731   7.933 -0.0763  0.2432  0.7234
  128OSM   H15S13713  -0.382   4.668   7.876 -1.2388 -0.6157  3.0613
  128OSM   H15T13714  -0.375   4.770   8.015 -0.6109 -1.5026  1.1475
  128OSM   C16S13715  -0.192   4.650   7.985 -0.7615  0.2594 -0.1216
  128OSM   H16S13716  -0.119   4.718   8.035 -1.3057  0.6146  0.2007
  128OSM   H16T13717  -0.137   4.606   7.899 -1.2205  0.1338 -0.3517
  128OSM   C17S13718  -0.229   4.546   8.091 -0.0848 -0.8978  0.1934
  128OSM   H17S13719  -0.273   4.455   8.044  0.9628 -1.3325  0.0555
  128OSM   H17T13720  -0.293   4.588   8.172 -0.2866 -0.7275 -0.0520
  128OSM   C18S13721  -0.114   4.482   8.161 -0.7005  0.2482 -0.1526
  128OSM   H18S13722  -0.038   4.545   8.213 -1.2614 -0.9488  2.1846
  128OSM   H18T13723  -0.048   4.428   8.089 -0.8634 -1.7078  1.1114
  128OSM   H18U13724  -0.142   4.402   8.233  1.9904  0.2129  0.9296
  128OSM    C1F13725   0.257   4.551   6.644  0.8880  0.4579  0.8171
  128OSM     OF13726   0.342   4.636   6.615 -0.0913 -0.2019 -0.0367
  128OSM    C2F13727   0.279   4.421   6.723  0.1836 -0.0956  0.4056
  128OSM    H2F13728   0.342   4.352   6.663 -3.3799  0.0805 -3.7218
  128OSM    H2G13729   0.185   4.363   6.733 -0.7525  1.1730 -0.9049
  128OSM    C3F13730   0.342   4.443   6.864 -0.0531  0.3017  1.0053
  128OSM    H3F13731   0.442   4.487   6.845  0.7659 -0.9946  2.2168
  128OSM    H3G13732   0.361   4.340   6.901 -0.4935  0.5140  1.8578
  128OSM    C4F13733   0.241   4.510   6.957 -0.7906  0.4547 -0.4077
  128OSM    H4F13734   0.144   4.456   6.956  0.2837 -1.5181 -1.5240
  128OSM    H4G13735   0.229   4.615   6.923  1.2776  0.6545 -0.5836
  128OSM    C5F13736   0.293   4.513   7.103  1.0907 -0.1042 -0.2998
  128OSM    H5F13737   0.393   4.561   7.105 -0.7475  3.8997  0.5805
  128OSM    H5G13738   0.295   4.408   7.136  0.0400  0.3473  1.2590
  128OSM    C6F13739   0.195   4.590   7.182 -0.1684 -0.0059  0.3770
  128OSM    H6F13740   0.092   4.556   7.162 -0.2355 -1.1277  2.4683
  128OSM    H6G13741   0.202   4.698   7.158  2.1308 -0.3371 -0.5793
  128OSM    C7F13742   0.234   4.573   7.332 -0.3440 -0.0711 -0.3616
  128OSM    H7F13743   0.327   4.631   7.350  0.9668 -1.7615 -1.4715
  128OSM    H7G13744   0.249   4.466   7.359 -2.4305  0.5247  3.7247
  128OSM    C8F13745   0.138   4.630   7.441  0.3836 -0.4640 -0.6112
  128OSM    H8F13746   0.069   4.546   7.462  1.8924 -1.2969  1.1018
  128OSM    H8G13747   0.087   4.718   7.395  0.9524 -1.2219 -2.7710
  128OSM    C9F13748   0.208   4.667   7.564 -0.2305  0.2711  0.2200
  128OSM    H9F13749   0.288   4.742   7.550 -1.0129  1.1732  0.5080
  128OSM   C10F13750   0.202   4.607   7.686 -0.0203 -0.0598  0.2258
  128OSM   H10F13751   0.263   4.649   7.767 -0.2708  2.2702 -0.7514
  128OSM   C11F13752   0.107   4.490   7.718  0.7118  0.6505  0.4689
  128OSM   H11F13753   0.122   4.405   7.647 -0.4199  0.4664  0.4410
  128OSM   H11G13754  -0.001   4.512   7.717  0.5796  0.0793  1.2797
  128OSM   C12F13755   0.142   4.446   7.859 -0.8138  0.7041  0.0450
  128OSM   H12F13756   0.071   4.371   7.900 -1.6489  1.2397 -0.4098
  128OSM   H12G13757   0.135   4.528   7.934 -1.9658  1.7385 -1.1714
  128OSM   C13F13758   0.285   4.379   7.867  0.5743  0.0605  0.5837
  128OSM   H13F13759   0.358   4.457   7.834  0.9636 -0.4476  0.2240
  128OSM   H13G13760   0.288   4.285   7.807 -0.6042  0.1718  0.3443
  128OSM   C14F13761   0.306   4.338   8.012  0.3639  0.7307  0.3990
  128OSM   H14F13762   0.213   4.284   8.038  0.5012 -0.0412 -0.6920
  128OSM   H14G13763   0.317   4.424   8.083 -1.6930 -0.0306  1.6715
  128OSM   C15F13764   0.431   4.255   8.025  0.5390  0.5545 -0.3640
  128OSM   H15F13765   0.511   4.310   7.972  0.8107 -0.7548 -1.3376
  128OSM   H15G13766   0.410   4.154   7.985 -1.1056  0.2671  1.1621
  128OSM   C16F13767   0.469   4.240   8.167 -1.0443  0.5271  0.1394
  128OSM   H16F13768   0.471   4.339   8.217  0.7397 -0.5730  2.3148
  128OSM   H16G13769   0.571   4.197   8.166 -1.5753 -0.7536  0.1133
  128OSM   C17F13770   0.374   4.150   8.243  0.0677 -0.2498  0.7403
  128OSM   H17F13771   0.329   4.063   8.190 -2.1644  2.8059 -2.5623
  128OSM   H17G13772   0.282   4.209   8.267  1.3284  1.7365  0.7555
  128OSM   C18F13773   0.422   4.108   8.380  0.3245 -0.5134 -0.3640
  128OSM   H18F13774   0.511   4.041   8.372 -2.3346 -4.1473 -0.8063
  128OSM   H18G13775   0.346   4.042   8.426  0.2974 -0.8721 -0.9233
  128OSM   H18H13776   0.444   4.192   8.449 -0.7680 -0.1666 -0.4344
  129OSM      N13777   4.891   6.606   5.793  1.0275 -0.7219 -0.1756
  129OSM    C1513778   4.814   6.733   5.808  0.1730  0.2942  0.0097
  129OSM   H15A13779   4.821   6.777   5.906 -1.2437  2.1128 -0.6895
  129OSM   H15B13780   4.706   6.731   5.801 -0.0079  0.5177  2.4099
  129OSM   H15C13781   4.855   6.811   5.746  3.0986 -0.8061  0.4567
  129OSM    C1413782   4.858   6.558   5.660 -0.4473  0.7562 -0.0003
  129OSM   H14A13783   4.898   6.629   5.589  0.3520  0.7701  0.4569
  129OSM   H14B13784   4.752   6.542   5.645 -0.5855  0.4045  1.3141
  129OSM   H14C13785   4.904   6.463   5.638 -1.0879 -0.0508  2.1323
  129OSM    C1313786   5.035   6.636   5.824 -0.2604 -0.0725 -0.8469
  129OSM   H13A13787   5.032   6.692   5.917 -1.1548 -1.8839  0.2591
  129OSM   H13B13788   5.086   6.706   5.760  1.6285  1.1542  1.9257
  129OSM   H13C13789   5.098   6.555   5.858  1.3005  1.0713 -0.9974
  129OSM    C1213790   4.840   6.500   5.895  0.2358  0.1195 -0.2889
  129OSM   H12A13791   4.909   6.419   5.880 -0.9879 -1.1962  1.0719
  129OSM   H12B13792   4.740   6.476   5.862  0.0287  0.6411 -0.0573
  129OSM    C1113793   4.826   6.538   6.046  0.7244  0.1977  0.1988
  129OSM   H11A13794   4.801   6.443   6.098  0.2030  0.2747  0.0853
  129OSM   H11B13795   4.744   6.610   6.067  0.2526 -0.4453  0.5515
  129OSM      P13796   4.987   6.702   6.191 -0.5187 -0.4419 -0.0087
  129OSM    O1313797   5.109   6.668   6.270 -0.9205  0.2123 -0.0580
  129OSM    O1413798   4.985   6.824   6.107  0.5662 -0.1410  0.1855
  129OSM    O1113799   4.862   6.703   6.286 -0.7459 -0.5846  0.5364
  129OSM    O1213800   4.955   6.588   6.092  0.3727  0.8551 -0.4171
  129OSM    C1S13801   4.853   6.595   6.384 -0.0697  0.0199 -0.2020
  129OSM    H1S13802   4.950   6.558   6.424 -0.9802  0.1446  2.1818
  129OSM    H1T13803   4.789   6.514   6.343 -2.0776  1.2684  0.4042
  129OSM     NF13804   4.781   6.550   6.613 -0.4088 -0.1123  0.3608
  129OSM    HNF13805   4.693   6.503   6.621 -1.1624  1.2842  0.5278
  129OSM    C2S13806   4.780   6.654   6.514 -0.6099  0.5431 -0.5435
  129OSM    H2S13807   4.833   6.746   6.547 -0.1324  0.0439  0.1061
  129OSM    C3S13808   4.636   6.712   6.475  0.2598 -0.8858 -0.9916
  129OSM    H3S13809   4.580   6.630   6.426  1.1043  0.1465 -3.7722
  129OSM     O313810   4.642   6.812   6.375  0.3155 -0.1020  0.4648
  129OSM    HO313811   4.734   6.809   6.350 -0.4037  0.0278 -2.4506
  129OSM    C4S13812   4.560   6.771   6.595 -0.7102 -0.1536  0.1393
  129OSM    H4S13813   4.472   6.710   6.622  0.4689 -1.1926  1.7058
  129OSM    C5S13814   4.607   6.869   6.677 -0.3184  0.0886  0.5107
  129OSM    H5S13815   4.701   6.916   6.644 -0.3975  0.1219  0.3352
  129OSM    C6S13816   4.562   6.926   6.802  0.0736 -0.2583 -0.0121
  129OSM    H6S13817   4.470   6.886   6.849  0.3041  1.7153  2.1896
  129OSM    H6T13818   4.531   7.032   6.788  0.0165 -0.2141  0.4488
  129OSM    C7S13819   4.675   6.936   6.906 -0.8134 -0.7798  0.3166
  129OSM    H7S13820   4.758   7.005   6.881 -3.4018  2.3783 -0.0331
  129OSM    H7T13821   4.721   6.838   6.927  0.9144  0.7412  4.2293
  129OSM    C8S13822   4.602   6.978   7.033 -0.5300  0.8175  0.3115
  129OSM    H8S13823   4.544   6.892   7.071  1.3073  0.3920  2.2974
  129OSM    H8T13824   4.534   7.064   7.015 -2.1315 -0.3688  0.7026
  129OSM    C9S13825   4.704   7.031   7.142  0.2713  0.0689  0.9576
  129OSM    H9S13826   4.651   7.053   7.236  1.3602 -2.3365  2.1903
  129OSM    H9T13827   4.752   7.111   7.082 -0.0927 -1.0141 -0.8515
  129OSM   C10S13828   4.799   6.919   7.178 -0.0040  0.0087 -0.1153
  129OSM   H10S13829   4.871   6.902   7.095 -0.6469 -1.4634 -0.3778
  129OSM   H10T13830   4.741   6.826   7.196  1.6068 -1.1607 -0.8566
  129OSM   C11S13831   4.878   6.957   7.306  0.3441  0.1597  0.0714
  129OSM   H11S13832   4.921   7.059   7.296 -1.7600  1.0267 -0.2734
  129OSM   H11T13833   4.956   6.882   7.333  0.9048  0.2470 -1.2393
  129OSM   C12S13834   4.791   6.962   7.433  0.1685  0.6558  0.0717
  129OSM   H12S13835   4.764   6.855   7.446 -0.3185  1.0714  2.7651
  129OSM   H12T13836   4.699   7.022   7.419 -0.4323 -0.2910 -0.0225
  129OSM   C13S13837   4.870   7.007   7.560  0.4826 -0.3782  0.5734
  129OSM   H13S13838   4.792   7.030   7.635 -0.5659  0.8382 -0.8695
  129OSM   H13T13839   4.920   7.103   7.533 -1.6446  1.1629  1.9583
  129OSM   C14S13840   4.964   6.905   7.622 -0.2296  0.1708 -0.0672
  129OSM   H14S13841   5.061   6.907   7.568  0.6314  2.4411  1.4778
  129OSM   H14T13842   4.919   6.804   7.611 -1.1125  0.2274  2.6216
  129OSM   C15S13843   5.002   6.928   7.769  0.1788  0.1442 -0.1545
  129OSM   H15S13844   4.903   6.951   7.815 -0.3616 -2.2640 -0.0469
  129OSM   H15T13845   5.066   7.018   7.776 -3.1542  2.7886 -2.3304
  129OSM   C16S13846   5.055   6.801   7.835 -0.1335 -0.2519  0.1080
  129OSM   H16S13847   5.142   6.765   7.776 -1.7601  0.6436 -2.9513
  129OSM   H16T13848   4.978   6.722   7.832  0.5891 -0.9574 -0.0448
  129OSM   C17S13849   5.102   6.820   7.983 -0.0214 -1.1552 -0.5218
  129OSM   H17S13850   5.181   6.898   7.985 -2.1579  1.0668 -0.2775
  129OSM   H17T13851   5.143   6.720   8.013 -1.1418 -1.3092  0.5236
  129OSM   C18S13852   4.992   6.871   8.075 -0.1796 -0.6823 -0.3556
  129OSM   H18S13853   4.894   6.823   8.052 -1.4657  0.8738  1.7052
  129OSM   H18T13854   4.973   6.978   8.053  1.8307 -0.1648  0.3780
  129OSM   H18U13855   5.026   6.849   8.178  0.6968  1.6557 -0.1385
  129OSM    C1F13856   4.891   6.525   6.674  0.8515  1.1285 -0.4405
  129OSM     OF13857   4.993   6.592   6.649 -0.6598  0.6674  0.6197
  129OSM    C2F13858   4.883   6.408   6.761 -0.0349 -0.6412  0.3117
  129OSM    H2F13859   4.938   6.317   6.729 -0.0933 -0.6614  0.2676
  129OSM    H2G13860   4.776   6.382   6.779 -0.5469  1.0587 -0.1663
  129OSM    C3F13861   4.951   6.435   6.902  0.0771 -0.0806  0.0371
  129OSM    H3F13862   4.905   6.529   6.938 -1.0132 -0.1917 -1.0056
  129OSM    H3G13863   5.060   6.450   6.886  0.0661  0.5380  0.5438
  129OSM    C4F13864   4.923   6.316   6.987 -0.7178  0.4008 -0.4503
  129OSM    H4F13865   4.945   6.227   6.925 -0.9936 -0.8480  1.1920
  129OSM    H4G13866   4.821   6.325   7.030  1.5379 -0.2679  5.5623
  129OSM    C5F13867   5.023   6.302   7.105  0.0297 -0.0158  0.6136
  129OSM    H5F13868   5.050   6.397   7.155  1.0080  0.0285  0.0192
  129OSM    H5G13869   5.120   6.265   7.064  0.1268 -1.0512  1.7415
  129OSM    C6F13870   4.971   6.191   7.205 -0.5958  0.7047  0.3813
  129OSM    H6F13871   4.942   6.097   7.153  0.7789  0.2812  0.3517
  129OSM    H6G13872   4.882   6.234   7.255 -1.3439  0.9149 -1.1318
  129OSM    C7F13873   5.082   6.138   7.300 -0.5418 -0.0697 -0.6382
  129OSM    H7F13874   5.099   6.221   7.373  0.2403  0.1164 -1.0292
  129OSM    H7G13875   5.178   6.125   7.246  0.6103 -0.8518  1.5177
  129OSM    C8F13876   5.050   5.996   7.373  0.4470  0.2452  0.1838
  129OSM    H8F13877   5.129   5.978   7.450 -1.8085  0.2701  2.5835
  129OSM    H8G13878   5.058   5.913   7.300  1.6305  2.0240 -1.7732
  129OSM    C9F13879   4.907   6.002   7.420  0.4266  0.1709  1.0163
  129OSM    H9F13880   4.833   6.021   7.341 -0.0148 -2.7388  0.6671
  129OSM   C10F13881   4.860   5.977   7.546 -0.3324  1.0207 -0.5078
  129OSM   H10F13882   4.752   5.991   7.562 -0.8115 -2.9086  0.3024
  129OSM   C11F13883   4.936   5.945   7.675  0.6277 -0.3670  0.4202
  129OSM   H11F13884   5.047   5.943   7.678  0.6571 -0.1373 -0.3587
  129OSM   H11G13885   4.906   5.844   7.710  0.3388  0.2123  1.9128
  129OSM   C12F13886   4.887   6.048   7.780 -0.0326 -0.3381 -0.2913
  129OSM   H12F13887   4.779   6.031   7.796  0.1872 -1.0802  0.4423
  129OSM   H12G13888   4.910   6.154   7.754 -0.3397  0.2308  1.7427
  129OSM   C13F13889   4.964   6.029   7.916 -0.5100  0.1627  0.1654
  129OSM   H13F13890   4.936   5.932   7.963 -0.1389  0.0314  0.1189
  129OSM   H13G13891   4.933   6.106   7.989 -2.5289  0.6470 -1.1562
  129OSM   C14F13892   5.118   6.050   7.901 -0.3365  0.0137  0.1576
  129OSM   H14F13893   5.123   6.153   7.861 -1.2113  1.0092  2.5617
  129OSM   H14G13894   5.160   5.977   7.828  1.5276  1.1113  0.1278
  129OSM   C15F13895   5.185   6.028   8.038  0.0897  0.1286  0.1700
  129OSM   H15F13896   5.122   6.082   8.112  0.8493  0.1905  0.7848
  129OSM   H15G13897   5.290   6.065   8.034  0.0126  0.2178 -1.1849
  129OSM   C16F13898   5.201   5.876   8.068 -1.2432 -1.1955  0.8810
  129OSM   H16F13899   5.274   5.827   7.999  0.2512  0.9188  0.9140
  129OSM   H16G13900   5.101   5.828   8.066 -0.5038 -2.7949  1.4878
  129OSM   C17F13901   5.265   5.861   8.206 -0.1360  0.2043 -0.0733
  129OSM   H17F13902   5.223   5.919   8.292  1.1267 -0.3009  0.9027
  129OSM   H17G13903   5.369   5.897   8.193  0.0103 -0.6345 -1.2314
  129OSM   C18F13904   5.285   5.716   8.257  0.6703  0.0127  0.8419
  129OSM   H18F13905   5.179   5.682   8.252  1.4835 -2.3888 -1.2156
  129OSM   H18G13906   5.335   5.722   8.355 -1.5687 -2.1189  2.1862
  129OSM   H18H13907   5.338   5.648   8.187  0.1635 -0.0289  0.4933
  130OSM      N13908   5.235   3.701   6.035  0.4556  0.0094 -0.0150
  130OSM    C1513909   5.312   3.769   6.144  0.0833  0.8803 -0.3943
  130OSM   H15A13910   5.269   3.750   6.241 -0.4432  1.2687 -0.5500
  130OSM   H15B13911   5.314   3.877   6.136 -3.2037  0.9973 -0.5528
  130OSM   H15C13912   5.413   3.733   6.133 -0.2492  0.1442 -1.1004
  130OSM    C1413913   5.289   3.742   5.902  0.0481  0.6346 -0.3697
  130OSM   H14A13914   5.263   3.846   5.893  1.3853  1.0257  0.2468
  130OSM   H14B13915   5.234   3.675   5.837 -1.7865  0.4247  1.3460
  130OSM   H14C13916   5.392   3.716   5.881 -0.2841 -0.1768 -1.0202
  130OSM    C1313917   5.273   3.557   6.049 -0.0298  0.4639  0.2656
  130OSM   H13A13918   5.250   3.519   6.147  1.8203 -0.5436  0.3302
  130OSM   H13B13919   5.380   3.551   6.034  0.2580 -0.2479  2.4111
  130OSM   H13C13920   5.229   3.494   5.973 -1.5483 -0.3281  1.7630
  130OSM    C1213921   5.091   3.727   6.047 -0.2248 -0.3614  0.4838
  130OSM   H12A13922   5.051   3.685   6.138 -2.8207  1.8405  0.4057
  130OSM   H12B13923   5.046   3.682   5.960  1.3304  1.1599 -1.1450
  130OSM    C1113924   5.053   3.882   6.059 -0.6926 -0.1400  0.7263
  130OSM   H11A13925   4.944   3.879   6.038 -0.7656  0.4240  1.0038
  130OSM   H11B13926   5.112   3.927   5.976 -0.1855 -1.4017  0.3913
  130OSM      P13927   5.034   4.107   6.168 -0.2700 -0.4428  0.2143
  130OSM    O1313928   5.159   4.182   6.138  0.1855 -0.1746  0.3276
  130OSM    O1413929   4.922   4.134   6.076  0.4484 -0.0775 -0.6969
  130OSM    O1113930   4.981   4.133   6.314  0.0560 -0.5793  0.3578
  130OSM    O1213931   5.066   3.951   6.183  0.7700 -0.8126  0.1256
  130OSM    C1S13932   4.849   4.109   6.353  0.0409 -0.8679  0.0879
  130OSM    H1S13933   4.807   4.013   6.317 -2.2791  0.4719 -0.8510
  130OSM    H1T13934   4.776   4.192   6.340  1.2408 -0.0732 -1.8659
  130OSM     NF13935   4.713   4.053   6.546  0.7199 -0.2280  0.6431
  130OSM    HNF13936   4.654   4.125   6.582 -0.3996  0.0779 -1.7036
  130OSM    C2S13937   4.847   4.099   6.507  0.2985 -0.0735  0.3692
  130OSM    H2S13938   4.919   4.016   6.526 -0.3188 -0.5958  0.4326
  130OSM    C3S13939   4.909   4.231   6.562  0.3336 -0.1403  0.1317
  130OSM    H3S13940   4.842   4.312   6.525  1.2580  0.7149  0.3105
  130OSM     O313941   5.046   4.272   6.537  0.3138  0.2843 -0.2614
  130OSM    HO313942   5.078   4.207   6.473 -2.2850  1.1707 -2.5134
  130OSM    C4S13943   4.887   4.240   6.709 -0.8575  0.2249  0.4893
  130OSM    H4S13944   4.795   4.293   6.737 -1.4740 -0.6144  0.0794
  130OSM    C5S13945   4.951   4.180   6.813 -0.7586  0.3320 -0.4272
  130OSM    H5S13946   5.021   4.097   6.794 -0.7416  0.2702 -0.1006
  130OSM    C6S13947   4.937   4.188   6.959  0.0191  0.1520  0.3225
  130OSM    H6S13948   5.034   4.221   7.003  0.1181 -0.9835  0.9814
  130OSM    H6T13949   4.905   4.092   7.005 -0.5286 -0.8704 -2.1239
  130OSM    C7S13950   4.839   4.297   7.008  0.1838 -0.0196 -0.7014
  130OSM    H7S13951   4.739   4.271   6.966  0.3286 -1.4674 -0.1571
  130OSM    H7T13952   4.872   4.385   6.949 -1.5991  0.9183 -0.3345
  130OSM    C8S13953   4.833   4.298   7.164  0.4655  0.6446 -0.1809
  130OSM    H8S13954   4.935   4.325   7.201 -0.3716  0.7878  2.1485
  130OSM    H8T13955   4.816   4.197   7.207  0.9154 -0.4157 -2.4318
  130OSM    C9S13956   4.725   4.386   7.226  0.1618 -0.4337  0.4831
  130OSM    H9S13957   4.622   4.349   7.206 -0.2306  0.2135  1.2729
  130OSM    H9T13958   4.738   4.488   7.185 -0.2722  0.0214  1.4742
  130OSM   C10S13959   4.739   4.387   7.384 -0.4959 -0.4463  0.7402
  130OSM   H10S13960   4.827   4.445   7.418 -0.9461  1.5393 -1.3345
  130OSM   H10T13961   4.737   4.283   7.423  3.3163  0.1603  2.8006
  130OSM   C11S13962   4.626   4.453   7.461 -0.6564 -0.3575 -0.1972
  130OSM   H11S13963   4.535   4.392   7.483  0.1851 -1.9448 -0.9935
  130OSM   H11T13964   4.599   4.538   7.395  0.4117  0.7613  0.7842
  130OSM   C12S13965   4.676   4.513   7.596 -0.0525  0.1516 -0.2152
  130OSM   H12S13966   4.776   4.557   7.574 -0.6173  1.0261 -1.1182
  130OSM   H12T13967   4.670   4.438   7.678  0.1950 -1.0733 -1.2861
  130OSM   C13S13968   4.595   4.643   7.632  0.3884 -0.6790 -0.2360
  130OSM   H13S13969   4.491   4.604   7.631  0.4562 -0.8535 -0.5152
  130OSM   H13T13970   4.617   4.709   7.545 -0.1799 -0.6804 -0.3806
  130OSM   C14S13971   4.613   4.717   7.766  0.0015 -0.1234 -0.8033
  130OSM   H14S13972   4.554   4.811   7.760  0.3560  0.0924 -0.9034
  130OSM   H14T13973   4.722   4.734   7.779 -0.1313  0.1055  0.0587
  130OSM   C15S13974   4.567   4.630   7.888  0.0408  0.6196  0.3099
  130OSM   H15S13975   4.635   4.545   7.914 -0.3131 -0.1295 -1.1377
  130OSM   H15T13976   4.463   4.594   7.877  0.1869 -0.2448  1.5680
  130OSM   C16S13977   4.580   4.697   8.027  0.5430  0.0884  0.1400
  130OSM   H16S13978   4.531   4.626   8.096 -0.4676  0.7520  0.1135
  130OSM   H16T13979   4.530   4.797   8.027  2.4419  1.1319 -2.9772
  130OSM   C17S13980   4.734   4.712   8.073  0.5802 -0.7630 -0.0955
  130OSM   H17S13981   4.777   4.783   7.999 -1.4815  1.7276  1.0075
  130OSM   H17T13982   4.770   4.607   8.067 -2.9509 -2.0415 -0.1045
  130OSM   C18S13983   4.743   4.778   8.211  0.0406  0.2036  0.3733
  130OSM   H18S13984   4.718   4.886   8.203 -0.9815  0.0774  1.7017
  130OSM   H18T13985   4.848   4.773   8.247  0.4655 -0.4556 -0.9111
  130OSM   H18U13986   4.671   4.725   8.278  0.3822  0.8356  1.2435
  130OSM    C1F13987   4.662   3.931   6.527  0.4326 -0.3136 -0.5982
  130OSM     OF13988   4.717   3.846   6.462 -0.5278  0.1528  0.1790
  130OSM    C2F13989   4.524   3.901   6.586  0.7425  0.1114  0.6125
  130OSM    H2F13990   4.466   3.843   6.512  2.7431  2.2702 -2.8092
  130OSM    H2G13991   4.471   3.999   6.587 -0.7365 -0.5980 -2.7449
  130OSM    C3F13992   4.533   3.843   6.728 -0.2816  0.1980 -0.4282
  130OSM    H3F13993   4.602   3.756   6.730 -0.7200 -0.1547 -0.5195
  130OSM    H3G13994   4.429   3.807   6.747  1.4013 -2.7625  3.9600
  130OSM    C4F13995   4.582   3.949   6.832  0.2174 -0.4705  0.1974
  130OSM    H4F13996   4.530   4.047   6.827  0.8393 -0.1926 -1.3553
  130OSM    H4G13997   4.689   3.972   6.813  0.0885 -0.1663 -0.1595
  130OSM    C5F13998   4.565   3.905   6.973 -0.6915 -0.3242 -0.5170
  130OSM    H5F13999   4.635   3.820   6.979 -1.4653 -1.2162 -3.4559
  130OSM    H5G14000   4.462   3.866   6.992 -1.8708  1.8944 -2.0583
  130OSM    C6F14001   4.590   4.019   7.077 -0.4136 -0.6408  0.1329
  130OSM    H6F14002   4.507   4.093   7.072 -0.2364 -0.3134  1.6992
  130OSM    H6G14003   4.684   4.066   7.043 -0.2906 -2.3538 -1.9359
  130OSM    C7F14004   4.600   3.982   7.219  0.0642  0.5621 -0.1631
  130OSM    H7F14005   4.639   4.065   7.282  0.7987  1.6380 -2.0015
  130OSM    H7G14006   4.670   3.898   7.237 -0.8624 -0.1846  0.0365
  130OSM    C8F14007   4.456   3.951   7.286  0.3933  0.2581  0.3377
  130OSM    H8F14008   4.481   3.891   7.376 -0.0998  0.7698  0.8098
  130OSM    H8G14009   4.396   3.885   7.219  0.7404 -0.9020  1.1519
  130OSM    C9F14010   4.384   4.081   7.317 -0.0678  0.5475  0.4690
  130OSM    H9F14011   4.310   4.104   7.239 -1.1678  0.6872  1.5497
  130OSM   C10F14012   4.376   4.151   7.428  0.0261 -0.3459 -0.6520
  130OSM   H10F14013   4.314   4.241   7.433 -1.0329 -1.1678  1.6337
  130OSM   C11F14014   4.450   4.109   7.554  0.1660  0.1537 -0.3037
  130OSM   H11F14015   4.536   4.177   7.570  1.6244 -1.6410 -0.2953
  130OSM   H11G14016   4.491   4.006   7.543  0.8936  0.1647  2.0716
  130OSM   C12F14017   4.370   4.115   7.682  0.8165 -0.1824 -0.5247
  130OSM   H12F14018   4.433   4.081   7.767  0.5703  3.0705  1.0193
  130OSM   H12G14019   4.290   4.038   7.672  2.0315 -1.6464  0.6941
  130OSM   C13F14020   4.325   4.251   7.726  0.1269  0.3815 -0.0595
  130OSM   H13F14021   4.249   4.284   7.653 -1.5561  1.8686  2.2909
  130OSM   H13G14022   4.406   4.327   7.726  0.2226  0.3168 -2.5060
  130OSM   C14F14023   4.269   4.250   7.873  0.0741  0.6256  0.1542
  130OSM   H14F14024   4.343   4.228   7.952  1.0021  1.4859 -0.4525
  130OSM   H14G14025   4.196   4.167   7.866  1.2902 -0.2517 -2.7676
  130OSM   C15F14026   4.203   4.386   7.911  0.2262 -0.1848  0.2339
  130OSM   H15F14027   4.121   4.399   7.838  0.8466  0.9074 -0.2821
  130OSM   H15G14028   4.283   4.463   7.901 -1.0637  1.0700 -0.5369
  130OSM   C16F14029   4.133   4.383   8.043 -0.5837  0.9349  0.1519
  130OSM   H16F14030   4.055   4.303   8.047 -0.0929  0.0652 -4.6704
  130OSM   H16G14031   4.069   4.474   8.046  0.2642  1.5152  1.0740
  130OSM   C17F14032   4.233   4.394   8.157 -0.3877  0.6075 -0.1677
  130OSM   H17F14033   4.302   4.477   8.132  0.4982  0.2254  1.0097
  130OSM   H17G14034   4.296   4.303   8.169 -3.5268 -1.8836 -1.6697
  130OSM   C18F14035   4.178   4.436   8.291  0.1246  0.6670 -0.2715
  130OSM   H18F14036   4.109   4.361   8.334  0.3242  1.2902  1.1636
  130OSM   H18G14037   4.125   4.531   8.271 -0.0382  1.0925  2.0609
  130OSM   H18H14038   4.264   4.460   8.358  1.7464  0.4799 -2.2083
  131OSM      N14039   6.087   2.540   5.889  0.9463  0.5880  0.2202
  131OSM    C1514040   6.007   2.582   5.771 -0.1743 -0.4243  0.2816
  131OSM   H15A14041   5.995   2.493   5.710  0.4277  0.8871 -1.7935
  131OSM   H15B14042   6.057   2.662   5.718  0.1489 -1.3497 -0.8452
  131OSM   H15C14043   5.910   2.623   5.793  0.2395  0.8608 -0.2814
  131OSM    C1414044   6.034   2.416   5.953 -0.2103  0.4314  0.0244
  131OSM   H14A14045   6.031   2.329   5.889 -0.7678  1.0808 -0.8318
  131OSM   H14B14046   5.931   2.424   5.982 -0.4987 -0.6784 -0.6466
  131OSM   H14C14047   6.097   2.382   6.034 -0.3410 -0.2065 -0.1364
  131OSM    C1314048   6.233   2.526   5.842  0.6060  0.2341  0.1860
  131OSM   H13A14049   6.276   2.617   5.802  0.9180 -0.0513 -0.1328
  131OSM   H13B14050   6.246   2.447   5.769 -0.8577  0.6744 -0.5689
  131OSM   H13C14051   6.296   2.492   5.923  2.5399 -1.9469 -2.1407
  131OSM    C1214052   6.076   2.645   5.996 -0.2426  0.5759 -0.4617
  131OSM   H12A14053   5.981   2.630   6.046 -0.3183  0.0455 -0.7592
  131OSM   H12B14054   6.079   2.749   5.967  3.1413  1.2505  1.8945
  131OSM    C1114055   6.181   2.634   6.110  0.1877  0.2238 -0.3457
  131OSM   H11A14056   6.170   2.726   6.172 -0.9621 -0.7190  0.8750
  131OSM   H11B14057   6.286   2.641   6.074  0.7500  1.1739  1.4402
  131OSM      P14058   6.254   2.473   6.291 -0.2964  0.2103  0.1680
  131OSM    O1314059   6.353   2.390   6.214  0.5720  0.3231 -0.2101
  131OSM    O1414060   6.299   2.586   6.379 -0.4963 -0.5534 -0.0411
  131OSM    O1114061   6.168   2.378   6.387  0.0304  0.1515 -0.0157
  131OSM    O1214062   6.149   2.519   6.190  0.0421 -0.5925 -0.0254
  131OSM    C1S14063   6.250   2.290   6.466  0.3192 -0.2681 -0.4077
  131OSM    H1S14064   6.331   2.342   6.520 -1.9269  2.2769  0.6388
  131OSM    H1T14065   6.302   2.219   6.398 -1.1594 -1.7546 -0.0283
  131OSM     NF14066   6.253   2.155   6.674  0.0983  0.5651 -0.0495
  131OSM    HNF14067   6.281   2.060   6.683 -3.0954 -0.3020  1.4231
  131OSM    C2S14068   6.168   2.193   6.557 -0.6586 -0.6083  0.0346
  131OSM    H2S14069   6.087   2.255   6.601 -0.3392  0.0139 -0.2485
  131OSM    C3S14070   6.107   2.075   6.475 -0.4046 -1.0524 -0.8919
  131OSM    H3S14071   6.183   1.996   6.454  0.1128 -0.2986 -1.8761
  131OSM     O314072   6.073   2.107   6.337  0.2916  0.3496  0.2181
  131OSM    HO314073   6.100   2.198   6.323 -0.9883  0.8999  1.3207
  131OSM    C4S14074   5.988   2.023   6.548  0.0553  0.0655  0.0142
  131OSM    H4S14075   6.017   1.955   6.630 -1.6160 -1.1114 -0.3381
  131OSM    C5S14076   5.857   2.038   6.529 -0.1216  0.2344 -0.1206
  131OSM    H5S14077   5.815   2.088   6.441  0.3144  1.6044  0.4371
  131OSM    C6S14078   5.748   1.974   6.615 -0.0255 -0.5966 -0.2338
  131OSM    H6S14079   5.685   1.915   6.545 -0.0410 -1.8054  0.7873
  131OSM    H6T14080   5.691   2.056   6.664  0.5070  0.8787 -2.0166
  131OSM    C7S14081   5.797   1.895   6.739 -0.4930  0.2083 -0.3489
  131OSM    H7S14082   5.883   1.946   6.787 -0.4544 -2.5877  2.7031
  131OSM    H7T14083   5.828   1.796   6.699  2.8457  1.2704 -0.5174
  131OSM    C8S14084   5.699   1.873   6.856  0.2585  0.1605  0.1097
  131OSM    H8S14085   5.609   1.823   6.815  1.3735 -2.7348  1.0906
  131OSM    H8T14086   5.677   1.980   6.876 -0.6505 -0.1472  0.7930
  131OSM    C9S14087   5.759   1.802   6.972 -0.0167 -0.3375 -0.0401
  131OSM    H9S14088   5.834   1.869   7.019  2.1036 -1.3980 -1.8077
  131OSM    H9T14089   5.812   1.713   6.930 -1.3199 -1.5840  0.9487
  131OSM   C10S14090   5.650   1.773   7.077 -1.0185  0.0420  0.0160
  131OSM   H10S14091   5.559   1.723   7.037 -0.5126 -2.5686  2.0104
  131OSM   H10T14092   5.605   1.872   7.098 -0.4705  0.3964 -0.4420
  131OSM   C11S14093   5.698   1.697   7.203  0.8304 -0.0574 -0.5727
  131OSM   H11S14094   5.782   1.757   7.242  0.3552 -1.4159  2.7464
  131OSM   H11T14095   5.735   1.596   7.176 -0.2997 -0.3053 -1.2385
  131OSM   C12S14096   5.584   1.684   7.306  0.0816 -0.6522 -0.4937
  131OSM   H12S14097   5.496   1.624   7.277 -1.0432  0.3011  0.9062
  131OSM   H12T14098   5.549   1.787   7.329  1.3709 -0.0087 -1.3106
  131OSM   C13S14099   5.644   1.628   7.435  0.2428  0.1103  0.2206
  131OSM   H13S14100   5.735   1.687   7.458 -1.1507  2.5393 -0.3115
  131OSM   H13T14101   5.673   1.521   7.434  3.7757  0.9363  3.1583
  131OSM   C14S14102   5.543   1.658   7.547 -0.3700  0.3294 -0.3691
  131OSM   H14S14103   5.434   1.648   7.526 -1.6195  2.4115  4.4938
  131OSM   H14T14104   5.559   1.766   7.567  0.2981  0.2884 -0.6799
  131OSM   C15S14105   5.560   1.572   7.673 -0.6104 -0.0961 -0.1192
  131OSM   H15S14106   5.668   1.562   7.694 -0.6354  3.4931  2.1190
  131OSM   H15T14107   5.523   1.469   7.651 -3.0319  0.5900  0.5585
  131OSM   C16S14108   5.481   1.636   7.787 -0.2390  0.5557  0.2903
  131OSM   H16S14109   5.375   1.632   7.756 -0.3804 -1.1568  0.9621
  131OSM   H16T14110   5.489   1.747   7.787  0.6608  0.5003  0.6958
  131OSM   C17S14111   5.497   1.556   7.924 -0.9874 -0.3230 -0.1368
  131OSM   H17S14112   5.439   1.462   7.914  1.0008 -1.5795 -0.1107
  131OSM   H17T14113   5.444   1.606   8.008 -3.0866  0.4228 -1.8530
  131OSM   C18S14114   5.643   1.529   7.963 -0.2410  0.8308 -0.3360
  131OSM   H18S14115   5.707   1.618   7.946 -1.0484  1.8715  1.7980
  131OSM   H18T14116   5.689   1.436   7.925  0.6236  1.0927  0.0603
  131OSM   H18U14117   5.646   1.527   8.074 -0.1908  3.2746 -0.2511
  131OSM    C1F14118   6.295   2.243   6.772  0.2016 -0.6040 -0.2997
  131OSM     OF14119   6.251   2.357   6.767  0.1901  0.0752  0.0801
  131OSM    C2F14120   6.388   2.184   6.879  0.5666  0.2788  0.4091
  131OSM    H2F14121   6.489   2.167   6.835  0.1096 -0.3010 -0.4234
  131OSM    H2G14122   6.358   2.079   6.899  1.2082 -0.2388 -1.2340
  131OSM    C3F14123   6.386   2.260   7.012  0.0676  0.4035 -0.0567
  131OSM    H3F14124   6.280   2.259   7.046  0.2317 -0.0756  0.4515
  131OSM    H3G14125   6.411   2.368   7.002 -0.0056  0.5156  0.8886
  131OSM    C4F14126   6.477   2.203   7.119 -0.6502 -0.2312 -0.2325
  131OSM    H4F14127   6.579   2.189   7.078  0.2228 -0.1180  1.8444
  131OSM    H4G14128   6.439   2.102   7.143 -0.2210 -0.8132 -1.9322
  131OSM    C5F14129   6.479   2.278   7.253 -0.8001 -0.3790 -0.5103
  131OSM    H5F14130   6.377   2.302   7.291 -0.9638 -0.2781 -1.0094
  131OSM    H5G14131   6.521   2.378   7.231 -2.3465  0.8681  2.0002
  131OSM    C6F14132   6.550   2.210   7.377  0.0665 -0.7926  0.0962
  131OSM    H6F14133   6.655   2.188   7.348  0.0520 -1.1704  0.3319
  131OSM    H6G14134   6.491   2.116   7.378 -4.4654  1.9023 -0.1930
  131OSM    C7F14135   6.546   2.275   7.511  0.0152 -0.3695  0.1096
  131OSM    H7F14136   6.440   2.288   7.540  0.4511 -0.3497  1.7236
  131OSM    H7G14137   6.593   2.375   7.493 -2.0372  0.6977  0.4647
  131OSM    C8F14138   6.615   2.194   7.622 -0.6527  0.1102 -0.3065
  131OSM    H8F14139   6.724   2.180   7.606 -0.3921  0.9553  0.6370
  131OSM    H8G14140   6.571   2.091   7.623 -0.6552  0.0805 -2.1687
  131OSM    C9F14141   6.603   2.262   7.761  0.6544 -0.7068  0.0238
  131OSM    H9F14142   6.552   2.358   7.778  0.1779 -1.0451  0.5579
  131OSM   C10F14143   6.647   2.198   7.872 -0.0438  0.0790 -0.5019
  131OSM   H10F14144   6.636   2.245   7.971 -1.9828  0.0600 -0.6867
  131OSM   C11F14145   6.709   2.061   7.863 -0.5079  0.8599 -0.2742
  131OSM   H11F14146   6.780   2.056   7.777  0.7697  2.9185  0.6185
  131OSM   H11G14147   6.631   1.984   7.848 -0.6925  1.4181 -2.4442
  131OSM   C12F14148   6.790   2.021   7.992  0.1097 -1.0310 -0.0205
  131OSM   H12F14149   6.724   2.048   8.077  0.3554 -1.2250  0.2302
  131OSM   H12G14150   6.885   2.079   7.999  0.1675 -1.2808  1.3367
  131OSM   C13F14151   6.819   1.870   8.008  0.7384  0.2844  0.3388
  131OSM   H13F14152   6.885   1.839   7.924  0.4290 -2.5230  1.0790
  131OSM   H13G14153   6.721   1.822   7.989  0.9142 -0.4314  1.1985
  131OSM   C14F14154   6.864   1.832   8.143  0.0709 -0.0543 -0.6586
  131OSM   H14F14155   6.791   1.879   8.212  0.8617  0.5877 -0.2513
  131OSM   H14G14156   6.971   1.858   8.158 -0.0875  1.8571 -2.5571
  131OSM   C15F14157   6.866   1.685   8.176 -0.7870  0.0206 -0.3133
  131OSM   H15F14158   6.770   1.636   8.148 -0.6836 -0.0346 -0.5699
  131OSM   H15G14159   6.872   1.680   8.287 -2.1789 -3.1200 -0.3167
  131OSM   C16F14160   6.994   1.607   8.122  0.0490 -1.1906  0.3744
  131OSM   H16F14161   6.987   1.510   8.176  0.7236 -0.6772  1.4072
  131OSM   H16G14162   7.094   1.651   8.147 -0.8119  0.2384  1.3659
  131OSM   C17F14163   6.985   1.565   7.974  0.2804  0.0534 -0.8139
  131OSM   H17F14164   7.057   1.628   7.916 -0.0086 -1.0798 -2.4471
  131OSM   H17G14165   6.884   1.592   7.938  0.4805  0.6842 -0.9150
  131OSM   C18F14166   7.016   1.421   7.944  0.0188 -0.6521  0.6048
  131OSM   H18F14167   7.125   1.407   7.960  0.3728  1.5925  0.3198
  131OSM   H18G14168   6.985   1.389   7.843  0.3528 -0.0416  0.3036
  131OSM   H18H14169   6.965   1.356   8.018  0.6479 -0.3098  1.3519
  132OSM      N14170   1.556   5.441   6.269  0.0951 -0.5471 -0.6555
  132OSM    C1514171   1.499   5.486   6.408  0.2095  0.7438 -0.1446
  132OSM   H15A14172   1.541   5.422   6.484 -1.2959 -1.0758 -0.7935
  132OSM   H15B14173   1.392   5.471   6.408  0.2348  0.2496 -2.4530
  132OSM   H15C14174   1.533   5.584   6.437  0.3490  1.0017 -1.1671
  132OSM    C1414175   1.698   5.480   6.278  0.5177 -0.6780  0.4099
  132OSM   H14A14176   1.707   5.582   6.311 -2.8548 -0.3679  0.4894
  132OSM   H14B14177   1.766   5.472   6.193  0.5728  4.2141 -0.1544
  132OSM   H14C14178   1.741   5.416   6.353  0.2239 -1.3911 -0.0211
  132OSM    C1314179   1.542   5.284   6.259 -0.4797 -0.4990 -0.4109
  132OSM   H13A14180   1.548   5.243   6.359  1.0000  1.5453  0.3790
  132OSM   H13B14181   1.604   5.234   6.186  0.9554 -1.2723  1.3033
  132OSM   H13C14182   1.438   5.261   6.244 -0.7037 -1.1859  1.9414
  132OSM    C1214183   1.501   5.514   6.154 -0.5972 -0.6072 -0.2822
  132OSM   H12A14184   1.558   5.496   6.064  0.7297 -0.2256  0.4635
  132OSM   H12B14185   1.513   5.618   6.178  0.8197 -0.8188 -0.0012
  132OSM    C1114186   1.355   5.482   6.114 -0.7665 -0.0164 -0.0856
  132OSM   H11A14187   1.347   5.382   6.067  2.0503 -0.5319  0.4408
  132OSM   H11B14188   1.342   5.555   6.031  0.7813  0.1657 -0.1897
  132OSM      P14189   1.183   5.630   6.249 -0.3162 -0.1256 -0.1258
  132OSM    O1314190   1.269   5.754   6.224 -0.2492 -0.2643 -0.5224
  132OSM    O1414191   1.047   5.618   6.202  0.2182  0.1478  0.1844
  132OSM    O1114192   1.181   5.628   6.408  0.9329  0.5048  0.4460
  132OSM    O1214193   1.262   5.494   6.219  0.3292  0.1022  0.2184
  132OSM    C1S14194   1.107   5.529   6.481 -0.4260 -0.2351 -0.1362
  132OSM    H1S14195   1.175   5.441   6.484  0.8670  0.7384 -0.4642
  132OSM    H1T14196   1.007   5.505   6.438  0.7602 -2.0215 -2.0081
  132OSM     NF14197   1.009   5.465   6.691  0.0664  0.3791 -0.0633
  132OSM    HNF14198   0.910   5.466   6.700 -0.4152 -2.3818 -4.0098
  132OSM    C2S14199   1.074   5.579   6.623  0.4060  0.0009 -0.6395
  132OSM    H2S14200   1.173   5.593   6.673  1.1810 -5.5575 -0.2734
  132OSM    C3S14201   0.995   5.715   6.629  0.1979 -0.2554 -0.3620
  132OSM    H3S14202   0.896   5.698   6.582  0.1064 -1.8308  0.3915
  132OSM     O314203   1.052   5.831   6.564  0.3233 -0.4387 -0.4618
  132OSM    HO314204   1.128   5.796   6.516  1.4819  0.5135  0.6716
  132OSM    C4S14205   0.949   5.754   6.769 -0.7013  0.3519  0.3220
  132OSM    H4S14206   0.857   5.700   6.795 -1.4112  1.8746  0.9928
  132OSM    C5S14207   1.017   5.835   6.860  0.2991  0.3321  0.0250
  132OSM    H5S14208   1.106   5.894   6.831  0.4554 -0.0006 -0.1663
  132OSM    C6S14209   0.971   5.870   7.002  0.4172  0.6309  0.3880
  132OSM    H6S14210   0.980   5.980   7.011  0.8253  0.6446 -0.1235
  132OSM    H6T14211   1.040   5.827   7.078  0.7231  1.1672  0.4166
  132OSM    C7S14212   0.822   5.840   7.023 -0.9592 -0.2378 -0.1927
  132OSM    H7S14213   0.783   5.737   7.009 -0.1986 -0.6062  0.4321
  132OSM    H7T14214   0.768   5.912   6.957 -0.8246  0.7770  0.8065
  132OSM    C8S14215   0.769   5.885   7.161 -0.1164  0.3804  0.2194
  132OSM    H8S14216   0.669   5.836   7.168  0.8045 -1.7372 -0.8834
  132OSM    H8T14217   0.758   5.995   7.175  2.4496  0.7119 -0.0852
  132OSM    C9S14218   0.855   5.828   7.279 -0.2751  0.3213 -0.1244
  132OSM    H9S14219   0.950   5.884   7.296  0.8237 -1.9579  1.4977
  132OSM    H9T14220   0.871   5.719   7.269  1.1065  0.6670 -1.8657
  132OSM   C10S14221   0.785   5.855   7.416 -0.1590 -0.2021  0.2416
  132OSM   H10S14222   0.687   5.804   7.429 -0.9501  1.6816  1.8270
  132OSM   H10T14223   0.763   5.963   7.409 -0.0244 -0.1765  0.1924
  132OSM   C11S14224   0.857   5.814   7.551 -0.4218 -0.5886 -0.3215
  132OSM   H11S14225   0.940   5.885   7.569  0.9349 -1.7869 -1.7574
  132OSM   H11T14226   0.880   5.705   7.547 -1.1081 -0.6774 -2.0817
  132OSM   C12S14227   0.760   5.824   7.669  0.9179  0.4360  0.2256
  132OSM   H12S14228   0.672   5.759   7.646  1.2663  1.1261 -3.3720
  132OSM   H12T14229   0.740   5.932   7.683  0.0694  0.3603 -0.3347
  132OSM   C13S14230   0.824   5.779   7.802 -0.9540  0.0346 -0.0275
  132OSM   H13S14231   0.914   5.840   7.822 -1.5669  0.8720  0.2298
  132OSM   H13T14232   0.866   5.676   7.790 -1.3975 -0.4430  2.2198
  132OSM   C14S14233   0.731   5.795   7.924  0.0268 -0.5920  0.1643
  132OSM   H14S14234   0.629   5.768   7.887 -0.2318  0.0864  0.3753
  132OSM   H14T14235   0.718   5.905   7.932 -0.9897 -0.8345  2.0093
  132OSM   C15S14236   0.768   5.736   8.065 -0.7595  0.0292 -0.5436
  132OSM   H15S14237   0.789   5.627   8.058 -0.5784  0.1606 -2.3740
  132OSM   H15T14238   0.675   5.743   8.125 -0.8901 -1.8707 -0.4735
  132OSM   C16S14239   0.889   5.804   8.142 -1.2627 -0.0878  0.2197
  132OSM   H16S14240   0.869   5.913   8.151 -0.3762  0.1442 -0.4697
  132OSM   H16T14241   0.979   5.797   8.076 -0.8556  0.8438  0.6728
  132OSM   C17S14242   0.906   5.748   8.284  0.1224  0.2177 -0.0565
  132OSM   H17S14243   0.936   5.641   8.279  0.9129  0.5055 -2.0016
  132OSM   H17T14244   0.808   5.737   8.335  0.1938  0.0044  0.0319
  132OSM   C18S14245   1.023   5.812   8.356 -0.0550 -0.3994  0.8712
  132OSM   H18S14246   1.019   5.802   8.467  2.6401  2.5214  1.2809
  132OSM   H18T14247   1.013   5.921   8.336  1.4027 -0.6090 -1.1653
  132OSM   H18U14248   1.114   5.774   8.305 -0.7721  0.4144 -1.0152
  132OSM    C1F14249   1.070   5.352   6.729  0.4208  0.0811  0.4229
  132OSM     OF14250   1.190   5.346   6.708 -0.0737 -0.5183  0.4075
  132OSM    C2F14251   0.989   5.234   6.773  0.1437  0.3772 -0.1629
  132OSM    H2F14252   1.001   5.155   6.696  1.4441 -2.0338  2.4167
  132OSM    H2G14253   0.882   5.259   6.783  0.0815  0.5347 -1.1275
  132OSM    C3F14254   1.037   5.206   6.916 -0.7861  0.1575 -0.2500
  132OSM    H3F14255   1.016   5.295   6.978 -1.2947 -0.5488  0.6108
  132OSM    H3G14256   1.142   5.171   6.915 -0.7789  0.1900 -0.7238
  132OSM    C4F14257   0.958   5.093   6.983  0.1717 -0.5485 -0.7729
  132OSM    H4F14258   0.985   4.994   6.940 -4.2994 -2.2342  0.0277
  132OSM    H4G14259   0.848   5.106   6.973  0.2799  1.2994  0.1542
  132OSM    C5F14260   0.981   5.098   7.134  0.3325  0.1320  0.5054
  132OSM    H5F14261   0.976   5.205   7.166  0.2615 -0.3044  2.0099
  132OSM    H5G14262   1.081   5.056   7.158 -0.7526 -2.4931  0.5454
  132OSM    C6F14263   0.886   5.018   7.221  0.4691 -1.0960  0.6460
  132OSM    H6F14264   0.903   4.910   7.205  0.7081 -0.7766 -1.4303
  132OSM    H6G14265   0.776   5.032   7.206  0.7915  1.1516  0.0757
  132OSM    C7F14266   0.905   5.055   7.362 -0.5119 -0.6006 -0.5148
  132OSM    H7F14267   0.896   5.163   7.387 -0.3861 -0.1061 -2.4977
  132OSM    H7G14268   1.005   5.016   7.390 -1.0595 -0.3497  1.9252
  132OSM    C8F14269   0.820   4.970   7.461 -0.3365 -0.2627  0.3233
  132OSM    H8F14270   0.875   4.975   7.558  1.3796  0.7649 -0.6682
  132OSM    H8G14271   0.828   4.865   7.425  1.5339  0.3386 -1.1189
  132OSM    C9F14272   0.680   5.022   7.487  0.7818  0.3231  0.5479
  132OSM    H9F14273   0.663   5.127   7.461  0.6364 -0.5317 -3.0702
  132OSM   C10F14274   0.585   4.957   7.547  0.4260 -0.5065 -0.3078
  132OSM   H10F14275   0.491   5.013   7.557  0.1485 -0.8811 -0.7925
  132OSM   C11F14276   0.592   4.814   7.600 -0.1156 -0.8574 -0.6769
  132OSM   H11F14277   0.699   4.789   7.618 -0.0078 -0.1669 -0.3318
  132OSM   H11G14278   0.559   4.735   7.530  1.7085 -3.3166  1.1610
  132OSM   C12F14279   0.505   4.795   7.728  0.6775  0.1990 -0.2324
  132OSM   H12F14280   0.502   4.690   7.762  0.4897  0.6496  1.2127
  132OSM   H12G14281   0.402   4.837   7.721  0.3680 -0.3035  1.1893
  132OSM   C13F14282   0.552   4.868   7.853  0.7383 -0.3320 -0.0225
  132OSM   H13F14283   0.538   4.976   7.836  2.0645  0.0322  1.1064
  132OSM   H13G14284   0.659   4.854   7.878  0.4429  2.4675  3.2469
  132OSM   C14F14285   0.472   4.837   7.980  0.3209 -0.4811  0.4394
  132OSM   H14F14286   0.509   4.735   8.003  1.0461 -0.7269 -1.7043
  132OSM   H14G14287   0.365   4.820   7.952  0.6138 -1.5298 -0.0880
  132OSM   C15F14288   0.484   4.940   8.099 -0.1180 -0.1671  0.2507
  132OSM   H15F14289   0.473   5.040   8.053  0.1806 -0.1359  0.2445
  132OSM   H15G14290   0.590   4.941   8.133  0.4618  2.2464 -1.5261
  132OSM   C16F14291   0.397   4.911   8.219  0.0080 -0.4268 -0.2472
  132OSM   H16F14292   0.421   4.822   8.282  0.6941  0.2895  0.5163
  132OSM   H16G14293   0.294   4.894   8.182  0.6905 -0.0699 -2.4155
  132OSM   C17F14294   0.387   5.032   8.317  0.6708 -0.3602  0.1280
  132OSM   H17F14295   0.311   5.004   8.394  1.1978  0.1971  0.8656
  132OSM   H17G14296   0.362   5.129   8.269 -1.0403 -1.5384 -1.4407
  132OSM   C18F14297   0.514   5.059   8.393 -0.3260 -0.5734  0.0417
  132OSM   H18F14298   0.501   5.136   8.472 -0.8297 -1.8707  1.2411
  132OSM   H18G14299   0.586   5.109   8.325 -0.1233 -1.1949 -0.2023
  132OSM   H18H14300   0.558   4.980   8.457  1.9498  0.5324 -0.0971
  133SAPE     N14301   4.348   2.444  10.918  0.3431 -0.1040 -0.1643
  133SAPE   HN114302   4.319   2.368  10.983  1.1441  0.0181  0.3448
  133SAPE   HN214303   4.313   2.404  10.829 -0.6606  0.2932  0.0471
  133SAPE   HN314304   4.452   2.440  10.910  0.5487  1.3983  1.5043
  133SAPE   C1214305   4.292   2.575  10.970  0.5128  0.9504 -0.0905
  133SAPE  H12A14306   4.380   2.620  11.021  0.9425 -1.9321  1.8684
  133SAPE  H12B14307   4.202   2.566  11.035 -0.6137  0.1084 -1.7156
  133SAPE   C1114308   4.266   2.663  10.850 -0.2131 -0.0620 -0.0173
  133SAPE  H11A14309   4.218   2.757  10.883 -0.8657  0.2754 -1.8528
  133SAPE  H11B14310   4.188   2.609  10.792 -0.9480  1.0410 -0.0868
  133SAPE     P14311   4.495   2.796  10.798  0.0682 -0.0961  0.5472
  133SAPE   O1314312   4.428   2.884  10.893 -0.3226  0.2644 -0.3039
  133SAPE   O1414313   4.622   2.735  10.845 -0.1164  0.2711 -0.1882
  133SAPE   O1214314   4.384   2.679  10.767  0.3570  0.1465 -0.4043
  133SAPE   O1114315   4.510   2.868  10.654  0.0062 -0.1675 -0.1785
  133SAPE    C114316   4.388   2.906  10.585  0.3650  0.2429 -1.0460
  133SAPE    HA14317   4.307   2.937  10.655  1.6615 -1.0544  1.0817
  133SAPE    HB14318   4.402   3.004  10.534  2.7247  0.5126  0.0354
  133SAPE    C214319   4.321   2.793  10.499  0.7344  0.3203  0.2301
  133SAPE    HS14320   4.358   2.695  10.538  0.6618  0.8299  1.5995
  133SAPE   O2114321   4.373   2.818  10.368 -0.7581 -0.0836  0.3799
  133SAPE   C2114322   4.504   2.784  10.344  0.1111  0.3547 -0.0788
  133SAPE   O2214323   4.573   2.726  10.419 -0.3671  0.5211 -0.2876
  133SAPE   C2214324   4.537   2.811  10.191  0.3737 -0.3810 -0.0377
  133SAPE   H2R14325   4.486   2.903  10.155  2.1127  0.0291 -1.5234
  133SAPE   H2S14326   4.647   2.826  10.196  0.0627  1.5454  1.8027
  133SAPE    C314327   4.162   2.795  10.504  0.2823  0.4129  0.1789
  133SAPE    HX14328   4.133   2.903  10.504 -0.1510  0.2959  0.1174
  133SAPE    HY14329   4.133   2.742  10.597  0.1191  0.4829  0.1690
  133SAPE   O3114330   4.099   2.727  10.389 -0.1908  0.4787  0.7326
  133SAPE   C3114331   4.015   2.787  10.306 -0.2132  0.1145  0.1696
  133SAPE   O3214332   3.962   2.893  10.327  0.0608  0.0390 -0.0522
  133SAPE   C3214333   4.007   2.718  10.170  0.2529  0.1354 -0.3258
  133SAPE   H2X14334   4.029   2.610  10.188 -1.8699 -0.2108  0.3982
  133SAPE   H2Y14335   4.079   2.772  10.106 -0.1555 -0.6869 -1.4865
  133SAPE   C2314336   4.505   2.705  10.077  0.4408  0.3084 -0.1298
  133SAPE   H3R14337   4.394   2.699  10.075  0.3694  1.6086 -0.6923
  133SAPE   H3S14338   4.552   2.613  10.118  0.8033  1.6565  2.5676
  133SAPE   C2414339   4.565   2.752   9.939  0.2328  0.5106  0.0995
  133SAPE   H4R14340   4.670   2.717   9.941  0.2623  0.5238 -0.8408
  133SAPE   H4S14341   4.559   2.863   9.936 -2.1800  0.4029 -0.2099
  133SAPE   C2514342   4.501   2.684   9.818 -0.5593  0.2383  0.1871
  133SAPE   H5R14343   4.396   2.654   9.827 -0.1722 -0.4266  2.7191
  133SAPE   C2614344   4.544   2.681   9.688 -0.2682 -0.4797  0.1970
  133SAPE   H6R14345   4.476   2.639   9.612 -2.2955 -0.1194  1.7558
  133SAPE   C2714346   4.680   2.730   9.649 -0.2783 -0.1678 -0.2081
  133SAPE   H7R14347   4.728   2.654   9.584 -2.6761  0.1712 -2.4696
  133SAPE   H7S14348   4.752   2.735   9.733  0.9679 -1.1741 -1.1944
  133SAPE   C2814349   4.660   2.864   9.584  0.4125 -0.4276 -0.4463
  133SAPE   H8R14350   4.621   2.947   9.645  2.1032 -1.7580  2.5940
  133SAPE   C2914351   4.699   2.914   9.461  1.0173 -0.1139  0.5055
  133SAPE   H9R14352   4.698   3.022   9.441  0.1979  0.0295  1.2934
  133SAPE  C21014353   4.760   2.835   9.346  0.8498  0.2252 -0.1346
  133SAPE  H10R14354   4.746   2.890   9.251 -1.5231  0.3518  0.2678
  133SAPE  H10S14355   4.704   2.742   9.320 -0.5842  1.0410  0.0201
  133SAPE  C21114356   4.909   2.804   9.375  0.6535  0.0725 -0.9273
  133SAPE  H11R14357   4.922   2.765   9.478 -0.0217  0.8052 -0.5580
  133SAPE  C21214358   5.018   2.805   9.287 -0.1394 -0.3199  0.0923
  133SAPE  H12R14359   5.118   2.792   9.329 -0.4032  1.1345  1.2011
  133SAPE  C21314360   5.009   2.843   9.139 -0.2025 -0.3473 -0.4283
  133SAPE  H13R14361   5.066   2.935   9.117  1.3993 -1.5481 -1.3384
  133SAPE  H13S14362   4.903   2.849   9.104 -0.1627 -0.4576 -0.5659
  133SAPE  C21414363   5.071   2.746   9.050 -0.0456  0.4120  0.0699
  133SAPE  H14R14364   5.150   2.680   9.089  0.5863  1.6908  0.9848
  133SAPE  C21514365   5.047   2.740   8.912  0.2234  0.3869  0.2867
  133SAPE  H15R14366   5.091   2.661   8.850 -2.5080 -0.1852 -0.9972
  133SAPE  C21614367   4.957   2.821   8.831 -0.5135 -0.6545 -0.3325
  133SAPE  H16R14368   4.899   2.890   8.897 -0.9551 -0.9395 -0.4169
  133SAPE  H16S14369   4.885   2.754   8.779 -1.5857 -0.4506  0.8733
  133SAPE  C21714370   5.036   2.898   8.726  0.6369  0.2635  0.5243
  133SAPE  H17R14371   5.092   2.826   8.663  0.5051  0.4886  0.1454
  133SAPE  H17S14372   5.118   2.959   8.769  0.4368  0.2872  0.8693
  133SAPE  C21814373   4.941   2.973   8.629  0.4182  0.4965 -0.0000
  133SAPE  H18R14374   4.899   3.063   8.678 -0.4114 -0.2027  0.5873
  133SAPE  H18S14375   4.852   2.910   8.608  1.7871 -1.3958 -0.2310
  133SAPE  C21914376   5.003   2.996   8.487  0.6701 -0.0292 -0.1089
  133SAPE  H19R14377   5.026   2.898   8.440  0.3467  0.0262 -0.3819
  133SAPE  H19S14378   5.097   3.054   8.496 -1.0456  3.1759 -2.1190
  133SAPE  C22014379   4.906   3.062   8.398  0.6423  0.3344  0.0014
  133SAPE  H20R14380   4.945   3.087   8.297  0.4237 -0.1550 -0.2062
  133SAPE  H20S14381   4.872   3.153   8.451  1.1383  0.6028 -0.1440
  133SAPE  H20T14382   4.817   2.998   8.378  0.4611  0.0105  1.7930
  133SAPE   C3314383   3.868   2.729  10.114  0.3832 -0.5837 -0.2231
  133SAPE   H3X14384   3.835   2.835  10.103 -1.5555 -1.1926 -0.3414
  133SAPE   H3Y14385   3.801   2.668  10.177 -0.8112 -0.6983 -1.5806
  133SAPE   C3414386   3.868   2.680   9.969 -0.7961  0.0555  0.7422
  133SAPE   H4X14387   3.761   2.670   9.942 -0.3443 -2.2418 -0.3202
  133SAPE   H4Y14388   3.895   2.573   9.958 -1.4925 -0.1767  1.2477
  133SAPE   C3514389   3.945   2.766   9.858  0.9040 -0.7145  0.8364
  133SAPE   H5X14390   3.947   2.874   9.883  0.4933 -0.8514  1.4619
  133SAPE   H5Y14391   3.886   2.758   9.764  2.6887  2.2525 -0.6369
  133SAPE   C3614392   4.088   2.701   9.810  0.7760  0.7943 -0.0818
  133SAPE   H6X14393   4.058   2.599   9.778 -1.2608  0.9965  1.0608
  133SAPE   H6Y14394   4.164   2.688   9.890  2.1749  0.6398 -1.4197
  133SAPE   C3714395   4.156   2.786   9.702  0.2496  0.0725  0.0193
  133SAPE   H7X14396   4.093   2.804   9.613  2.4352  2.3491 -1.1492
  133SAPE   H7Y14397   4.236   2.723   9.657 -0.0367 -0.1999 -0.1095
  133SAPE   C3814398   4.223   2.917   9.737 -0.1700  0.7188 -0.1145
  133SAPE   H8X14399   4.269   2.921   9.838 -0.1505 -0.4698 -0.0736
  133SAPE   H8Y14400   4.137   2.987   9.737  0.0641  1.0109 -0.1094
  133SAPE   C3914401   4.326   2.969   9.633 -0.3132  0.0548  0.4769
  133SAPE   H9X14402   4.379   2.894   9.571  1.5127  2.6611 -1.2210
  133SAPE   H9Y14403   4.411   3.023   9.680 -0.3019  1.7709 -1.4154
  133SAPE  C31014404   4.254   3.062   9.530 -0.1611  0.0200  0.1292
  133SAPE  H10X14405   4.215   3.150   9.583  0.0506 -0.2436  0.7227
  133SAPE  H10Y14406   4.176   3.006   9.473 -1.0240  1.4687 -0.1207
  133SAPE  C31114407   4.348   3.107   9.413  0.4036  0.4366 -0.6404
  133SAPE  H11X14408   4.442   3.162   9.433  1.3850 -0.8883 -1.5296
  133SAPE  H11Y14409   4.285   3.172   9.348  0.1839  2.0133  1.0933
  133SAPE  C31214410   4.387   2.982   9.326  0.0475  0.3028 -0.2518
  133SAPE  H12X14411   4.282   2.952   9.305 -0.3245  0.7569  0.8806
  133SAPE  H12Y14412   4.428   2.892   9.378  0.5082 -0.6522 -2.2330
  133SAPE  C31314413   4.473   3.004   9.200  0.3241 -0.4411  0.0549
  133SAPE  H13X14414   4.572   3.029   9.244  1.4184 -0.8330 -2.0935
  133SAPE  H13Y14415   4.431   3.094   9.149 -0.6062 -2.1296 -2.2203
  133SAPE  C31414416   4.490   2.890   9.106 -0.4870  0.7595 -0.6115
  133SAPE  H14X14417   4.390   2.847   9.083 -0.5631  0.5322  0.1416
  133SAPE  H14Y14418   4.555   2.817   9.159 -1.8070  0.8512  1.1734
  133SAPE  C31514419   4.563   2.920   8.972  0.4091 -0.7650  0.7400
  133SAPE  H15X14420   4.563   2.830   8.907  0.0980  0.0844 -0.4577
  133SAPE  H15Y14421   4.670   2.947   8.986  0.4882 -0.7501  0.1344
  133SAPE  C31614422   4.493   3.037   8.880  0.1076  0.0010  0.1989
  133SAPE  H16X14423   4.500   3.130   8.941  1.7954  1.5476 -2.2261
  133SAPE  H16Y14424   4.386   3.011   8.868  0.2705 -1.0514  0.9618
  133SAPE  C31714425   4.569   3.064   8.745 -0.6485  0.1793 -0.1965
  133SAPE  H17X14426   4.555   2.970   8.687 -1.3675  0.2502 -0.1458
  133SAPE  H17Y14427   4.673   3.095   8.768 -0.6724 -0.9316  1.4622
  133SAPE  C31814428   4.503   3.167   8.656 -0.8700  0.8562 -0.2988
  133SAPE  H18X14429   4.492   3.266   8.705 -0.3335  1.4049 -1.2717
  133SAPE  H18Y14430   4.409   3.134   8.605 -2.4189  2.0918  1.7181
  133SAPE  H18Z14431   4.570   3.200   8.573 -0.5941  0.4918 -0.2255
  134SAPE     N14432   0.416   4.130  10.713 -0.0668 -0.2658 -0.0003
  134SAPE   HN114433   0.446   4.066  10.790  1.4473 -0.1108 -0.4456
  134SAPE   HN214434   0.500   4.187  10.692 -0.2829 -0.0146 -0.1878
  134SAPE   HN314435   0.346   4.190  10.761 -0.3147 -0.0483 -0.6196
  134SAPE   C1214436   0.350   4.059  10.597 -0.6343 -0.7014 -0.1492
  134SAPE  H12A14437   0.434   4.023  10.534  0.6496  4.4744 -1.6249
  134SAPE  H12B14438   0.309   4.137  10.529  1.9732  0.7939 -0.0466
  134SAPE   C1114439   0.246   3.946  10.636 -0.0951 -0.3200 -0.5567
  134SAPE  H11A14440   0.217   3.892  10.543 -0.5241  0.8158 -1.0878
  134SAPE  H11B14441   0.150   3.986  10.676 -0.6870 -2.8773  0.7187
  134SAPE     P14442   0.246   3.704  10.733 -0.2164 -0.3317  0.1073
  134SAPE   O1314443   0.261   3.637  10.867 -0.2963 -0.2087 -0.4762
  134SAPE   O1414444   0.112   3.710  10.670  0.1798  0.3457  0.0114
  134SAPE   O1214445   0.295   3.854  10.737  0.3486  0.5407 -0.6876
  134SAPE   O1114446   0.352   3.631  10.635  0.2718  0.1924 -0.1584
  134SAPE    C114447   0.488   3.679  10.624  0.8722 -0.2401  0.1335
  134SAPE    HA14448   0.482   3.786  10.595 -1.5906 -0.3530  0.0503
  134SAPE    HB14449   0.533   3.676  10.725 -1.5485  0.9127  1.2958
  134SAPE    C214450   0.576   3.584  10.524  1.1469 -0.2328  0.1548
  134SAPE    HS14451   0.681   3.617  10.503  1.1016  0.8767  1.5741
  134SAPE   O2114452   0.498   3.561  10.403  0.0987 -0.2084  0.4946
  134SAPE   C2114453   0.466   3.665  10.329 -0.2608 -0.0105  0.5124
  134SAPE   O2214454   0.497   3.784  10.341  0.0871  0.6225  0.4993
  134SAPE   C2214455   0.360   3.623  10.224 -0.5873  0.1616 -0.2302
  134SAPE   H2R14456   0.388   3.527  10.177  1.5245  0.8237 -0.3734
  134SAPE   H2S14457   0.265   3.608  10.280 -1.0192 -2.0204 -1.5104
  134SAPE    C314458   0.614   3.449  10.598 -0.5458 -0.0612 -0.0765
  134SAPE    HX14459   0.533   3.426  10.669 -1.7429  3.3910 -0.2423
  134SAPE    HY14460   0.713   3.456  10.648 -2.0640  2.4470  2.7297
  134SAPE   O3114461   0.628   3.341  10.505  0.0020  0.1973 -0.4665
  134SAPE   C3114462   0.735   3.341  10.428 -0.0642 -0.1224  0.3000
  134SAPE   O3214463   0.824   3.426  10.427 -0.3077  0.4737 -0.1145
  134SAPE   C3214464   0.729   3.214  10.347  0.0919 -0.0633 -0.5125
  134SAPE   H2X14465   0.675   3.127  10.391  1.8039 -0.6389  0.4916
  134SAPE   H2Y14466   0.835   3.191  10.323  0.2081  0.3570 -0.4150
  134SAPE   C2314467   0.333   3.725  10.110  0.3813  0.8287  0.2517
  134SAPE   H3R14468   0.421   3.762  10.054  1.7450 -0.9614  1.1747
  134SAPE   H3S14469   0.285   3.820  10.142 -0.1593  0.7586 -0.3507
  134SAPE   C2414470   0.234   3.677  10.001  0.0054 -0.4256 -0.0585
  134SAPE   H4R14471   0.225   3.752   9.919  1.5906  1.5186  1.4910
  134SAPE   H4S14472   0.138   3.660  10.054  0.4896 -0.0893  0.9442
  134SAPE   C2514473   0.270   3.541   9.950  0.2407 -0.0852  0.4627
  134SAPE   H5R14474   0.241   3.467  10.025  0.4499 -0.8249 -0.1828
  134SAPE   C2614475   0.328   3.510   9.834 -0.3743 -0.1762  0.2400
  134SAPE   H6R14476   0.348   3.402   9.824 -0.2946 -0.2389  1.0191
  134SAPE   C2714477   0.353   3.615   9.732 -0.3296 -0.6918 -0.4941
  134SAPE   H7R14478   0.457   3.599   9.697 -0.7656 -2.7594 -0.8721
  134SAPE   H7S14479   0.366   3.716   9.777  1.6279 -0.2819 -1.9161
  134SAPE   C2814480   0.247   3.616   9.623  0.3479  0.2364  0.0734
  134SAPE   H8R14481   0.147   3.587   9.660  0.8470 -1.7054 -0.0066
  134SAPE   C2914482   0.270   3.660   9.499  0.2012 -0.0017  0.9030
  134SAPE   H9R14483   0.181   3.666   9.434 -0.5661 -0.2746  1.9047
  134SAPE  C21014484   0.396   3.716   9.443 -0.2415 -0.2588  0.0364
  134SAPE  H10R14485   0.463   3.635   9.407  0.1761  1.0892 -2.2844
  134SAPE  H10S14486   0.452   3.762   9.527  1.7081 -2.2818 -0.1101
  134SAPE  C21114487   0.399   3.805   9.323 -0.0203  0.8013 -0.0255
  134SAPE  H11R14488   0.391   3.913   9.341 -0.1874  0.3251  3.0949
  134SAPE  C21214489   0.399   3.761   9.198  0.6814 -0.0574  0.3101
  134SAPE  H12R14490   0.375   3.835   9.120 -0.3550 -1.3540 -0.6129
  134SAPE  C21314491   0.390   3.622   9.148 -0.2393  1.0537  0.1756
  134SAPE  H13R14492   0.299   3.612   9.084  0.8270  0.4225 -1.2638
  134SAPE  H13S14493   0.383   3.557   9.238  0.1608 -0.7620 -1.0986
  134SAPE  C21414494   0.511   3.577   9.071  0.5771  0.2042  0.3645
  134SAPE  H14R14495   0.593   3.547   9.137  0.9599 -0.6276 -0.4895
  134SAPE  C21514496   0.535   3.549   8.944  0.9655  0.5505 -0.6935
  134SAPE  H15R14497   0.637   3.516   8.919  1.4108  0.2436  1.4043
  134SAPE  C21614498   0.441   3.567   8.830  0.2780  0.2375  0.2670
  134SAPE  H16R14499   0.488   3.524   8.739 -0.2303 -0.5266  0.3636
  134SAPE  H16S14500   0.427   3.676   8.810 -1.6342  0.4278  2.4412
  134SAPE  C21714501   0.302   3.507   8.832  0.5631  0.2994 -0.4667
  134SAPE  H17R14502   0.232   3.562   8.899 -1.7535  0.5177 -2.9599
  134SAPE  H17S14503   0.316   3.408   8.881  1.1279  0.7553  0.3064
  134SAPE  C21814504   0.239   3.477   8.691 -0.4157 -0.2202 -0.2208
  134SAPE  H18R14505   0.317   3.420   8.637 -0.8690 -1.0936  0.0353
  134SAPE  H18S14506   0.229   3.565   8.623  2.3032 -0.7592 -1.3861
  134SAPE  C21914507   0.105   3.410   8.689  0.3329  0.1360  0.1552
  134SAPE  H19R14508   0.110   3.307   8.732  0.6460  0.5444  1.0872
  134SAPE  H19S14509   0.071   3.409   8.583  0.0505 -0.3549  0.2476
  134SAPE  C22014510  -0.009   3.493   8.750 -0.4299  0.4129  0.4237
  134SAPE  H20R14511  -0.017   3.586   8.690  1.0602 -0.2237 -0.7746
  134SAPE  H20S14512   0.009   3.515   8.858 -2.1556 -1.6463  1.1732
  134SAPE  H20T14513  -0.102   3.433   8.742 -0.7265  0.9874 -0.5654
  134SAPE   C3314514   0.649   3.248  10.222 -0.2208  0.3833 -0.1389
  134SAPE   H3X14515   0.546   3.281  10.248  0.1335  2.0292 -0.7967
  134SAPE   H3Y14516   0.632   3.150  10.173  3.0616 -0.0374 -0.5301
  134SAPE   C3414517   0.706   3.355  10.120 -0.9489 -0.1163  0.0194
  134SAPE   H4X14518   0.810   3.333  10.089 -1.5687 -0.0497 -2.2155
  134SAPE   H4Y14519   0.716   3.450  10.177 -1.4778 -0.1428  0.1582
  134SAPE   C3514520   0.623   3.366   9.998 -0.8192 -0.1164 -0.3447
  134SAPE   H5X14521   0.628   3.474   9.972  0.3429  0.3904  1.8213
  134SAPE   H5Y14522   0.517   3.348  10.025 -1.1815  1.0596 -0.9668
  134SAPE   C3614523   0.676   3.287   9.880  0.3519  0.2742 -0.0801
  134SAPE   H6X14524   0.646   3.181   9.894  0.5891  0.0439 -1.2968
  134SAPE   H6Y14525   0.787   3.290   9.876  0.3784 -2.2001 -2.1894
  134SAPE   C3714526   0.625   3.336   9.746 -0.6404  0.7572  0.6721
  134SAPE   H7X14527   0.661   3.441   9.740  0.4728  0.4113  1.2181
  134SAPE   H7Y14528   0.514   3.335   9.742 -0.5926 -0.6924 -0.4410
  134SAPE   C3814529   0.670   3.245   9.638 -0.0534  0.4125 -0.2755
  134SAPE   H8X14530   0.646   3.142   9.672 -0.0528  0.6258  0.3772
  134SAPE   H8Y14531   0.775   3.259   9.604 -0.0258  0.8937 -0.0036
  134SAPE   C3914532   0.586   3.270   9.512  0.1060 -0.3680  0.2455
  134SAPE   H9X14533   0.622   3.372   9.488  2.3759 -1.4546 -1.1636
  134SAPE   H9Y14534   0.480   3.283   9.539  0.2226  0.7592  0.1876
  134SAPE  C31014535   0.602   3.172   9.408  0.2683 -0.0274  0.3517
  134SAPE  H10X14536   0.539   3.082   9.426 -0.0835  0.1082 -0.1657
  134SAPE  H10Y14537   0.707   3.138   9.399  0.3307 -0.1708  1.6095
  134SAPE  C31114538   0.561   3.225   9.268  0.5021 -0.3142  0.4477
  134SAPE  H11X14539   0.638   3.296   9.230  1.6355 -2.7458 -1.9669
  134SAPE  H11Y14540   0.474   3.292   9.283  0.2004 -0.8739  1.2552
  134SAPE  C31214541   0.544   3.107   9.169  0.2933  0.8093  0.8459
  134SAPE  H12X14542   0.477   3.026   9.205  0.4275 -0.5034 -1.7206
  134SAPE  H12Y14543   0.647   3.065   9.163  0.0616  0.5409 -2.2517
  134SAPE  C31314544   0.497   3.152   9.028 -0.2636 -0.4089 -1.2886
  134SAPE  H13X14545   0.561   3.238   8.999 -1.0764  0.9801  0.9155
  134SAPE  H13Y14546   0.390   3.182   9.034 -0.2282 -0.2541 -1.4433
  134SAPE  C31414547   0.519   3.040   8.922 -0.2507 -0.5132 -0.4526
  134SAPE  H14X14548   0.457   2.953   8.952  0.3043 -0.9175 -0.4736
  134SAPE  H14Y14549   0.626   3.010   8.925  0.7513  2.8662  0.6750
  134SAPE  C31514550   0.475   3.081   8.786 -0.3161  0.2130  1.0979
  134SAPE  H15X14551   0.515   3.178   8.749 -1.1932  0.4591  0.7779
  134SAPE  H15Y14552   0.372   3.119   8.803 -2.1720 -3.8854 -0.2129
  134SAPE  C31614553   0.482   2.972   8.672 -0.7341 -0.0955  0.0992
  134SAPE  H16X14554   0.398   2.901   8.681 -0.6535 -0.5241 -2.1055
  134SAPE  H16Y14555   0.577   2.914   8.667  0.9208  2.5204 -0.0770
  134SAPE  C31714556   0.473   3.047   8.535 -0.4437  0.3987 -0.1584
  134SAPE  H17X14557   0.510   2.993   8.446  2.3291 -1.0178  1.7961
  134SAPE  H17Y14558   0.543   3.132   8.551  0.6571 -0.3349 -1.0058
  134SAPE  C31814559   0.333   3.113   8.512 -0.1871 -0.0688 -0.1344
  134SAPE  H18X14560   0.265   3.040   8.463  2.7521 -1.2184 -2.6739
  134SAPE  H18Y14561   0.357   3.206   8.456  1.0084  0.4677  1.2460
  134SAPE  H18Z14562   0.289   3.137   8.611  1.2461 -3.2731  1.3709
  135SAPE     N14563   6.602   1.864  10.625  0.5242 -0.2767  0.8517
  135SAPE   HN114564   6.656   1.952  10.636  0.8081 -0.4463  0.7954
  135SAPE   HN214565   6.548   1.862  10.714  1.1718 -0.2164  1.2494
  135SAPE   HN314566   6.651   1.772  10.623  0.5287 -0.2401 -0.5572
  135SAPE   C1214567   6.501   1.852  10.509 -0.2004 -0.4957  0.5027
  135SAPE  H12A14568   6.538   1.773  10.439 -1.9245  0.2932 -1.3455
  135SAPE  H12B14569   6.501   1.946  10.451  0.8253 -0.0404  1.2275
  135SAPE   C1114570   6.355   1.829  10.567 -0.3642  0.4750  0.7301
  135SAPE  H11A14571   6.279   1.826  10.486  0.0135 -3.5324  0.3942
  135SAPE  H11B14572   6.319   1.901  10.643  1.7085  0.5817  1.6469
  135SAPE     P14573   6.264   1.580  10.620 -0.3295  0.0552  0.1313
  135SAPE   O1314574   6.348   1.460  10.624 -0.1829 -0.2190  0.3793
  135SAPE   O1414575   6.163   1.585  10.728 -0.8750  0.0086 -0.3963
  135SAPE   O1214576   6.361   1.710  10.639 -0.2554 -0.2848 -0.3653
  135SAPE   O1114577   6.204   1.594  10.478  0.4216  0.0962  0.0916
  135SAPE    C114578   6.079   1.529  10.460 -0.2309 -0.9784 -0.1085
  135SAPE    HA14579   6.079   1.424  10.497 -2.5157  0.0081  2.8840
  135SAPE    HB14580   5.989   1.587  10.489  0.0488 -1.4642  1.7597
  135SAPE    C214581   6.044   1.511  10.311  0.0628  0.2091 -0.0823
  135SAPE    HS14582   5.955   1.445  10.313  0.7723 -0.7258  1.6722
  135SAPE   O2114583   6.160   1.450  10.247 -0.4350 -0.3082  0.2604
  135SAPE   C2114584   6.170   1.319  10.266  0.3119  0.2437  0.1407
  135SAPE   O2214585   6.096   1.245  10.328 -0.3795  0.0991 -0.2745
  135SAPE   C2214586   6.289   1.283  10.182  0.2646  0.3914  0.3375
  135SAPE   H2R14587   6.276   1.314  10.076  1.1752 -1.7564 -0.4226
  135SAPE   H2S14588   6.371   1.338  10.233  1.7273 -2.4633  1.1442
  135SAPE    C314589   5.980   1.635  10.242  0.0200  0.5377  0.4358
  135SAPE    HX14590   6.062   1.709  10.258  0.0864  0.9777 -1.7716
  135SAPE    HY14591   5.889   1.680  10.288 -1.9335 -1.7130 -1.1361
  135SAPE   O3114592   5.960   1.605  10.109 -0.3228  0.1631 -0.4785
  135SAPE   C3114593   5.841   1.572  10.075 -0.1548 -0.0479 -0.2873
  135SAPE   O3214594   5.751   1.554  10.156 -0.2802  0.4005  0.4839
  135SAPE   C3214595   5.833   1.520   9.941 -0.0327 -0.0803 -0.1652
  135SAPE   H2X14596   5.769   1.430   9.937  1.8594 -1.4659 -0.1132
  135SAPE   H2Y14597   5.938   1.502   9.909  0.8305  0.5196  2.1960
  135SAPE   C2314598   6.325   1.135  10.199  0.6349 -0.2136  0.3487
  135SAPE   H3R14599   6.286   1.096  10.295  1.3976 -1.9722 -0.0313
  135SAPE   H3S14600   6.436   1.127  10.201  0.6910  0.0618 -1.0688
  135SAPE   C2414601   6.283   1.047  10.082 -0.6095  0.2591  1.0658
  135SAPE   H4R14602   6.313   0.943  10.104  2.5606  0.6738 -0.8860
  135SAPE   H4S14603   6.339   1.075   9.989 -3.4852  0.8736 -0.5405
  135SAPE   C2514604   6.136   1.039  10.060  0.4530  0.4145 -0.1822
  135SAPE   H5R14605   6.076   1.012  10.147  0.3328  0.4852 -0.2435
  135SAPE   C2614606   6.073   1.048   9.941  0.1136  0.5804 -0.3697
  135SAPE   H6R14607   5.964   1.054   9.941  0.1565  1.4659  0.7763
  135SAPE   C2714608   6.146   1.067   9.810 -0.3105 -0.1352  0.6386
  135SAPE   H7R14609   6.238   1.126   9.830  0.2289 -0.8381  0.2545
  135SAPE   H7S14610   6.079   1.131   9.750  0.8126  0.1928 -0.2766
  135SAPE   C2814611   6.157   0.924   9.752 -0.3749  0.1366  0.2550
  135SAPE   H8R14612   6.169   0.842   9.825 -1.6813 -0.0662  0.2415
  135SAPE   C2914613   6.130   0.890   9.626 -0.6309  0.4055 -0.8976
  135SAPE   H9R14614   6.133   0.782   9.605  0.1138  0.3389 -0.4670
  135SAPE  C21014615   6.104   0.978   9.507  0.4309 -0.1655  0.0696
  135SAPE  H10R14616   6.049   1.069   9.538 -1.0304 -1.0928  0.2760
  135SAPE  H10S14617   6.018   0.930   9.454 -0.9255  1.1769  1.0127
  135SAPE  C21114618   6.219   1.008   9.414 -0.7748 -0.2060 -0.6519
  135SAPE  H11R14619   6.315   1.027   9.465 -1.0705  0.2327 -0.2600
  135SAPE  C21214620   6.209   1.006   9.278 -0.2556  0.1658  0.1884
  135SAPE  H12R14621   6.302   1.023   9.221 -1.9184 -0.8419 -2.9279
  135SAPE  C21314622   6.087   0.985   9.194  0.4785 -0.7107  0.0057
  135SAPE  H13R14623   6.004   1.037   9.247  0.0225  0.3257 -1.6830
  135SAPE  H13S14624   6.058   0.878   9.199  0.3975 -0.7820 -1.8210
  135SAPE  C21414625   6.111   1.035   9.054 -0.0105  0.2026  0.5882
  135SAPE  H14R14626   6.110   1.144   9.047  0.7184  0.1018 -1.4404
  135SAPE  C21514627   6.139   0.964   8.940  1.0760 -0.4720  0.1616
  135SAPE  H15R14628   6.155   1.014   8.843 -0.9180  0.6003  0.3615
  135SAPE  C21614629   6.154   0.817   8.938 -0.9449 -0.4597  0.0944
  135SAPE  H16R14630   6.076   0.784   9.011 -0.8882  0.6663  0.6729
  135SAPE  H16S14631   6.255   0.783   8.971  0.0129  0.4919 -1.8154
  135SAPE  C21714632   6.129   0.755   8.796 -0.0824 -0.6787 -0.3370
  135SAPE  H17R14633   6.028   0.794   8.770  0.0594  1.2019  1.7956
  135SAPE  H17S14634   6.129   0.645   8.810 -2.2503 -0.6947 -0.3470
  135SAPE  C21814635   6.234   0.781   8.693  1.1302 -0.4338  0.6536
  135SAPE  H18R14636   6.316   0.711   8.720 -0.6244 -2.1904  1.5052
  135SAPE  H18S14637   6.274   0.885   8.702 -0.7921  0.3609  0.1701
  135SAPE  C21914638   6.190   0.746   8.549 -0.0536 -0.3251 -0.2640
  135SAPE  H19R14639   6.096   0.799   8.524 -1.1027 -2.5759 -1.1826
  135SAPE  H19S14640   6.165   0.638   8.555  1.1612 -0.5635  0.8637
  135SAPE  C22014641   6.291   0.764   8.434 -0.1875  0.4590  0.1585
  135SAPE  H20R14642   6.308   0.871   8.410 -1.3990  0.7086  0.3642
  135SAPE  H20S14643   6.246   0.714   8.345 -0.2394 -1.7075  1.3710
  135SAPE  H20T14644   6.387   0.710   8.450  0.1778 -0.0587 -3.3911
  135SAPE   C3314645   5.765   1.617   9.837  0.3250 -0.4064 -0.4926
  135SAPE   H3X14646   5.782   1.724   9.861  0.9133 -0.7719  0.7579
  135SAPE   H3Y14647   5.657   1.593   9.851  0.3790  0.0527  0.7793
  135SAPE   C3414648   5.812   1.587   9.689  0.2028  0.1488 -0.7510
  135SAPE   H4X14649   5.790   1.478   9.682  4.2428 -1.0403  2.8754
  135SAPE   H4Y14650   5.922   1.601   9.682  0.5734  0.1135  3.4293
  135SAPE   C3514651   5.734   1.666   9.582  0.0213  0.1839  0.0829
  135SAPE   H5X14652   5.784   1.764   9.568 -1.6290  0.6748 -2.8317
  135SAPE   H5Y14653   5.629   1.672   9.618  0.4953 -0.2866  1.5746
  135SAPE   C3614654   5.715   1.589   9.448  0.4597 -0.4891  0.2517
  135SAPE   H6X14655   5.641   1.507   9.457 -0.4199  0.5778  3.4022
  135SAPE   H6Y14656   5.811   1.545   9.414 -0.4511 -1.0425 -1.6625
  135SAPE   C3714657   5.668   1.686   9.334 -0.2955  0.6515 -0.9297
  135SAPE   H7X14658   5.762   1.740   9.310  1.1592 -0.4158  2.0320
  135SAPE   H7Y14659   5.596   1.757   9.379  0.1436  0.6193 -0.1662
  135SAPE   C3814660   5.617   1.613   9.207 -0.4380  0.3531 -0.1415
  135SAPE   H8X14661   5.565   1.684   9.139  0.2634  0.9209 -0.0895
  135SAPE   H8Y14662   5.538   1.543   9.239  1.3256 -1.4954  0.2650
  135SAPE   C3914663   5.722   1.528   9.132 -0.2762  0.7527  0.2892
  135SAPE   H9X14664   5.741   1.443   9.201  1.7335 -1.3010 -2.6407
  135SAPE   H9Y14665   5.808   1.598   9.122  1.1523 -0.7798  1.5744
  135SAPE  C31014666   5.682   1.475   8.995  0.7486 -0.6551  0.1112
  135SAPE  H10X14667   5.624   1.546   8.932 -2.1441 -2.3302  0.7674
  135SAPE  H10Y14668   5.613   1.392   9.021 -0.1949  0.3326  0.8348
  135SAPE  C31114669   5.806   1.431   8.910  0.2647 -1.1481 -0.4641
  135SAPE  H11X14670   5.881   1.390   8.982  0.7951 -0.7446 -0.7794
  135SAPE  H11Y14671   5.864   1.518   8.870  1.2488 -1.8690 -0.6250
  135SAPE  C31214672   5.782   1.331   8.802  0.4730 -0.0511 -0.2433
  135SAPE  H12X14673   5.713   1.366   8.722 -0.1351 -3.4157 -1.2558
  135SAPE  H12Y14674   5.756   1.228   8.831 -0.6016  0.2808 -0.0109
  135SAPE  C31314675   5.922   1.311   8.742 -0.2149  0.6499  0.5850
  135SAPE  H13X14676   5.993   1.322   8.826 -0.9789  1.8518  1.0841
  135SAPE  H13Y14677   5.940   1.387   8.663 -0.0093 -1.8776 -1.8735
  135SAPE  C31414678   5.938   1.173   8.665  0.7250 -0.2552 -0.5503
  135SAPE  H14X14679   5.847   1.155   8.605 -0.0487 -1.3687  0.9189
  135SAPE  H14Y14680   5.927   1.095   8.743 -2.3888  0.0933 -0.5987
  135SAPE  C31514681   6.068   1.162   8.582 -0.4052 -0.4629  0.2492
  135SAPE  H15X14682   6.072   1.061   8.536 -0.4460 -1.0513  1.5234
  135SAPE  H15Y14683   6.154   1.170   8.651 -0.2148  0.5300 -0.0937
  135SAPE  C31614684   6.112   1.283   8.487 -0.3462  0.8537  0.0799
  135SAPE  H16X14685   6.095   1.377   8.544  2.1884  1.7532 -0.5844
  135SAPE  H16Y14686   6.043   1.281   8.400 -0.9207  0.4023  0.5435
  135SAPE  C31714687   6.259   1.299   8.448 -0.3461  0.0464  0.6501
  135SAPE  H17X14688   6.292   1.209   8.392  0.3144  0.6639  0.0354
  135SAPE  H17Y14689   6.305   1.317   8.547  0.1959  0.9634  0.2420
  135SAPE  C31814690   6.286   1.416   8.358  0.0233 -0.3724 -0.0769
  135SAPE  H18X14691   6.391   1.407   8.323  0.1883  1.9509 -0.3157
  135SAPE  H18Y14692   6.273   1.513   8.411 -0.1754  1.4170 -3.2857
  135SAPE  H18Z14693   6.224   1.413   8.266  1.1018 -0.9766 -0.7892
  136SAPE     N14694   2.140   2.093  11.127  0.2784 -0.2103 -0.2927
  136SAPE   HN114695   2.049   2.094  11.177  0.2876  0.6741 -0.2929
  136SAPE   HN214696   2.198   2.173  11.159 -1.2326  0.5936  0.4523
  136SAPE   HN314697   2.117   2.098  11.026 -2.4419 -1.1977  0.2305
  136SAPE   C1214698   2.219   1.963  11.139  0.0024  0.0052 -0.1335
  136SAPE  H12A14699   2.256   1.962  11.244 -0.5518  1.1358  0.0719
  136SAPE  H12B14700   2.300   1.974  11.064  1.5918 -2.9606  1.0502
  136SAPE   C1114701   2.134   1.842  11.110  0.4158 -0.5159 -0.5729
  136SAPE  H11A14702   2.055   1.821  11.185 -0.1867  1.2522 -0.6947
  136SAPE  H11B14703   2.195   1.749  11.116 -0.5470 -1.0218  2.1732
  136SAPE     P14704   1.993   1.745  10.912 -0.3853  0.0737  0.0111
  136SAPE   O1314705   1.946   1.654  11.013 -0.1764 -0.0471 -0.6507
  136SAPE   O1414706   1.887   1.820  10.843  0.1410  0.3888  0.2046
  136SAPE   O1214707   2.086   1.855  10.979  0.1565  0.0618 -0.2365
  136SAPE   O1114708   2.086   1.676  10.810 -0.7085 -0.0421  0.2261
  136SAPE    C114709   2.184   1.743  10.728 -0.2373 -1.0865 -0.5062
  136SAPE    HA14710   2.176   1.706  10.623 -0.3865 -0.6303 -0.6540
  136SAPE    HB14711   2.153   1.849  10.726  2.4983 -0.2927 -2.0311
  136SAPE    C214712   2.328   1.732  10.781  0.5210  0.6441  0.0090
  136SAPE    HS14713   2.331   1.761  10.888 -2.7441  1.2859 -0.0165
  136SAPE   O2114714   2.410   1.818  10.700 -0.6259 -0.3856  0.1843
  136SAPE   C2114715   2.524   1.854  10.754 -0.4546  0.3044  0.6997
  136SAPE   O2214716   2.555   1.834  10.871  0.4801  0.7686  0.3613
  136SAPE   C2214717   2.603   1.934  10.649  0.2590  0.2905  0.2773
  136SAPE   H2R14718   2.635   1.865  10.568 -0.1474 -0.2190  0.5542
  136SAPE   H2S14719   2.542   2.003  10.587  1.6919  1.4885  0.1614
  136SAPE    C314720   2.389   1.589  10.771  0.4145 -0.1271  0.4749
  136SAPE    HX14721   2.347   1.532  10.856 -1.2348  1.8165  1.0183
  136SAPE    HY14722   2.499   1.584  10.774  0.5779  0.1536 -2.7077
  136SAPE   O3114723   2.359   1.530  10.643  0.2931  0.0771 -0.4403
  136SAPE   C3114724   2.440   1.559  10.536 -0.2627  0.1234  0.3693
  136SAPE   O3214725   2.546   1.620  10.547 -0.5493 -0.4068  0.5278
  136SAPE   C3214726   2.368   1.515  10.415  0.7676  0.1024 -0.2217
  136SAPE   H2X14727   2.276   1.578  10.411  0.9421  0.6252  2.9430
  136SAPE   H2Y14728   2.345   1.406  10.420  0.3001  0.2493  1.0838
  136SAPE   C2314729   2.723   2.005  10.714  0.1289 -0.7918 -0.4778
  136SAPE   H3R14730   2.775   1.925  10.771 -0.6212 -0.8086  0.1912
  136SAPE   H3S14731   2.673   2.066  10.792 -0.6526 -1.5459 -0.3755
  136SAPE   C2414732   2.824   2.091  10.633 -0.0151  0.1960  0.7113
  136SAPE   H4R14733   2.851   2.024  10.548  1.0700 -0.5113  1.6000
  136SAPE   H4S14734   2.915   2.125  10.686  0.3220 -0.5548  0.6185
  136SAPE   C2514735   2.744   2.212  10.587  0.2988  0.0107  0.5992
  136SAPE   H5R14736   2.697   2.265  10.671 -0.3369  1.1827 -0.4792
  136SAPE   C2614737   2.713   2.251  10.463 -0.2797  0.5454  0.0574
  136SAPE   H6R14738   2.661   2.346  10.446  0.3112  0.7829 -0.4480
  136SAPE   C2714739   2.750   2.167  10.338  0.3175  0.1190 -0.5525
  136SAPE   H7R14740   2.841   2.103  10.340 -0.5852 -1.1458  0.5442
  136SAPE   H7S14741   2.776   2.241  10.259  0.2980  0.2921 -0.3991
  136SAPE   C2814742   2.635   2.074  10.300  0.1007  0.6254 -0.3284
  136SAPE   H8R14743   2.608   2.004  10.380  3.0868 -0.2258 -0.0302
  136SAPE   C2914744   2.601   2.043  10.173 -0.2887  0.1898 -0.0454
  136SAPE   H9R14745   2.522   1.967  10.163  3.4953 -3.9770  0.1299
  136SAPE  C21014746   2.650   2.108  10.054 -0.3774  0.0092  0.1664
  136SAPE  H10R14747   2.754   2.071  10.047 -1.4913 -3.2049 -0.3414
  136SAPE  H10S14748   2.655   2.219  10.059 -2.7828  0.1572 -0.1585
  136SAPE  C21114749   2.568   2.065   9.933 -0.1620  0.4376 -0.1278
  136SAPE  H11R14750   2.466   2.105   9.929 -1.9227 -3.4479  2.4516
  136SAPE  C21214751   2.600   1.984   9.823 -0.2993  0.0574 -0.4433
  136SAPE  H12R14752   2.532   1.959   9.741 -1.6923 -0.6898  0.9228
  136SAPE  C21314753   2.743   1.928   9.807  0.2443  0.1259  0.1754
  136SAPE  H13R14754   2.794   1.931   9.906 -0.5068  0.2058  0.5604
  136SAPE  H13S14755   2.799   2.007   9.752  0.1817 -2.4036 -3.6797
  136SAPE  C21414756   2.763   1.811   9.719  0.9644 -0.1580 -0.3808
  136SAPE  H14R14757   2.819   1.724   9.758  1.4832  1.0274  1.6279
  136SAPE  C21514758   2.743   1.820   9.583 -0.3127  0.1199 -0.3307
  136SAPE  H15R14759   2.752   1.722   9.533  1.4114  0.1905 -0.1972
  136SAPE  C21614760   2.684   1.940   9.506  0.3719 -0.6973 -0.1948
  136SAPE  H16R14761   2.769   2.002   9.469  0.9973 -0.5451  1.4471
  136SAPE  H16S14762   2.617   2.003   9.567 -1.8188 -2.4336 -0.7243
  136SAPE  C21714763   2.614   1.881   9.385 -0.6869 -0.0687 -0.2919
  136SAPE  H17R14764   2.530   1.811   9.402 -0.6000  0.0620  0.7201
  136SAPE  H17S14765   2.684   1.825   9.319  0.0423 -1.2301  1.4353
  136SAPE  C21814766   2.560   1.993   9.300  0.0615 -0.2847 -0.8597
  136SAPE  H18R14767   2.645   2.057   9.267  2.3503 -1.8043  1.9310
  136SAPE  H18S14768   2.485   2.056   9.352  2.9722  1.4072  1.4520
  136SAPE  C21914769   2.485   1.948   9.167  0.1419  0.0578 -0.1515
  136SAPE  H19R14770   2.404   2.019   9.138  0.1849  0.5236  0.8524
  136SAPE  H19S14771   2.437   1.849   9.184  0.2122 -0.0214 -0.4193
  136SAPE  C22014772   2.578   1.934   9.046 -0.2211 -0.9787  0.5998
  136SAPE  H20R14773   2.602   2.040   9.020 -2.4754 -1.3033 -3.1410
  136SAPE  H20S14774   2.531   1.877   8.963  0.1288 -2.3116  1.3125
  136SAPE  H20T14775   2.664   1.875   9.085 -1.2374 -2.1331  1.1205
  136SAPE   C3314776   2.450   1.557  10.287 -0.6411  0.1684 -0.0555
  136SAPE   H3X14777   2.546   1.503  10.306 -1.3175 -0.8819  0.4806
  136SAPE   H3Y14778   2.462   1.667  10.282 -0.6233  0.0886 -1.9715
  136SAPE   C3414779   2.389   1.507  10.154  0.2690 -0.7701  0.0098
  136SAPE   H4X14780   2.292   1.557  10.136  0.3979 -0.7528 -0.6618
  136SAPE   H4Y14781   2.362   1.400  10.162  0.1430 -0.6884  0.7212
  136SAPE   C3514782   2.483   1.520  10.031  0.2633  0.3604 -0.0755
  136SAPE   H5X14783   2.571   1.459  10.061  0.8487  0.6174 -1.2540
  136SAPE   H5Y14784   2.530   1.618  10.012  0.5258  0.5138  1.3045
  136SAPE   C3614785   2.425   1.465   9.908 -0.5278 -0.1703 -0.0856
  136SAPE   H6X14786   2.333   1.519   9.876 -0.4668  1.1046  1.7834
  136SAPE   H6Y14787   2.401   1.356   9.914 -0.8255 -0.0723  0.6435
  136SAPE   C3714788   2.516   1.489   9.785 -0.1371  0.2470 -0.9897
  136SAPE   H7X14789   2.617   1.442   9.793  0.2231  0.9101 -1.5100
  136SAPE   H7Y14790   2.536   1.598   9.786 -0.7712  0.3791 -2.2211
  136SAPE   C3814791   2.454   1.440   9.655 -0.0517  0.4587 -0.3961
  136SAPE   H8X14792   2.349   1.472   9.637 -0.2875 -1.1801 -2.0437
  136SAPE   H8Y14793   2.469   1.330   9.658 -1.8292  0.2381  1.1484
  136SAPE   C3914794   2.535   1.502   9.533 -0.1651  0.4231  0.3591
  136SAPE   H9X14795   2.644   1.486   9.551 -0.6076 -0.5867  2.1645
  136SAPE   H9Y14796   2.527   1.613   9.529  1.1512  0.5115 -0.2918
  136SAPE  C31014797   2.487   1.445   9.395  0.6477  0.4500 -0.3821
  136SAPE  H10X14798   2.389   1.484   9.361 -0.4710 -2.0139 -0.0560
  136SAPE  H10Y14799   2.474   1.335   9.396  1.7095  0.3080  1.8933
  136SAPE  C31114800   2.590   1.485   9.287  0.6022 -0.0319  0.0475
  136SAPE  H11X14801   2.693   1.478   9.326  0.4988 -0.0260  0.3252
  136SAPE  H11Y14802   2.566   1.589   9.255 -1.7866  0.0635  1.9616
  136SAPE  C31214803   2.572   1.404   9.152  0.8378 -0.2141 -0.5093
  136SAPE  H12X14804   2.601   1.297   9.164  0.5679 -0.3338 -0.9250
  136SAPE  H12Y14805   2.640   1.458   9.083  0.1883 -0.1340 -1.0841
  136SAPE  C31314806   2.430   1.415   9.085  0.1751 -0.1293  0.3493
  136SAPE  H13X14807   2.408   1.524   9.076  0.8918 -0.0054  0.0309
  136SAPE  H13Y14808   2.353   1.379   9.157  1.8076  2.5514  3.5909
  136SAPE  C31414809   2.414   1.327   8.961 -0.5100 -0.5572  0.7877
  136SAPE  H14X14810   2.497   1.346   8.890 -0.6157 -3.5759 -0.2030
  136SAPE  H14Y14811   2.324   1.346   8.900 -0.9441 -2.7046  0.7084
  136SAPE  C31514812   2.395   1.179   8.984 -0.7548 -0.5149 -0.1285
  136SAPE  H15X14813   2.318   1.171   9.063  1.2384 -1.2506  1.7946
  136SAPE  H15Y14814   2.490   1.137   9.025 -1.0351 -1.3271 -0.3100
  136SAPE  C31614815   2.350   1.107   8.854  0.0011 -1.2170 -0.2615
  136SAPE  H16X14816   2.436   1.119   8.784 -1.0037 -0.2251 -1.3513
  136SAPE  H16Y14817   2.263   1.160   8.809  2.4034  2.3241 -0.9209
  136SAPE  C31714818   2.329   0.960   8.882  0.0511  0.0618 -0.8421
  136SAPE  H17X14819   2.242   0.945   8.949 -0.7725  0.8769 -1.7162
  136SAPE  H17Y14820   2.413   0.933   8.950 -0.3673 -0.6983 -0.6200
  136SAPE  C31814821   2.311   0.863   8.771  0.5718 -0.1673  0.0401
  136SAPE  H18X14822   2.231   0.787   8.783 -0.0659  0.6941  1.3591
  136SAPE  H18Y14823   2.399   0.795   8.775  2.1627  1.8671  0.3156
  136SAPE  H18Z14824   2.293   0.913   8.673  0.6048 -1.4648 -0.6480
  137SAPE     N14825   0.338   4.893  11.110 -0.1288 -0.0924 -0.5142
  137SAPE   HN114826   0.405   4.844  11.172  2.2940 -0.5070 -3.3083
  137SAPE   HN214827   0.329   4.845  11.018  1.2102 -0.6663 -0.3432
  137SAPE   HN314828   0.375   4.989  11.097  0.2953  0.0367  1.4729
  137SAPE   C1214829   0.197   4.881  11.159  0.4199  0.1595 -0.6608
  137SAPE  H12A14830   0.139   4.945  11.089 -2.6814 -0.5122  1.2268
  137SAPE  H12B14831   0.179   4.922  11.260 -0.4272  0.5349 -0.9567
  137SAPE   C1114832   0.139   4.740  11.122 -0.6507  0.5387  0.5481
  137SAPE  H11A14833   0.030   4.740  11.144 -1.0550  1.6279 -1.3533
  137SAPE  H11B14834   0.186   4.667  11.192 -1.1292 -2.1289 -1.8180
  137SAPE     P14835   0.123   4.560  10.939  0.3432 -0.0873  0.1871
  137SAPE   O1314836   0.244   4.477  10.937  0.0699 -0.2612 -0.4798
  137SAPE   O1414837   0.017   4.509  11.029  0.4131  0.2594 -0.0430
  137SAPE   O1214838   0.163   4.708  10.986  0.6981 -0.1332  0.8379
  137SAPE   O1114839   0.056   4.579  10.798 -0.0831 -0.2557  0.1958
  137SAPE    C114840   0.064   4.697  10.720  0.3196 -0.1961 -0.1081
  137SAPE    HA14841  -0.034   4.749  10.726  0.9445  0.8994  0.8171
  137SAPE    HB14842   0.143   4.764  10.760  0.8626 -2.3319  2.5911
  137SAPE    C214843   0.119   4.676  10.570 -0.0841 -0.3747 -0.2578
  137SAPE    HS14844   0.154   4.776  10.536 -1.7850  0.8646  1.5755
  137SAPE   O2114845   0.032   4.615  10.478  0.0043  0.2811 -0.5524
  137SAPE   C2114846  -0.075   4.686  10.450  0.4089 -0.5290 -0.3120
  137SAPE   O2214847  -0.104   4.791  10.505  0.1006 -0.4333  0.1089
  137SAPE   C2214848  -0.151   4.631  10.330  0.2198  0.7800 -0.3407
  137SAPE   H2R14849  -0.132   4.522  10.322 -1.0776  0.3495  1.8657
  137SAPE   H2S14850  -0.257   4.642  10.362  0.7015  1.2471  1.1535
  137SAPE    C314851   0.255   4.596  10.567 -0.6366 -0.3182  0.1703
  137SAPE    HX14852   0.243   4.486  10.577 -0.1601 -0.4241 -0.4077
  137SAPE    HY14853   0.311   4.631  10.657  1.6453  0.0539 -1.3344
  137SAPE   O3114854   0.341   4.638  10.456 -0.0645  0.0011  0.3982
  137SAPE   C3114855   0.316   4.578  10.338 -0.4289  0.0734 -0.0162
  137SAPE   O3214856   0.242   4.480  10.325  0.3101 -0.6834 -0.0403
  137SAPE   C3214857   0.392   4.650  10.230 -0.2270  0.1615 -0.3227
  137SAPE   H2X14858   0.499   4.664  10.256 -0.4682  1.5138 -0.0637
  137SAPE   H2Y14859   0.344   4.749  10.215  0.4037  0.3486 -1.1083
  137SAPE   C2314860  -0.133   4.717  10.205 -1.1383 -0.8851 -0.3167
  137SAPE   H3R14861  -0.146   4.825  10.228  0.6139 -0.8170  0.3794
  137SAPE   H3S14862  -0.223   4.694  10.143 -1.0772 -1.8411 -0.0678
  137SAPE   C2414863  -0.002   4.689  10.126  0.1252 -0.5086  0.1855
  137SAPE   H4R14864   0.091   4.704  10.185 -0.9074  1.4203  1.3976
  137SAPE   H4S14865  -0.008   4.766  10.047 -2.4089 -0.1591  0.6721
  137SAPE   C2514866   0.016   4.563  10.054 -0.0893 -0.1299  0.4958
  137SAPE   H5R14867  -0.015   4.485  10.125  0.4832 -0.4832  0.3644
  137SAPE   C2614868   0.047   4.533   9.930 -0.6582 -0.7512  0.0576
  137SAPE   H6R14869   0.042   4.429   9.895  2.5219 -0.2100 -2.2296
  137SAPE   C2714870   0.086   4.637   9.830  0.1596  0.1392  0.3240
  137SAPE   H7R14871   0.165   4.587   9.770 -0.4266  0.2935 -0.5902
  137SAPE   H7S14872   0.144   4.717   9.880  2.5191 -1.0496 -0.4343
  137SAPE   C2814873  -0.028   4.702   9.747 -0.0312  0.6797 -0.2402
  137SAPE   H8R14874  -0.116   4.714   9.812 -0.9342 -2.1931 -0.8492
  137SAPE   C2914875  -0.030   4.742   9.621  0.3045  0.7265 -0.3767
  137SAPE   H9R14876  -0.125   4.783   9.584 -0.3544 -0.2558  0.1749
  137SAPE  C21014877   0.076   4.730   9.519  0.2628  0.1421 -0.3184
  137SAPE  H10R14878   0.028   4.722   9.419 -1.7130 -1.5139  0.7062
  137SAPE  H10S14879   0.144   4.643   9.534  0.4142  0.3886  0.4093
  137SAPE  C21114880   0.156   4.850   9.523  0.1858 -0.2869  0.2868
  137SAPE  H11R14881   0.187   4.882   9.624 -0.7926  2.7918 -0.3379
  137SAPE  C21214882   0.200   4.929   9.423  0.2015  0.0862 -0.0025
  137SAPE  H12R14883   0.261   5.015   9.454 -0.1998 -0.2622  1.7923
  137SAPE  C21314884   0.173   4.896   9.275 -0.1151 -0.3905 -0.1262
  137SAPE  H13R14885   0.071   4.928   9.246 -0.3473 -1.5143 -0.6086
  137SAPE  H13S14886   0.172   4.786   9.259 -0.3545 -0.1960 -1.5114
  137SAPE  C21414887   0.276   4.955   9.180  0.5478 -0.1412  0.7663
  137SAPE  H14R14888   0.376   4.912   9.196 -0.4989 -2.6587  0.7742
  137SAPE  C21514889   0.245   5.053   9.092 -0.9636 -0.2557  0.5834
  137SAPE  H15R14890   0.325   5.103   9.033 -1.3586 -1.9576 -1.4673
  137SAPE  C21614891   0.109   5.115   9.074  0.0346 -0.5910  0.5750
  137SAPE  H16R14892   0.083   5.182   9.159  2.9458 -0.3827  1.3310
  137SAPE  H16S14893   0.031   5.038   9.061 -1.0864  0.9163 -2.2175
  137SAPE  C21714894   0.102   5.217   8.963 -0.5688 -0.9560 -0.1713
  137SAPE  H17R14895   0.176   5.299   8.974 -0.8209 -0.5153 -1.7009
  137SAPE  H17S14896   0.001   5.262   8.969  0.4154  1.4373 -1.0690
  137SAPE  C21814897   0.114   5.166   8.815 -0.3645  0.4650 -0.3699
  137SAPE  H18R14898   0.039   5.086   8.798 -0.6342  0.5223  0.4968
  137SAPE  H18S14899   0.208   5.110   8.802 -0.6038  0.8394 -4.4121
  137SAPE  C21914900   0.082   5.277   8.703 -0.0122  0.1617  0.3450
  137SAPE  H19R14901   0.154   5.362   8.715 -2.6126  2.5217 -0.2836
  137SAPE  H19S14902  -0.021   5.314   8.721 -0.1354  0.6050 -1.1713
  137SAPE  C22014903   0.107   5.239   8.560  0.4657  0.7274 -0.5469
  137SAPE  H20R14904   0.030   5.163   8.534  1.4552 -0.3752 -0.2677
  137SAPE  H20S14905   0.214   5.218   8.543  0.5511  1.1459 -0.5361
  137SAPE  H20T14906   0.079   5.324   8.493 -2.8764  0.0334 -0.1199
  137SAPE   C3314907   0.396   4.587  10.093 -0.3449 -0.1372 -0.6362
  137SAPE   H3X14908   0.292   4.565  10.062 -0.7843  1.2076 -0.1635
  137SAPE   H3Y14909   0.454   4.493  10.083 -1.4394 -0.7090 -1.6872
  137SAPE   C3414910   0.439   4.692   9.978 -0.5805  0.0862 -1.1839
  137SAPE   H4X14911   0.536   4.735  10.009 -0.5236 -1.6382  1.1707
  137SAPE   H4Y14912   0.365   4.775   9.983 -1.7900 -1.0895  1.5524
  137SAPE   C3514913   0.454   4.617   9.848  0.4919 -0.6975 -0.3205
  137SAPE   H5X14914   0.362   4.560   9.824  2.1299 -4.2516  1.4107
  137SAPE   H5Y14915   0.534   4.541   9.859  1.5222  0.5084  0.7149
  137SAPE   C3614916   0.485   4.716   9.740 -0.5744  0.4338 -0.6558
  137SAPE   H6X14917   0.573   4.776   9.771 -0.2317 -0.6272  0.4773
  137SAPE   H6Y14918   0.398   4.784   9.728 -1.0249  0.4295  2.2390
  137SAPE   C3714919   0.533   4.646   9.608  0.4631 -0.8101  0.5679
  137SAPE   H7X14920   0.481   4.549   9.599 -2.2330  0.7951 -1.7048
  137SAPE   H7Y14921   0.639   4.623   9.634  0.9108 -0.1095 -0.6323
  137SAPE   C3814922   0.521   4.729   9.482  0.3070  0.0448  0.1797
  137SAPE   H8X14923   0.451   4.814   9.499 -0.7515 -0.6877 -0.4323
  137SAPE   H8Y14924   0.474   4.663   9.406 -1.3279  1.0737  0.2737
  137SAPE   C3914925   0.651   4.800   9.453  0.2518  0.0062 -0.5922
  137SAPE   H9X14926   0.730   4.721   9.452  1.5965  1.2926  0.6139
  137SAPE   H9Y14927   0.684   4.875   9.529  0.3247 -2.3293  1.7690
  137SAPE  C31014928   0.650   4.868   9.326 -0.4736 -0.2434 -0.6779
  137SAPE  H10X14929   0.719   4.955   9.328 -0.5533 -0.1444 -1.7152
  137SAPE  H10Y14930   0.547   4.910   9.315 -0.2498  0.9765  1.5418
  137SAPE  C31114931   0.689   4.776   9.205 -0.0665 -0.2162 -0.6504
  137SAPE  H11X14932   0.652   4.673   9.227  1.5206 -1.2735 -2.6983
  137SAPE  H11Y14933   0.800   4.779   9.202 -0.0677 -0.4976 -1.0909
  137SAPE  C31214934   0.637   4.820   9.067 -0.4324  0.5359  0.8378
  137SAPE  H12X14935   0.644   4.929   9.050  2.7310  0.0189 -1.8496
  137SAPE  H12Y14936   0.532   4.785   9.065 -0.6190  1.0723  1.3260
  137SAPE  C31314937   0.706   4.751   8.946  0.1780 -0.1017 -0.8640
  137SAPE  H13X14938   0.688   4.643   8.962 -2.1355  0.5035  0.9052
  137SAPE  H13Y14939   0.817   4.757   8.943  0.3289 -0.1838  2.8448
  137SAPE  C31414940   0.656   4.791   8.805 -0.2916  0.4681 -0.8721
  137SAPE  H14X14941   0.546   4.799   8.793 -0.0735  1.9123 -1.9745
  137SAPE  H14Y14942   0.701   4.720   8.732  2.3749 -0.3545  1.4469
  137SAPE  C31514943   0.698   4.928   8.748  0.5437  0.8912  0.1280
  137SAPE  H15X14944   0.691   5.003   8.830  1.3154  2.9409 -1.6511
  137SAPE  H15Y14945   0.632   4.960   8.665  0.1732 -0.9214 -0.2990
  137SAPE  C31614946   0.841   4.937   8.688 -0.6554  0.0454  0.4950
  137SAPE  H16X14947   0.851   4.851   8.618  0.1368  1.6067 -1.3544
  137SAPE  H16Y14948   0.916   4.926   8.770 -1.4355  0.7386  1.3118
  137SAPE  C31714949   0.867   5.064   8.607 -0.0065 -0.7859  0.3353
  137SAPE  H17X14950   0.798   5.066   8.521 -0.5995 -0.6056  0.8138
  137SAPE  H17Y14951   0.961   5.064   8.548 -1.1567 -1.7536 -1.5529
  137SAPE  C31814952   0.853   5.194   8.687  0.4580 -0.2859 -0.1948
  137SAPE  H18X14953   0.944   5.206   8.750  0.2272 -0.1634  0.1124
  137SAPE  H18Y14954   0.763   5.191   8.751  0.2673  3.1867 -0.1903
  137SAPE  H18Z14955   0.853   5.282   8.618  2.0254  0.2259  0.4240
  138SAPE     N14956   3.169   5.907  10.521  0.2976  0.2732  0.7351
  138SAPE   HN114957   3.087   5.953  10.477  2.2563  1.5005 -1.7387
  138SAPE   HN214958   3.252   5.944  10.469 -0.7522  0.5948 -0.7461
  138SAPE   HN314959   3.167   5.804  10.505  2.4278  0.4934 -1.2460
  138SAPE   C1214960   3.172   5.934  10.667  0.9028  0.3073  0.3161
  138SAPE  H12A14961   3.069   5.925  10.705 -0.0998 -0.2793 -2.4377
  138SAPE  H12B14962   3.223   6.030  10.692  3.4751 -0.7382 -0.6856
  138SAPE   C1114963   3.268   5.823  10.737  0.7761 -0.1125  0.4431
  138SAPE  H11A14964   3.216   5.725  10.740  0.2273  0.0749 -2.3296
  138SAPE  H11B14965   3.279   5.849  10.845 -0.9194  1.1761  0.3227
  138SAPE     P14966   3.475   5.680  10.671  0.2650  0.2659 -0.0551
  138SAPE   O1314967   3.505   5.634  10.807  0.4439 -0.2208  0.8444
  138SAPE   O1414968   3.385   5.597  10.592 -0.7267  0.9484  0.7195
  138SAPE   O1214969   3.398   5.823  10.681  0.2750 -0.0574  0.1055
  138SAPE   O1114970   3.614   5.701  10.599  0.5855  0.6303  0.1227
  138SAPE    C114971   3.661   5.826  10.554  0.0428  0.5732  0.2859
  138SAPE    HA14972   3.644   5.899  10.636 -0.5868  2.0325 -1.1213
  138SAPE    HB14973   3.771   5.824  10.545  0.1912  0.1457  1.9125
  138SAPE    C214974   3.586   5.868  10.428 -0.7162  0.2180  0.6109
  138SAPE    HS14975   3.479   5.888  10.450 -1.1752 -0.6520 -0.7311
  138SAPE   O2114976   3.593   5.774  10.317 -0.3079  0.0621 -0.0947
  138SAPE   C2114977   3.475   5.749  10.257 -0.1072  0.0608  0.3225
  138SAPE   O2214978   3.364   5.787  10.296 -0.1734 -0.2165 -0.1765
  138SAPE   C2214979   3.500   5.674  10.130 -0.8709 -0.8240 -0.0493
  138SAPE   H2R14980   3.604   5.691  10.093 -0.7592  0.3463  0.7776
  138SAPE   H2S14981   3.488   5.566  10.150  1.1094 -0.9910  0.3617
  138SAPE    C314982   3.643   6.007  10.377  0.3010 -0.6844 -0.2380
  138SAPE    HX14983   3.745   5.991  10.337 -0.0571  0.4975 -1.6674
  138SAPE    HY14984   3.662   6.071  10.466 -2.3204  4.0784 -2.9354
  138SAPE   O3114985   3.560   6.072  10.280  0.1303 -0.6120 -0.7869
  138SAPE   C3114986   3.449   6.121  10.325 -0.4951 -0.5820  0.0887
  138SAPE   O3214987   3.418   6.133  10.442 -0.4253 -0.1758  0.1938
  138SAPE   C3214988   3.344   6.135  10.208  0.4347 -0.6211  0.1987
  138SAPE   H2X14989   3.261   6.064  10.226  0.6386 -0.6410  1.0480
  138SAPE   H2Y14990   3.388   6.124  10.106  1.8588  1.5094  0.5503
  138SAPE   C2314991   3.400   5.715  10.018 -0.5880  0.1453 -0.2155
  138SAPE   H3R14992   3.297   5.696  10.055  0.1065 -0.3130  1.5147
  138SAPE   H3S14993   3.407   5.646   9.931 -0.6473  0.3688 -0.3968
  138SAPE   C2414994   3.424   5.858   9.975  0.3326 -0.0420 -0.4125
  138SAPE   H4R14995   3.533   5.875   9.961  0.1509  1.4083 -0.1234
  138SAPE   H4S14996   3.395   5.925  10.059  0.7499  3.2062 -2.7813
  138SAPE   C2514997   3.342   5.917   9.862 -0.1634  0.8895  0.4560
  138SAPE   H5R14998   3.234   5.917   9.881 -0.7315 -0.8778 -2.4417
  138SAPE   C2614999   3.386   5.967   9.746  0.2262  0.5597 -0.2782
  138SAPE   H6R15000   3.304   5.999   9.679 -1.3194 -0.9900  0.8547
  138SAPE   C2715001   3.527   5.980   9.694  0.3908 -0.1139 -0.3279
  138SAPE   H7R15002   3.597   5.997   9.779  0.4733 -3.4377  0.3621
  138SAPE   H7S15003   3.528   6.062   9.620 -0.4284  0.5671  0.4049
  138SAPE   C2815004   3.571   5.852   9.623  0.0467  0.6830 -0.5157
  138SAPE   H8R15005   3.583   5.771   9.697  0.7998 -0.1444 -1.5299
  138SAPE   C2915006   3.580   5.818   9.498 -0.2103 -0.0153 -0.3833
  138SAPE   H9R15007   3.603   5.713   9.475 -2.4976 -1.0086  1.6633
  138SAPE  C21015008   3.550   5.903   9.380  0.2928  0.0424 -0.6807
  138SAPE  H10R15009   3.469   5.976   9.404  1.1700  0.0878  2.3061
  138SAPE  H10S15010   3.503   5.848   9.295  2.0311 -0.9094 -1.0359
  138SAPE  C21115011   3.681   5.966   9.340 -0.9644 -0.5260  0.1120
  138SAPE  H11R15012   3.722   6.043   9.408  1.0583 -2.3183  0.9748
  138SAPE  C21215013   3.748   5.951   9.222 -0.1573 -0.6660 -0.2739
  138SAPE  H12R15014   3.835   6.015   9.198  1.9697 -2.8156  1.4055
  138SAPE  C21315015   3.712   5.863   9.102 -0.3898 -0.2988 -0.4547
  138SAPE  H13R15016   3.675   5.763   9.133 -0.3098 -1.2919 -3.4231
  138SAPE  H13S15017   3.803   5.853   9.039  0.2433  2.5120 -0.0220
  138SAPE  C21415018   3.610   5.926   9.012 -0.7011  0.5306 -0.1442
  138SAPE  H14R15019   3.579   6.028   9.038  1.2675  1.4464 -1.2741
  138SAPE  C21515020   3.586   5.895   8.878 -0.2129 -0.4367  0.4386
  138SAPE  H15R15021   3.512   5.953   8.822 -0.9017 -0.3605  1.4088
  138SAPE  C21615022   3.661   5.783   8.813 -0.2433  0.6361 -0.2583
  138SAPE  H16R15023   3.768   5.770   8.840 -0.4007 -1.2287 -0.4829
  138SAPE  H16S15024   3.661   5.825   8.710  0.7337  0.5177 -0.3189
  138SAPE  C21715025   3.593   5.644   8.823  0.2152  0.3174 -0.0340
  138SAPE  H17R15026   3.483   5.649   8.807  0.1853 -0.2373 -0.0037
  138SAPE  H17S15027   3.604   5.613   8.929  0.7400  1.4199  0.2424
  138SAPE  C21815028   3.659   5.543   8.723  0.1491 -0.3660 -0.2345
  138SAPE  H18R15029   3.767   5.565   8.726  0.0369  0.4523 -1.6732
  138SAPE  H18S15030   3.627   5.564   8.619  1.1755  0.8961 -0.2979
  138SAPE  C21915031   3.639   5.397   8.763  0.1271 -0.1234 -0.1608
  138SAPE  H19R15032   3.530   5.386   8.783 -0.2106 -2.0553 -2.7567
  138SAPE  H19S15033   3.692   5.374   8.857  1.1065  0.9056 -0.4471
  138SAPE  C22015034   3.686   5.303   8.650  1.1149 -0.0473 -0.3889
  138SAPE  H20R15035   3.601   5.296   8.579  1.3673  0.0630 -0.7029
  138SAPE  H20S15036   3.688   5.201   8.694  1.4774  0.6967  1.3796
  138SAPE  H20T15037   3.782   5.332   8.602 -0.3445  1.2662 -2.6027
  138SAPE   C3315038   3.284   6.276  10.214 -0.2196 -0.2039  0.2118
  138SAPE   H3X15039   3.356   6.356  10.185  0.8436 -0.3565  2.3001
  138SAPE   H3Y15040   3.268   6.306  10.320  4.1342  1.3394  0.5265
  138SAPE   C3415041   3.150   6.294  10.141 -0.4430 -0.5555  0.0010
  138SAPE   H4X15042   3.106   6.394  10.158  0.6493 -0.0580 -0.0708
  138SAPE   H4Y15043   3.078   6.215  10.172  1.9665 -2.3105  1.2745
  138SAPE   C3515044   3.166   6.280   9.983 -0.1203 -0.3684 -0.7683
  138SAPE   H5X15045   3.067   6.267   9.935 -0.0108 -0.8552 -0.8657
  138SAPE   H5Y15046   3.233   6.194   9.962  1.7404  0.5105  1.3785
  138SAPE   C3615047   3.225   6.411   9.914  0.4158 -0.1102  0.5936
  138SAPE   H6X15048   3.322   6.443   9.957  0.1681  0.8295  0.4776
  138SAPE   H6Y15049   3.146   6.489   9.924 -1.5503 -1.7974 -1.1101
  138SAPE   C3715050   3.268   6.388   9.763  0.1242  0.2333  0.0027
  138SAPE   H7X15051   3.338   6.302   9.767 -1.0011 -0.7022  0.0987
  138SAPE   H7Y15052   3.322   6.477   9.725  1.6327 -1.2581 -1.4500
  138SAPE   C3815053   3.155   6.362   9.658  0.1005  1.0232  0.1482
  138SAPE   H8X15054   3.111   6.459   9.628  1.5277  2.2124  1.8291
  138SAPE   H8Y15055   3.082   6.286   9.693 -0.6713  2.8930  2.6766
  138SAPE   C3915056   3.224   6.301   9.536  0.4502 -0.1550 -0.3778
  138SAPE   H9X15057   3.298   6.221   9.558 -0.3402 -1.7126 -3.0891
  138SAPE   H9Y15058   3.280   6.388   9.493  0.1041 -0.3431 -1.2277
  138SAPE  C31015059   3.124   6.241   9.442 -0.3827  0.2839  0.1039
  138SAPE  H10X15060   3.070   6.329   9.401 -3.5593 -0.4377  2.5000
  138SAPE  H10Y15061   3.041   6.188   9.493 -0.3057  2.1267  2.2672
  138SAPE  C31115062   3.192   6.157   9.336 -1.1701 -0.3976  0.2935
  138SAPE  H11X15063   3.109   6.126   9.270 -0.7500 -0.7267 -0.0793
  138SAPE  H11Y15064   3.243   6.072   9.385 -1.4309 -1.1656 -0.7509
  138SAPE  C31215065   3.294   6.245   9.251  0.3940  0.0730 -0.3890
  138SAPE  H12X15066   3.389   6.267   9.304 -0.9523 -0.7668  2.4729
  138SAPE  H12Y15067   3.247   6.344   9.232  2.5285  1.7121  2.4506
  138SAPE  C31315068   3.338   6.181   9.115  0.1173  0.2179  0.6023
  138SAPE  H13X15069   3.351   6.072   9.132  0.5710  0.2105  0.2164
  138SAPE  H13Y15070   3.434   6.227   9.083  0.2554 -0.1059  0.5489
  138SAPE  C31415071   3.237   6.192   8.998  0.5541  0.7600  0.4621
  138SAPE  H14X15072   3.217   6.296   8.965 -3.1762  0.2075  0.7568
  138SAPE  H14Y15073   3.136   6.159   9.029  0.4275  0.0082 -0.6956
  138SAPE  C31515074   3.281   6.125   8.867  0.2240 -0.4962  0.5751
  138SAPE  H15X15075   3.307   6.017   8.874  0.4164 -0.5618 -0.9900
  138SAPE  H15Y15076   3.372   6.182   8.841 -0.8162  1.7713  1.8081
  138SAPE  C31615077   3.168   6.148   8.762 -0.7646  0.2214 -0.4755
  138SAPE  H16X15078   3.163   6.258   8.747  2.0780  0.6257  1.1915
  138SAPE  H16Y15079   3.074   6.104   8.803  1.1418 -3.2480  0.4357
  138SAPE  C31715080   3.210   6.095   8.626  0.3559  0.7808  0.1985
  138SAPE  H17X15081   3.234   5.987   8.638 -2.0165 -0.2268 -3.3498
  138SAPE  H17Y15082   3.309   6.135   8.593  0.9857 -1.5842 -0.8743
  138SAPE  C31815083   3.114   6.130   8.514  0.1520 -0.1601 -0.9005
  138SAPE  H18X15084   3.038   6.050   8.518  1.3564 -1.2356  1.1975
  138SAPE  H18Y15085   3.163   6.129   8.414 -0.1507  0.4771 -1.0532
  138SAPE  H18Z15086   3.072   6.232   8.523 -0.8577 -0.6257 -0.2881
  139SAPE     N15087   2.951   3.648  10.704  0.0078 -0.8498 -0.3232
  139SAPE   HN115088   3.046   3.682  10.727 -1.0877  3.1966 -1.4156
  139SAPE   HN215089   2.880   3.719  10.732  0.3503 -0.7998  0.4431
  139SAPE   HN315090   2.929   3.563  10.760 -0.6724 -1.3985 -1.4085
  139SAPE   C1215091   2.946   3.608  10.558  0.3600 -0.4179  0.1171
  139SAPE  H12A15092   2.990   3.691  10.499 -0.5340 -0.5239 -0.7065
  139SAPE  H12B15093   2.839   3.598  10.532 -0.4100 -0.2781  3.0249
  139SAPE   C1115094   3.027   3.479  10.532 -0.1923  0.3789 -0.4583
  139SAPE  H11A15095   3.018   3.457  10.423  1.7196  0.4124 -0.6288
  139SAPE  H11B15096   2.980   3.401  10.595 -0.6095  0.8993 -0.1081
  139SAPE     P15097   3.282   3.547  10.479 -0.0220 -0.3875 -0.2326
  139SAPE   O1315098   3.323   3.694  10.500  0.2753  0.5503 -0.2304
  139SAPE   O1415099   3.385   3.448  10.518 -0.2582  0.0725  0.1136
  139SAPE   O1215100   3.159   3.514  10.571  0.3847  0.0994 -0.1080
  139SAPE   O1115101   3.248   3.520  10.329  0.6688 -0.2327 -0.1973
  139SAPE    C115102   3.335   3.446  10.243  0.2545  0.2687  0.0717
  139SAPE    HA15103   3.367   3.351  10.291  1.5786  0.2210 -0.8794
  139SAPE    HB15104   3.282   3.427  10.147  2.3850  0.9836 -1.2713
  139SAPE    C215105   3.465   3.522  10.206  0.1900  0.2727 -0.0324
  139SAPE    HS15106   3.537   3.498  10.287  0.6113 -0.1213 -0.5163
  139SAPE   O2115107   3.448   3.664  10.191  0.4985 -0.5127  0.1561
  139SAPE   C2115108   3.552   3.727  10.213 -0.2636 -0.8740  0.1132
  139SAPE   O2215109   3.667   3.682  10.219  0.0076  0.7379 -0.0846
  139SAPE   C2215110   3.526   3.877  10.220  0.6482 -0.2882  0.5413
  139SAPE   H2R15111   3.459   3.909  10.137  0.0584 -2.2211  0.2457
  139SAPE   H2S15112   3.467   3.887  10.314 -0.7341 -0.0353 -0.3412
  139SAPE    C315113   3.533   3.468  10.079 -0.0394 -0.1359 -0.7761
  139SAPE    HX15114   3.642   3.484  10.068  0.0604  0.6326  1.2230
  139SAPE    HY15115   3.487   3.525   9.995  1.2871  1.7071 -0.2875
  139SAPE   O3115116   3.510   3.326  10.076 -0.0937 -0.1897  0.2623
  139SAPE   C3115117   3.598   3.247  10.128  0.0511  0.2277  0.6109
  139SAPE   O3215118   3.697   3.276  10.193  0.0183  0.2189  0.7406
  139SAPE   C3215119   3.557   3.101  10.087 -0.2774 -0.9855  0.1078
  139SAPE   H2X15120   3.446   3.101  10.080 -0.3201  0.5406  0.5908
  139SAPE   H2Y15121   3.595   3.034  10.167  2.2031  0.0707 -0.1490
  139SAPE   C2315122   3.644   3.973  10.225  0.4298  0.3968 -0.1775
  139SAPE   H3R15123   3.722   3.923  10.287 -1.3769 -0.3313  1.5607
  139SAPE   H3S15124   3.614   4.065  10.279 -0.0180  0.6713 -0.8844
  139SAPE   C2415125   3.698   4.027  10.094 -0.0538  0.1374  0.1519
  139SAPE   H4R15126   3.768   4.108  10.124 -0.7380  0.9778 -0.4942
  139SAPE   H4S15127   3.615   4.090  10.056  0.4553  0.4423 -0.4581
  139SAPE   C2515128   3.770   3.924  10.008 -0.8520  0.4673  0.0917
  139SAPE   H5R15129   3.803   3.834  10.060  1.4623  2.6415  2.5346
  139SAPE   C2615130   3.785   3.925   9.871 -0.2751 -0.1315  0.1287
  139SAPE   H6R15131   3.817   3.829   9.828  1.1158 -0.1405  1.1497
  139SAPE   C2715132   3.734   4.031   9.779  0.4219  0.6748  0.1388
  139SAPE   H7R15133   3.819   4.092   9.741  0.7351 -0.7699 -1.5148
  139SAPE   H7S15134   3.674   4.109   9.832  0.8917  2.4013 -1.8088
  139SAPE   C2815135   3.648   3.971   9.660  0.0977 -0.2777 -0.0887
  139SAPE   H8R15136   3.570   3.902   9.696 -1.1415 -0.0896 -2.3172
  139SAPE   C2915137   3.669   3.988   9.531 -0.3933 -0.5124  0.1848
  139SAPE   H9R15138   3.600   3.947   9.456 -1.1136  1.8371 -0.4614
  139SAPE  C21015139   3.780   4.072   9.477 -0.6515 -0.3435  0.0132
  139SAPE  H10R15140   3.873   4.011   9.487  0.3515  1.3356  1.3818
  139SAPE  H10S15141   3.786   4.162   9.543  2.5139 -1.1274  0.8888
  139SAPE  C21115142   3.757   4.100   9.324 -0.0919 -0.5160  0.4591
  139SAPE  H11R15143   3.651   4.123   9.302 -0.1074 -1.8564 -0.9042
  139SAPE  C21215144   3.853   4.086   9.231 -0.9241 -0.6087  0.4117
  139SAPE  H12R15145   3.839   4.126   9.129  0.2886  0.6085  0.7169
  139SAPE  C21315146   3.993   4.048   9.259  0.4493  0.0930  0.7897
  139SAPE  H13R15147   4.028   4.098   9.352 -1.6044  1.4262  0.8764
  139SAPE  H13S15148   4.059   4.096   9.184 -1.3138  2.2689  0.5770
  139SAPE  C21415149   4.032   3.906   9.274  0.1166 -0.3194  0.1437
  139SAPE  H14R15150   4.056   3.883   9.379 -0.9934 -0.9909  0.2535
  139SAPE  C21515151   4.059   3.818   9.179  0.2221 -0.5610 -0.4116
  139SAPE  H15R15152   4.082   3.715   9.212 -2.0565 -1.2096 -0.7784
  139SAPE  C21615153   4.051   3.840   9.031  0.6677 -0.0169  0.0665
  139SAPE  H16R15154   3.996   3.933   9.006  1.0700  0.8610  2.3244
  139SAPE  H16S15155   3.996   3.755   8.984 -0.9519 -0.2936  2.4037
  139SAPE  C21715156   4.182   3.864   8.960 -0.0171  0.4720  0.0491
  139SAPE  H17R15157   4.237   3.769   8.978 -0.2198  0.1431 -1.0231
  139SAPE  H17S15158   4.241   3.945   9.009  1.8167 -0.3183 -0.7906
  139SAPE  C21815159   4.183   3.888   8.805 -0.2718  0.8710 -0.2151
  139SAPE  H18R15160   4.110   3.823   8.753 -0.8065  0.0999  1.4657
  139SAPE  H18S15161   4.286   3.864   8.772  0.4928  0.2111  2.4939
  139SAPE  C21915162   4.143   4.032   8.775 -0.6085 -0.7908 -0.0380
  139SAPE  H19R15163   4.195   4.095   8.850 -1.5411  0.9127 -0.8176
  139SAPE  H19S15164   4.034   4.035   8.793 -0.4821  1.7441  0.3732
  139SAPE  C22015165   4.176   4.092   8.643 -0.7374 -0.5302  0.0652
  139SAPE  H20R15166   4.286   4.088   8.629 -0.8094  0.6373 -0.9232
  139SAPE  H20S15167   4.130   4.193   8.638 -0.5526 -0.3552  1.6945
  139SAPE  H20T15168   4.136   4.023   8.565  0.3292 -1.5719  0.4273
  139SAPE   C3315169   3.622   3.044   9.957  0.0085 -0.2490 -0.4348
  139SAPE   H3X15170   3.615   2.933   9.957  0.5243 -0.3719  4.2624
  139SAPE   H3Y15171   3.731   3.068   9.952  0.1016 -0.3479  0.9237
  139SAPE   C3415172   3.548   3.092   9.833 -0.0092  1.0179 -0.3495
  139SAPE   H4X15173   3.551   3.203   9.833  0.5812  1.0195  1.4924
  139SAPE   H4Y15174   3.443   3.057   9.832  0.1489  0.5547 -0.7053
  139SAPE   C3515175   3.615   3.045   9.705 -0.2948  1.0751 -0.2592
  139SAPE   H5X15176   3.549   3.061   9.617  0.8077 -0.3048 -1.3485
  139SAPE   H5Y15177   3.646   2.939   9.712 -0.1581  1.0471 -1.2169
  139SAPE   C3615178   3.740   3.133   9.677 -0.9279 -0.4979 -0.3376
  139SAPE   H6X15179   3.797   3.127   9.773  0.7346  1.7975 -1.1315
  139SAPE   H6Y15180   3.702   3.235   9.653  1.1512  0.2237 -0.6352
  139SAPE   C3715181   3.827   3.098   9.553  0.4773 -0.6499 -0.3267
  139SAPE   H7X15182   3.873   2.999   9.575 -1.1731 -1.3556  0.0434
  139SAPE   H7Y15183   3.915   3.165   9.561 -0.5252  0.7723 -0.9127
  139SAPE   C3815184   3.750   3.091   9.418  0.5605 -0.2323  0.1719
  139SAPE   H8X15185   3.703   3.190   9.401 -2.0024 -1.4326 -0.0119
  139SAPE   H8Y15186   3.661   3.026   9.427  1.1314 -1.3656 -1.9571
  139SAPE   C3915187   3.839   3.044   9.297 -0.7372  0.6221 -0.1251
  139SAPE   H9X15188   3.909   3.130   9.289  0.0290 -0.1289 -1.6951
  139SAPE   H9Y15189   3.774   3.033   9.207 -0.9769 -2.4617  0.3576
  139SAPE  C31015190   3.915   2.919   9.320  0.1836 -0.4438  0.0433
  139SAPE  H10X15191   3.851   2.845   9.373 -1.5293  0.3078 -0.9521
  139SAPE  H10Y15192   4.007   2.936   9.380  0.7571 -2.8036 -0.1045
  139SAPE  C31115193   3.949   2.849   9.185 -0.3868 -0.0932 -0.0536
  139SAPE  H11X15194   3.862   2.807   9.129 -0.8714  2.3353 -1.2251
  139SAPE  H11Y15195   4.030   2.778   9.212 -0.5774 -0.1575  0.3506
  139SAPE  C31215196   4.002   2.939   9.069  0.0946 -0.0225 -0.1971
  139SAPE  H12X15197   4.103   2.975   9.100  0.8705 -0.1043 -2.5455
  139SAPE  H12Y15198   3.931   3.023   9.058  1.6772  1.3666 -0.0121
  139SAPE  C31315199   4.009   2.875   8.930  0.3439  0.4103 -0.1153
  139SAPE  H13X15200   3.912   2.851   8.882  0.1485 -0.8148  0.8597
  139SAPE  H13Y15201   4.075   2.787   8.943  0.5291  0.2422 -2.0966
  139SAPE  C31415202   4.078   2.963   8.827 -0.3757  0.4274  0.3540
  139SAPE  H14X15203   4.177   2.998   8.863  0.1552 -0.4322 -0.2900
  139SAPE  H14Y15204   4.021   3.057   8.808 -1.1724 -0.5325 -2.1630
  139SAPE  C31515205   4.105   2.887   8.691 -0.6929  0.4360 -0.1346
  139SAPE  H15X15206   4.137   2.783   8.712  3.0555  1.4855 -0.2904
  139SAPE  H15Y15207   4.186   2.939   8.636 -1.4019  0.5909 -1.0438
  139SAPE  C31615208   3.979   2.872   8.599  0.4514 -0.1845  0.4769
  139SAPE  H16X15209   3.984   2.773   8.549  1.2046  0.7571 -1.3542
  139SAPE  H16Y15210   3.895   2.861   8.670  0.7980  0.5251  1.0023
  139SAPE  C31715211   3.951   2.981   8.497 -0.0684  0.0022  0.1690
  139SAPE  H17X15212   4.037   3.004   8.431 -0.5397  0.6753 -0.2045
  139SAPE  H17Y15213   3.931   3.073   8.555  1.1647  0.4903 -0.1538
  139SAPE  C31815214   3.819   2.950   8.426  0.5127 -0.5257  0.3903
  139SAPE  H18X15215   3.786   2.844   8.415 -1.9399  0.1509  0.9124
  139SAPE  H18Y15216   3.814   2.980   8.319 -0.9188 -0.4262  0.4722
  139SAPE  H18Z15217   3.737   3.001   8.480  0.4255  1.5310 -1.5917
  140SAPE     N15218   6.566   0.829  11.122 -0.1048 -0.3430  0.2683
  140SAPE   HN115219   6.622   0.794  11.203  1.0509 -2.1805 -1.3046
  140SAPE   HN215220   6.478   0.878  11.147  0.1981  0.2813  0.1244
  140SAPE   HN315221   6.527   0.755  11.062  0.5236  0.5418 -1.2533
  140SAPE   C1215222   6.647   0.937  11.056 -1.1297 -0.3747 -0.6093
  140SAPE  H12A15223   6.741   0.906  11.004 -2.2341  0.0593 -2.9324
  140SAPE  H12B15224   6.678   1.011  11.133  1.1861 -1.9463  0.0030
  140SAPE   C1115225   6.554   1.022  10.965 -0.0486 -0.5210  0.3835
  140SAPE  H11A15226   6.527   0.964  10.874  0.5154 -2.7098  1.5597
  140SAPE  H11B15227   6.606   1.112  10.926 -1.9525 -0.5325 -2.2852
  140SAPE     P15228   6.308   1.125  10.976  0.0488  0.3177  0.1533
  140SAPE   O1315229   6.201   1.032  11.017  0.1643  0.2052  0.0003
  140SAPE   O1415230   6.285   1.263  11.023 -0.0372  0.5089 -0.3992
  140SAPE   O1215231   6.444   1.069  11.035 -0.0676 -0.3248 -0.5631
  140SAPE   O1115232   6.310   1.122  10.818 -0.3636 -0.1091  0.2306
  140SAPE    C115233   6.195   1.158  10.749 -0.6352 -1.0392  0.3554
  140SAPE    HA15234   6.115   1.201  10.814  0.2097  0.5157  0.3829
  140SAPE    HB15235   6.223   1.243  10.684  1.3746 -1.3707  0.7645
  140SAPE    C215236   6.139   1.039  10.665  0.6302 -0.8087 -0.4737
  140SAPE    HS15237   6.128   0.954  10.736 -0.7706  0.2556  0.6079
  140SAPE   O2115238   6.239   1.007  10.565 -0.2065  0.7693  0.4640
  140SAPE   C2115239   6.289   0.886  10.568 -0.1043  0.2561 -0.3152
  140SAPE   O2215240   6.276   0.801  10.656 -0.0984 -0.7120  0.3207
  140SAPE   C2215241   6.345   0.859  10.422  0.0893  0.0551  0.0516
  140SAPE   H2R15242   6.267   0.884  10.347  0.2723  0.0618 -0.1365
  140SAPE   H2S15243   6.432   0.924  10.399 -0.9814  1.6404  0.3936
  140SAPE    C315244   6.008   1.065  10.593  0.8636  0.1219 -0.2307
  140SAPE    HX15245   6.017   1.166  10.547  0.3583 -0.9766 -2.8385
  140SAPE    HY15246   5.921   1.069  10.663  0.3652 -1.2549 -0.7572
  140SAPE   O3115247   5.977   0.961  10.498 -0.6082  0.4450 -0.0877
  140SAPE   C3115248   5.938   0.845  10.546  0.5335  0.3986  1.3131
  140SAPE   O3215249   5.922   0.818  10.662 -0.0394 -0.4416 -0.2601
  140SAPE   C3215250   5.901   0.748  10.428  0.0702 -0.3310 -0.1014
  140SAPE   H2X15251   5.798   0.713  10.451  0.0872  0.7973  1.7467
  140SAPE   H2Y15252   5.969   0.663  10.450 -1.9711 -1.7909  0.7154
  140SAPE   C2315253   6.393   0.710  10.399 -0.1030 -0.3314  0.5364
  140SAPE   H3R15254   6.313   0.640  10.431  1.0837 -1.4665  1.0226
  140SAPE   H3S15255   6.466   0.698  10.481 -1.8467  1.2738  2.3880
  140SAPE   C2415256   6.442   0.676  10.249  0.1185 -0.0634 -0.0129
  140SAPE   H4R15257   6.344   0.667  10.197  1.3127  2.3984 -2.7863
  140SAPE   H4S15258   6.492   0.577  10.253  0.7631  0.2895  0.7382
  140SAPE   C2515259   6.542   0.779  10.197  0.4388  0.0520  0.6084
  140SAPE   H5R15260   6.605   0.829  10.271  0.1693 -0.7211  1.3656
  140SAPE   C2615261   6.557   0.809  10.066  0.3361 -0.2095  0.4005
  140SAPE   H6R15262   6.628   0.889  10.045 -1.6217  1.0073 -1.8044
  140SAPE   C2715263   6.478   0.745   9.953 -0.0940  0.4015  0.1081
  140SAPE   H7R15264   6.511   0.792   9.858 -0.6315  1.7568  0.5853
  140SAPE   H7S15265   6.372   0.769   9.975 -0.1713  0.5875 -0.4530
  140SAPE   C2815266   6.490   0.593   9.936 -0.4002 -0.5349  0.3143
  140SAPE   H8R15267   6.556   0.541  10.006 -0.3365  1.8539  2.1100
  140SAPE   C2915268   6.432   0.516   9.841 -0.5857 -0.6068 -0.4206
  140SAPE   H9R15269   6.449   0.407   9.843  1.0245 -0.3584  0.6115
  140SAPE  C21015270   6.342   0.566   9.730 -0.4388  0.4147 -0.2814
  140SAPE  H10R15271   6.409   0.618   9.657  2.4742 -1.4313  1.0070
  140SAPE  H10S15272   6.276   0.637   9.783  0.6500  0.9605  0.3642
  140SAPE  C21115273   6.262   0.470   9.651  0.2368 -0.0106 -0.5772
  140SAPE  H11R15274   6.207   0.402   9.718 -2.6533  0.9237 -1.8935
  140SAPE  C21215275   6.253   0.462   9.516 -0.0811 -0.4826  0.0377
  140SAPE  H12R15276   6.196   0.377   9.475  1.2407 -1.9127  1.1219
  140SAPE  C21315277   6.321   0.565   9.418  0.3745 -0.9811 -0.2507
  140SAPE  H13R15278   6.416   0.515   9.391  0.6152  0.6777 -2.6929
  140SAPE  H13S15279   6.351   0.656   9.474 -3.2143 -0.6516  1.2621
  140SAPE  C21415280   6.244   0.592   9.296  0.2860  0.7483  0.2548
  140SAPE  H14R15281   6.181   0.681   9.284 -0.7815 -0.0103  0.0742
  140SAPE  C21515282   6.230   0.510   9.186 -0.1805 -0.3394 -0.1319
  140SAPE  H15R15283   6.168   0.543   9.101  0.7567 -1.5504 -1.2896
  140SAPE  C21615284   6.303   0.386   9.164 -0.1741 -1.0719 -0.3079
  140SAPE  H16R15285   6.247   0.295   9.135 -1.7245 -0.0042 -0.7045
  140SAPE  H16S15286   6.360   0.361   9.256  2.6917 -1.0582 -2.0225
  140SAPE  C21715287   6.413   0.393   9.046  0.2226 -0.0826 -0.1410
  140SAPE  H17R15288   6.489   0.312   9.052 -0.9397 -1.2262 -0.6642
  140SAPE  H17S15289   6.472   0.487   9.034 -0.0297 -0.1141 -1.7389
  140SAPE  C21815290   6.350   0.359   8.903 -0.4694  0.0409  0.4605
  140SAPE  H18R15291   6.274   0.433   8.869 -1.1800 -1.6614 -1.7374
  140SAPE  H18S15292   6.297   0.262   8.911  1.1303 -0.8305  0.6540
  140SAPE  C21915293   6.463   0.348   8.797  0.0170  0.4223 -0.0188
  140SAPE  H19R15294   6.415   0.318   8.702 -2.1393 -1.0639  1.4867
  140SAPE  H19S15295   6.532   0.271   8.836  0.0022  0.3334 -0.1698
  140SAPE  C22015296   6.538   0.473   8.772 -0.4835 -0.0025 -0.2934
  140SAPE  H20R15297   6.594   0.506   8.862  0.0322 -0.9705 -0.2571
  140SAPE  H20S15298   6.472   0.557   8.740  2.6660  2.7750  0.2326
  140SAPE  H20T15299   6.600   0.461   8.681 -0.7783  2.1303 -0.8140
  140SAPE   C3315300   5.912   0.806  10.285 -0.4137  0.5634  0.2519
  140SAPE   H3X15301   6.019   0.821  10.259 -0.6562  0.5754 -0.7365
  140SAPE   H3Y15302   5.868   0.907  10.275  0.4557  0.7039 -2.2901
  140SAPE   C3415303   5.855   0.701  10.188  0.3301 -0.0015  0.6845
  140SAPE   H4X15304   5.746   0.716  10.172  0.8303  1.1833 -1.9953
  140SAPE   H4Y15305   5.876   0.597  10.219  2.6405 -0.4889 -2.3133
  140SAPE   C3515306   5.921   0.718  10.051 -0.4586  0.1699 -0.1921
  140SAPE   H5X15307   6.021   0.671  10.053 -0.4421  0.2628  1.2321
  140SAPE   H5Y15308   5.932   0.825  10.022 -0.6014  0.0766 -0.5923
  140SAPE   C3615309   5.836   0.645   9.939  0.2297 -0.1803 -0.4547
  140SAPE   H6X15310   5.739   0.698   9.931 -0.1726 -0.8374  0.0416
  140SAPE   H6Y15311   5.808   0.543   9.971  1.2871 -0.2502  0.2853
  140SAPE   C3715312   5.912   0.641   9.803  0.9141  0.4087  0.3556
  140SAPE   H7X15313   5.998   0.577   9.831  1.1730  1.7806  2.8298
  140SAPE   H7Y15314   5.941   0.747   9.784  1.3873  0.2060 -0.0715
  140SAPE   C3815315   5.828   0.593   9.684 -0.5878 -0.7246 -0.2861
  140SAPE   H8X15316   5.733   0.647   9.702  0.2029  0.3706  0.6749
  140SAPE   H8Y15317   5.812   0.483   9.683 -0.8658 -0.6830 -0.7595
  140SAPE   C3915318   5.892   0.633   9.552 -0.7859  0.2097  0.2817
  140SAPE   H9X15319   5.989   0.580   9.552 -0.2862  1.1275  0.4467
  140SAPE   H9Y15320   5.916   0.742   9.547  1.6212 -0.3071  0.1115
  140SAPE  C31015321   5.817   0.588   9.427 -0.1576 -0.1156  0.3493
  140SAPE  H10X15322   5.708   0.598   9.446  0.2205 -0.1143  2.6966
  140SAPE  H10Y15323   5.831   0.482   9.397  2.5860 -0.1646  1.6491
  140SAPE  C31115324   5.857   0.677   9.310 -0.9849 -1.0342  0.4387
  140SAPE  H11X15325   5.964   0.658   9.288 -0.7275  0.1308  0.6753
  140SAPE  H11Y15326   5.825   0.779   9.338 -0.9175 -0.4589 -1.4787
  140SAPE  C31215327   5.784   0.627   9.181 -0.0980 -0.1702  0.3362
  140SAPE  H12X15328   5.783   0.722   9.124 -2.2402 -1.3432 -1.6339
  140SAPE  H12Y15329   5.680   0.588   9.193 -0.2120 -0.2927 -1.0453
  140SAPE  C31315330   5.863   0.509   9.124  0.0230 -0.1317  0.4641
  140SAPE  H13X15331   5.869   0.434   9.205  2.2597  0.6804  1.0817
  140SAPE  H13Y15332   5.969   0.544   9.122  0.1791 -0.6148  0.3123
  140SAPE  C31415333   5.818   0.459   8.984  0.5381  0.0487  0.0371
  140SAPE  H14X15334   5.708   0.451   8.982  0.5624 -0.0477 -0.8300
  140SAPE  H14Y15335   5.861   0.358   8.963 -1.9220 -1.5189  2.2274
  140SAPE  C31515336   5.860   0.550   8.870  0.3692  0.0141  0.2191
  140SAPE  H15X15337   5.971   0.538   8.868  0.3850  0.2307 -0.7511
  140SAPE  H15Y15338   5.821   0.653   8.883 -0.7268  0.0171 -2.6287
  140SAPE  C31615339   5.815   0.501   8.736 -0.5952  0.0370 -0.2814
  140SAPE  H16X15340   5.705   0.512   8.722 -0.3081  1.7141 -1.3662
  140SAPE  H16Y15341   5.845   0.396   8.717 -0.7118  0.0312 -0.4343
  140SAPE  C31715342   5.857   0.581   8.604  0.0693  0.1329 -0.7391
  140SAPE  H17X15343   5.967   0.564   8.597  0.3865  1.8478 -0.3157
  140SAPE  H17Y15344   5.845   0.690   8.620 -1.7445 -0.0837 -0.5320
  140SAPE  C31815345   5.789   0.539   8.480  0.1351 -0.4318  0.1550
  140SAPE  H18X15346   5.683   0.573   8.474  0.7465  1.2714 -1.0654
  140SAPE  H18Y15347   5.799   0.428   8.482 -2.2056 -0.6607  1.4309
  140SAPE  H18Z15348   5.842   0.575   8.390 -2.0009  0.0122 -0.9550
  141SAPE     N15349   0.157   1.294  10.969 -0.0954  0.3285  0.4092
  141SAPE   HN115350   0.192   1.219  11.032  1.1724  1.4385  1.0672
  141SAPE   HN215351   0.062   1.319  11.002  0.1089  2.5218 -0.5369
  141SAPE   HN315352   0.158   1.253  10.874 -0.1829  3.6720 -1.1118
  141SAPE   C1215353   0.246   1.414  10.981 -0.2676 -0.4235  0.2415
  141SAPE  H12A15354   0.351   1.382  10.965 -1.6343 -4.6842 -0.7527
  141SAPE  H12B15355   0.240   1.451  11.085  0.1249  1.1456 -0.2792
  141SAPE   C1115356   0.189   1.523  10.889  0.3181  0.0985 -0.9617
  141SAPE  H11A15357   0.177   1.492  10.783 -3.1011 -0.5858 -0.4470
  141SAPE  H11B15358   0.270   1.598  10.888  2.3810 -2.0205  0.6730
  141SAPE     P15359   0.003   1.708  10.911  0.3792 -0.2741 -0.4376
  141SAPE   O1315360  -0.092   1.751  11.012 -0.2339 -0.5012 -0.5059
  141SAPE   O1415361   0.111   1.798  10.867  0.2188  0.1485 -0.3652
  141SAPE   O1215362   0.067   1.565  10.953 -0.6514 -0.2900  0.2638
  141SAPE   O1115363  -0.079   1.691  10.779 -0.0093 -0.1697  0.1499
  141SAPE    C115364  -0.126   1.568  10.718  0.9614 -1.0853  0.1194
  141SAPE    HA15365  -0.107   1.481  10.784 -1.5186 -1.4128  0.4613
  141SAPE    HB15366  -0.237   1.575  10.722  0.9909 -1.8781  3.3937
  141SAPE    C215367  -0.075   1.541  10.574  0.4174 -0.0232 -0.4411
  141SAPE    HS15368   0.020   1.483  10.579  1.1820  1.0694 -1.8591
  141SAPE   O2115369  -0.058   1.662  10.508 -0.4032 -0.2461  0.8750
  141SAPE   C2115370   0.017   1.653  10.400 -0.5583  0.4663  0.4330
  141SAPE   O2215371   0.084   1.560  10.366  0.5463 -0.2744 -0.2420
  141SAPE   C2215372   0.030   1.793  10.337 -0.0137  0.1306  0.2821
  141SAPE   H2R15373  -0.020   1.802  10.238 -2.1735  4.9385  1.6770
  141SAPE   H2S15374  -0.018   1.874  10.395 -1.8546 -0.3295 -0.5683
  141SAPE    C315375  -0.177   1.439  10.508  0.5293 -0.0274 -0.0779
  141SAPE    HX15376  -0.273   1.492  10.485  0.5518 -0.0727 -0.2768
  141SAPE    HY15377  -0.195   1.358  10.582  1.3371  0.9963  1.2533
  141SAPE   O3115378  -0.119   1.376  10.386  0.0692  0.1795 -0.5309
  141SAPE   C3115379  -0.170   1.414  10.272  0.3147  0.1237  0.2538
  141SAPE   O3215380  -0.235   1.515  10.257 -0.0241 -0.5697  0.0809
  141SAPE   C3215381  -0.137   1.315  10.165  0.0050  0.1118 -0.5196
  141SAPE   H2X15382  -0.227   1.302  10.101 -0.5402  0.8853  0.0762
  141SAPE   H2Y15383  -0.114   1.217  10.211 -0.0907 -0.3371 -1.4210
  141SAPE   C2315384   0.178   1.830  10.304  0.1538  0.3027 -0.0188
  141SAPE   H3R15385   0.227   1.743  10.254 -0.6076  0.1117 -0.4382
  141SAPE   H3S15386   0.229   1.832  10.403 -0.9350 -3.2619  0.7073
  141SAPE   C2415387   0.174   1.965  10.238 -0.2217  0.1217  0.0240
  141SAPE   H4R15388   0.157   2.046  10.312  1.2200  1.1056 -0.7245
  141SAPE   H4S15389   0.090   1.981  10.167 -0.3112  1.3615  0.3989
  141SAPE   C2515390   0.305   2.011  10.167  0.1643  0.2725  0.3955
  141SAPE   H5R15391   0.374   2.076  10.224  1.3051  0.9411 -1.6910
  141SAPE   C2615392   0.336   1.977  10.048 -0.2467  0.1239 -0.6121
  141SAPE   H6R15393   0.432   2.008  10.003 -0.5941  0.8729 -0.8447
  141SAPE   C2715394   0.246   1.906   9.951 -0.3479  0.4900  0.1551
  141SAPE   H7R15395   0.152   1.876  10.001  0.2672 -0.5208  0.7205
  141SAPE   H7S15396   0.288   1.807   9.922  2.2003  1.0228  1.8286
  141SAPE   C2815397   0.217   1.992   9.829  0.3360 -0.4265 -0.4049
  141SAPE   H8R15398   0.183   2.094   9.851  0.3149 -0.3199 -0.9301
  141SAPE   C2915399   0.229   1.949   9.703 -0.4542 -0.7963 -0.0094
  141SAPE   H9R15400   0.208   2.025   9.626  0.9196 -0.7406 -0.3467
  141SAPE  C21015401   0.274   1.812   9.656  0.3321  0.4498  0.2589
  141SAPE  H10R15402   0.364   1.769   9.704 -0.4109 -2.6283 -0.9718
  141SAPE  H10S15403   0.311   1.830   9.553  1.5049 -1.0054  0.4091
  141SAPE  C21115404   0.160   1.711   9.662 -0.1313 -0.6664 -0.2123
  141SAPE  H11R15405   0.174   1.620   9.722  0.1439  0.3979  1.3840
  141SAPE  C21215406   0.049   1.726   9.590 -0.2010  0.7068 -0.0212
  141SAPE  H12R15407  -0.031   1.657   9.620  0.3002  0.9968  2.0208
  141SAPE  C21315408   0.017   1.836   9.483  0.8697 -0.0520 -0.2084
  141SAPE  H13R15409  -0.010   1.783   9.389 -2.5547  2.0594 -0.5385
  141SAPE  H13S15410   0.106   1.895   9.452  0.3691 -0.1196 -1.8503
  141SAPE  C21415411  -0.091   1.941   9.521  0.2963 -0.7417  0.4851
  141SAPE  H14R15412  -0.054   2.016   9.592  0.9609  0.3253 -0.9598
  141SAPE  C21515413  -0.218   1.938   9.471 -0.9415  0.1734 -0.2820
  141SAPE  H15R15414  -0.285   2.017   9.508 -0.7923  0.4856 -0.6851
  141SAPE  C21615415  -0.280   1.834   9.379  0.7690  0.4557 -0.0957
  141SAPE  H16R15416  -0.355   1.776   9.437  2.2858 -2.5722 -1.0836
  141SAPE  H16S15417  -0.200   1.770   9.337  2.1122  1.6929  0.5458
  141SAPE  C21715418  -0.349   1.907   9.257 -0.4799 -0.9396 -0.3858
  141SAPE  H17R15419  -0.291   1.984   9.202 -0.4225 -1.3882 -0.9510
  141SAPE  H17S15420  -0.441   1.959   9.293 -0.3211  1.8243 -3.6490
  141SAPE  C21815421  -0.384   1.815   9.144 -0.2467 -0.4943  0.1498
  141SAPE  H18R15422  -0.467   1.746   9.170  1.5117 -3.0571 -0.8667
  141SAPE  H18S15423  -0.307   1.736   9.135 -1.8319 -1.8566 -1.7609
  141SAPE  C21915424  -0.418   1.884   9.009  0.4891  0.5545 -0.0628
  141SAPE  H19R15425  -0.325   1.934   8.976  2.4470 -1.4380  2.2490
  141SAPE  H19S15426  -0.494   1.964   9.022 -0.3581 -0.4012  0.9679
  141SAPE  C22015427  -0.470   1.797   8.891  0.1103 -0.4840 -0.3393
  141SAPE  H20R15428  -0.423   1.697   8.897  0.6499 -0.3030 -1.4089
  141SAPE  H20S15429  -0.449   1.849   8.795 -0.8480  1.2592  0.3587
  141SAPE  H20T15430  -0.579   1.778   8.907  1.1956 -3.5784  4.5991
  141SAPE   C3315431  -0.004   1.358  10.103  0.7170 -0.1569 -0.5395
  141SAPE   H3X15432   0.030   1.275  10.037  0.4340 -0.1008 -0.7582
  141SAPE   H3Y15433   0.075   1.372  10.180 -0.7225  0.5354  0.8284
  141SAPE   C3415434  -0.017   1.475  10.009  0.0519  0.0343 -0.1628
  141SAPE   H4X15435   0.081   1.506   9.966 -0.2473  1.2041 -0.0110
  141SAPE   H4Y15436  -0.055   1.564  10.064  0.6722  0.3057 -0.1695
  141SAPE   C3515437  -0.105   1.458   9.885 -0.1201  0.0912  0.7576
  141SAPE   H5X15438  -0.091   1.549   9.822 -0.6691  1.3683  2.4128
  141SAPE   H5Y15439  -0.211   1.450   9.917 -0.5170 -1.0448 -0.8251
  141SAPE   C3615440  -0.067   1.341   9.799 -0.4585 -0.4160  0.3186
  141SAPE   H6X15441  -0.105   1.243   9.834 -1.3656  0.1528  0.9203
  141SAPE   H6Y15442   0.042   1.318   9.798 -0.3987 -0.1590  0.7441
  141SAPE   C3715443  -0.128   1.362   9.655  0.3792  0.2220 -0.1567
  141SAPE   H7X15444  -0.040   1.396   9.595  0.2871 -0.3697 -0.6291
  141SAPE   H7Y15445  -0.205   1.440   9.672  1.8474  1.4669  0.9194
  141SAPE   C3815446  -0.209   1.243   9.590 -0.2860 -0.2929  0.1437
  141SAPE   H8X15447  -0.297   1.221   9.656 -0.1958 -1.4462 -0.1138
  141SAPE   H8Y15448  -0.148   1.151   9.596 -0.7929 -0.7017 -1.0110
  141SAPE   C3915449  -0.252   1.276   9.455 -0.9504 -0.2177  0.0144
  141SAPE   H9X15450  -0.318   1.365   9.444 -1.5713 -0.5303  1.1335
  141SAPE   H9Y15451  -0.299   1.194   9.397 -0.8930  1.0841 -1.9281
  141SAPE  C31015452  -0.130   1.316   9.368 -0.2949  0.6726  0.1575
  141SAPE  H10X15453  -0.055   1.239   9.397  0.0807  0.1028 -2.2391
  141SAPE  H10Y15454  -0.094   1.415   9.405 -0.7542  0.5237  1.0018
  141SAPE  C31115455  -0.152   1.310   9.222 -0.1080 -0.5836 -0.0070
  141SAPE  H11X15456  -0.258   1.284   9.202  0.3502 -1.9981 -0.6710
  141SAPE  H11Y15457  -0.092   1.229   9.175 -1.1501 -0.4215 -1.6192
  141SAPE  C31215458  -0.131   1.445   9.143 -0.6732  1.0753 -0.3760
  141SAPE  H12X15459  -0.092   1.517   9.218 -1.0556  1.2283 -0.3214
  141SAPE  H12Y15460  -0.233   1.474   9.111 -1.1471 -2.0432 -1.8902
  141SAPE  C31315461  -0.025   1.435   9.030 -0.3105 -0.5497 -0.1406
  141SAPE  H13X15462  -0.063   1.368   8.950 -0.8138 -0.1101 -0.2702
  141SAPE  H13Y15463   0.078   1.396   9.047  0.1891  0.4723 -0.7282
  141SAPE  C31415464  -0.009   1.558   8.943 -0.6242 -0.4944  0.1039
  141SAPE  H14X15465   0.045   1.633   9.004 -0.0508 -1.7572  1.1648
  141SAPE  H14Y15466  -0.109   1.597   8.913 -0.6438 -0.8551 -0.3061
  141SAPE  C31515467   0.068   1.532   8.816  0.4371 -0.6956  0.2807
  141SAPE  H15X15468   0.042   1.598   8.731 -1.4783 -0.4077  1.0554
  141SAPE  H15Y15469   0.048   1.433   8.770  0.5110 -0.6445  0.1420
  141SAPE  C31615470   0.220   1.538   8.840  0.4017 -0.2540  0.4910
  141SAPE  H16X15471   0.242   1.462   8.917  0.5428 -0.5716  0.1366
  141SAPE  H16Y15472   0.243   1.638   8.882  1.3388 -2.2886  5.1051
  141SAPE  C31715473   0.312   1.498   8.717 -0.4116 -0.4688 -0.0797
  141SAPE  H17X15474   0.292   1.563   8.629  1.7336  0.2476 -0.0656
  141SAPE  H17Y15475   0.271   1.398   8.692  1.1762 -1.7680  2.2812
  141SAPE  C31815476   0.467   1.506   8.742 -0.5992  0.2450 -0.0234
  141SAPE  H18X15477   0.499   1.609   8.769  2.1169 -0.7582  0.6950
  141SAPE  H18Y15478   0.524   1.467   8.656  0.8368  1.4766  0.3581
  141SAPE  H18Z15479   0.480   1.431   8.823  0.3707  1.2390  0.7512
  142SAPE     N15480   0.750   0.114  11.039  0.0924 -0.5518 -0.0456
  142SAPE   HN115481   0.804   0.164  11.113  1.0681  0.0366 -1.1353
  142SAPE   HN215482   0.685   0.048  11.085  1.6157 -0.5500  2.1904
  142SAPE   HN315483   0.809   0.047  10.985  1.4649  0.5441  0.0585
  142SAPE   C1215484   0.692   0.227  10.953  0.2818  0.0578 -0.6335
  142SAPE  H12A15485   0.619   0.182  10.883 -2.1503 -0.0073  1.8319
  142SAPE  H12B15486   0.771   0.279  10.896  1.8605 -1.0389  0.5045
  142SAPE   C1115487   0.613   0.325  11.036  0.3705 -1.1672 -1.0120
  142SAPE  H11A15488   0.535   0.276  11.098  2.0419 -0.9420  1.3151
  142SAPE  H11B15489   0.556   0.398  10.975 -0.2701 -0.8729 -0.0595
  142SAPE     P15490   0.797   0.517  11.081 -0.3860  0.0120 -0.1767
  142SAPE   O1315491   0.747   0.643  11.142  0.0459 -0.2975  0.7520
  142SAPE   O1415492   0.937   0.476  11.108 -0.4823  1.1426 -0.2176
  142SAPE   O1215493   0.701   0.395  11.128 -0.1468  0.1999 -0.1323
  142SAPE   O1115494   0.769   0.540  10.921  0.1875  0.2507 -0.6603
  142SAPE    C115495   0.847   0.628  10.844  0.0547 -0.3622  0.1536
  142SAPE    HA15496   0.814   0.734  10.849  0.7156 -0.1121 -0.4752
  142SAPE    HB15497   0.951   0.636  10.882  0.5646 -4.4071 -0.1240
  142SAPE    C215498   0.868   0.586  10.694  0.2824 -0.4910 -0.4076
  142SAPE    HS15499   0.958   0.643  10.660  0.9372 -1.6380 -0.6114
  142SAPE   O2115500   0.754   0.611  10.611 -0.6451 -0.0858  0.1812
  142SAPE   C2115501   0.718   0.736  10.587  0.4268 -0.4758  0.5698
  142SAPE   O2215502   0.786   0.837  10.621  0.1966 -0.1144  0.4897
  142SAPE   C2215503   0.588   0.735  10.510  0.2215  0.3708  0.0393
  142SAPE   H2R15504   0.594   0.671  10.420 -1.5871  0.7694 -0.3884
  142SAPE   H2S15505   0.518   0.681  10.578  0.1773 -1.2209 -1.2613
  142SAPE    C315506   0.913   0.441  10.686  0.0102  1.0360 -0.9018
  142SAPE    HX15507   0.828   0.382  10.726 -0.2019  2.1743  0.3526
  142SAPE    HY15508   1.001   0.436  10.754 -0.9014  1.1002  0.2984
  142SAPE   O3115509   0.958   0.418  10.553  0.0727 -0.1652 -0.1631
  142SAPE   C3115510   0.864   0.362  10.480 -0.4385  0.1503  0.0879
  142SAPE   O3215511   0.750   0.328  10.509 -0.5445 -0.4964 -0.2713
  142SAPE   C3215512   0.930   0.341  10.343 -0.0050 -0.4196  0.0293
  142SAPE   H2X15513   0.900   0.237  10.320  1.4987 -1.2241  1.5997
  142SAPE   H2Y15514   1.041   0.344  10.346 -0.0034 -0.5685  0.0898
  142SAPE   C2315515   0.538   0.873  10.468  0.7643 -0.0908 -0.3943
  142SAPE   H3R15516   0.565   0.935  10.556  0.1601 -0.1925 -0.1372
  142SAPE   H3S15517   0.428   0.876  10.451  1.1399 -3.1073 -4.0255
  142SAPE   C2415518   0.616   0.924  10.347  0.2680 -0.2736  0.6063
  142SAPE   H4R15519   0.581   0.872  10.256  1.5471 -0.4789  0.2244
  142SAPE   H4S15520   0.724   0.896  10.349  0.7001  1.3799  3.5447
  142SAPE   C2515521   0.603   1.070  10.329 -0.4188 -0.3547 -0.1223
  142SAPE   H5R15522   0.651   1.124  10.411  0.7621  0.4626 -1.3207
  142SAPE   C2615523   0.543   1.136  10.226  0.0140  0.8640  0.3159
  142SAPE   H6R15524   0.545   1.246  10.231 -0.9083  0.9012 -0.0444
  142SAPE   C2715525   0.478   1.089  10.101  0.1162 -0.3818 -0.8245
  142SAPE   H7R15526   0.492   0.978  10.100 -0.7146 -0.5252  0.6260
  142SAPE   H7S15527   0.533   1.129  10.014 -0.2659  0.4957 -0.6620
  142SAPE   C2815528   0.326   1.126  10.098 -0.5337 -0.8448 -0.2040
  142SAPE   H8R15529   0.286   1.179  10.186  1.7973  1.7586 -0.6577
  142SAPE   C2915530   0.242   1.082  10.002  0.4620 -0.3189 -0.7562
  142SAPE   H9R15531   0.140   1.125  10.006  0.2618 -0.9436  3.1032
  142SAPE  C21015532   0.256   1.000   9.873 -0.0804 -0.4119 -0.2958
  142SAPE  H10R15533   0.215   0.897   9.889 -0.2345 -0.6624 -2.2662
  142SAPE  H10S15534   0.363   0.982   9.850  0.6363  1.7927  1.2304
  142SAPE  C21115535   0.195   1.078   9.754  0.2224  0.0123 -0.1285
  142SAPE  H11R15536   0.237   1.179   9.746  2.5618 -0.9630 -0.6608
  142SAPE  C21215537   0.114   1.030   9.660 -0.1229  0.2876 -0.1866
  142SAPE  H12R15538   0.073   1.081   9.572  2.0295  1.5968 -0.4525
  142SAPE  C21315539   0.072   0.883   9.660 -0.3839  0.1599  1.0720
  142SAPE  H13R15540   0.134   0.819   9.728  1.9698  0.9014 -0.3155
  142SAPE  H13S15541   0.114   0.834   9.570  1.8066 -1.5732  2.9597
  142SAPE  C21415542  -0.075   0.860   9.666  0.1631 -0.1400 -0.2195
  142SAPE  H14R15543  -0.102   0.822   9.766  3.2192  0.8783  1.0661
  142SAPE  C21515544  -0.168   0.868   9.571  0.5357  0.2171  0.0911
  142SAPE  H15R15545  -0.270   0.842   9.602  0.3137  1.1774  0.1539
  142SAPE  C21615546  -0.130   0.906   9.432  0.4999 -0.1207 -0.8465
  142SAPE  H16R15547  -0.023   0.883   9.410  0.0353 -2.2588 -0.9230
  142SAPE  H16S15548  -0.156   1.011   9.407  0.4259 -0.1176 -0.7563
  142SAPE  C21715549  -0.202   0.821   9.328  0.3797  0.5749 -1.0854
  142SAPE  H17R15550  -0.312   0.826   9.341  0.6929  2.2910  1.1582
  142SAPE  H17S15551  -0.165   0.717   9.344  0.6705  0.6016 -1.5730
  142SAPE  C21815552  -0.189   0.879   9.181  0.5605 -0.0227  0.7109
  142SAPE  H18R15553  -0.082   0.888   9.151 -0.4260 -0.8526 -3.3369
  142SAPE  H18S15554  -0.228   0.982   9.172  1.2546  0.1117 -0.9438
  142SAPE  C21915555  -0.268   0.793   9.080 -0.2073 -0.7566  0.8365
  142SAPE  H19R15556  -0.374   0.781   9.111 -0.6395 -0.4938 -0.4951
  142SAPE  H19S15557  -0.224   0.691   9.077  0.0774 -0.6079 -0.4134
  142SAPE  C22015558  -0.261   0.845   8.932 -0.0097 -0.1956 -0.7550
  142SAPE  H20R15559  -0.154   0.841   8.902  0.6693 -1.5431  1.7177
  142SAPE  H20S15560  -0.300   0.948   8.920 -0.6021 -0.4417 -0.9602
  142SAPE  H20T15561  -0.314   0.774   8.864  1.1649 -1.4926 -0.3475
  142SAPE   C3315562   0.870   0.434  10.235 -0.3619  0.2808  0.2652
  142SAPE   H3X15563   0.760   0.420  10.235 -0.2959 -0.2895  1.2117
  142SAPE   H3Y15564   0.899   0.398  10.134  1.8935 -1.7976  1.5953
  142SAPE   C3415565   0.893   0.583  10.261 -0.1010  0.5309  0.2285
  142SAPE   H4X15566   1.002   0.601  10.273 -0.0492  0.7896 -0.5541
  142SAPE   H4Y15567   0.861   0.617  10.362 -0.7999  2.3155 -0.5618
  142SAPE   C3515568   0.834   0.674  10.152 -0.6416 -0.3438 -0.3626
  142SAPE   H5X15569   0.910   0.676  10.070  1.1861  3.1404  1.2914
  142SAPE   H5Y15570   0.829   0.775  10.198  2.0314 -0.3799  0.0508
  142SAPE   C3615571   0.702   0.638  10.099  0.2849  0.6035 -0.4089
  142SAPE   H6X15572   0.632   0.636  10.186  0.6464 -1.7212 -0.1454
  142SAPE   H6Y15573   0.705   0.532  10.066 -0.2164  0.3808  0.2355
  142SAPE   C3715574   0.646   0.725   9.985 -0.5111 -0.1518 -0.1288
  142SAPE   H7X15575   0.731   0.718   9.913  0.7195  3.1400  0.8951
  142SAPE   H7Y15576   0.639   0.833  10.013 -1.3109 -1.1356  3.7082
  142SAPE   C3815577   0.517   0.666   9.922 -0.1697  0.5552  0.1402
  142SAPE   H8X15578   0.427   0.663   9.988  0.4701 -0.7557  0.9662
  142SAPE   H8Y15579   0.556   0.564   9.905  1.1519  1.0513  0.1566
  142SAPE   C3915580   0.464   0.722   9.784 -0.1777  0.3841 -0.1302
  142SAPE   H9X15581   0.489   0.829   9.772  0.8947 -0.2518 -4.2947
  142SAPE   H9Y15582   0.353   0.717   9.789 -0.0671 -1.2975  1.0778
  142SAPE  C31015583   0.505   0.635   9.668 -0.0875 -0.6586 -0.0883
  142SAPE  H10X15584   0.486   0.528   9.693  0.2281 -0.7769 -0.3372
  142SAPE  H10Y15585   0.615   0.645   9.652  0.2416  1.5591  3.1142
  142SAPE  C31115586   0.433   0.674   9.545  0.4344 -0.5362  0.3648
  142SAPE  H11X15587   0.410   0.782   9.552 -2.1014 -1.0457  0.2736
  142SAPE  H11Y15588   0.329   0.638   9.528 -0.1218  1.5996 -0.9790
  142SAPE  C31215589   0.502   0.668   9.413 -0.4043 -0.2181 -0.3566
  142SAPE  H12X15590   0.523   0.565   9.379  2.3441 -0.5061  2.0571
  142SAPE  H12Y15591   0.599   0.721   9.416 -1.0754  1.0247 -0.0809
  142SAPE  C31315592   0.419   0.730   9.304  0.2433 -0.9158  0.1517
  142SAPE  H13X15593   0.413   0.838   9.331  3.0478 -0.5756 -0.4568
  142SAPE  H13Y15594   0.318   0.684   9.301  0.5357 -1.4473 -1.6107
  142SAPE  C31415595   0.494   0.730   9.169 -0.3119  0.1961  0.3880
  142SAPE  H14X15596   0.587   0.791   9.177  0.1465 -0.5302  0.6297
  142SAPE  H14Y15597   0.426   0.790   9.104  3.6705 -0.8571 -5.1379
  142SAPE  C31515598   0.531   0.590   9.105 -0.5231  0.3419 -0.2549
  142SAPE  H15X15599   0.461   0.510   9.137 -1.1686 -0.2208 -2.9526
  142SAPE  H15Y15600   0.625   0.555   9.154 -1.4658  0.2479  1.5087
  142SAPE  C31615601   0.548   0.586   8.954  0.5702  0.3403  0.3578
  142SAPE  H16X15602   0.642   0.643   8.937  0.3182  0.8287  0.5965
  142SAPE  H16Y15603   0.454   0.635   8.920 -0.8347 -0.2618  3.2246
  142SAPE  C31715604   0.549   0.449   8.884 -0.3358  0.9291  0.4958
  142SAPE  H17X15605   0.450   0.400   8.896  0.1516 -0.6235 -1.5557
  142SAPE  H17Y15606   0.627   0.389   8.936  0.1479  2.3849  1.4780
  142SAPE  C31815607   0.573   0.454   8.733  1.1226 -0.6326 -0.0502
  142SAPE  H18X15608   0.491   0.515   8.689 -0.0643 -2.0238  0.2008
  142SAPE  H18Y15609   0.555   0.350   8.699  0.2889 -0.4812 -0.1004
  142SAPE  H18Z15610   0.675   0.487   8.705  1.1210  0.2507  0.9449
  143SAPE     N15611   1.974   0.489  11.206  0.1745 -0.0038  0.1765
  143SAPE   HN115612   1.978   0.513  11.307 -2.8282 -2.4226  0.9750
  143SAPE   HN215613   1.875   0.467  11.183 -0.3610  0.0612  2.3525
  143SAPE   HN315614   2.031   0.407  11.178 -0.4216  0.5357 -2.9041
  143SAPE   C1215615   2.005   0.605  11.110  0.1545  0.2264 -1.1408
  143SAPE  H12A15616   2.084   0.659  11.166 -0.6298 -0.6191  0.8242
  143SAPE  H12B15617   1.911   0.664  11.099 -0.5361 -0.7019 -0.3227
  143SAPE   C1115618   2.068   0.565  10.985 -0.1374  0.2841 -0.5366
  143SAPE  H11A15619   2.096   0.655  10.926 -1.2831  0.3934 -0.9385
  143SAPE  H11B15620   1.994   0.503  10.929  0.5236  0.3583 -1.5120
  143SAPE     P15621   2.337   0.530  10.998  0.0352  0.3239 -0.0627
  143SAPE   O1315622   2.373   0.627  11.103 -0.1541  0.4543 -0.0637
  143SAPE   O1415623   2.423   0.407  10.990  0.5782 -0.4487 -0.0210
  143SAPE   O1215624   2.188   0.483  11.015 -0.4491  0.1662  0.0697
  143SAPE   O1115625   2.341   0.605  10.856 -0.5494  0.2420 -0.5642
  143SAPE    C115626   2.286   0.550  10.737 -0.7826 -0.7321 -0.5896
  143SAPE    HA15627   2.231   0.455  10.751 -0.9140 -0.3609  1.5411
  143SAPE    HB15628   2.213   0.623  10.696 -0.5606  0.0357  0.3488
  143SAPE    C215629   2.387   0.516  10.627  0.1862  0.0776  0.2886
  143SAPE    HS15630   2.449   0.427  10.652  0.7494  0.5346  0.5035
  143SAPE   O2115631   2.471   0.624  10.600 -0.3356  0.0754  0.1946
  143SAPE   C2115632   2.584   0.641  10.668  0.0311 -0.0706  0.4545
  143SAPE   O2215633   2.619   0.568  10.758  0.0795  0.3385  0.7685
  143SAPE   C2215634   2.669   0.754  10.598 -0.2731  0.2399  0.2554
  143SAPE   H2R15635   2.617   0.851  10.615  1.0817  0.3908  4.0131
  143SAPE   H2S15636   2.757   0.771  10.664  0.8104  0.1477 -1.1487
  143SAPE    C315637   2.315   0.476  10.489  0.3052  1.0146 -0.2082
  143SAPE    HX15638   2.235   0.549  10.464 -0.5646 -0.7100 -2.6616
  143SAPE    HY15639   2.263   0.379  10.504  0.3814  1.3688  2.5895
  143SAPE   O3115640   2.406   0.454  10.372 -0.0828 -0.4323 -0.2980
  143SAPE   C3115641   2.392   0.541  10.274 -0.4067  0.3589 -0.4596
  143SAPE   O3215642   2.297   0.616  10.257  0.0818  0.5470 -0.0667
  143SAPE   C3215643   2.494   0.520  10.170  0.5442  0.3081  0.1551
  143SAPE   H2X15644   2.540   0.420  10.186  0.4818  0.5412  1.9039
  143SAPE   H2Y15645   2.570   0.600  10.166 -1.3544  2.0866 -1.3200
  143SAPE   C2315646   2.696   0.718  10.448 -1.0783  0.7030 -0.1213
  143SAPE   H3R15647   2.773   0.784  10.403 -2.9226  2.6285 -0.5319
  143SAPE   H3S15648   2.610   0.726  10.378  0.0387 -1.1681 -1.7610
  143SAPE   C2415649   2.739   0.568  10.425 -0.0124 -0.6521  0.0368
  143SAPE   H4R15650   2.751   0.563  10.315  0.5053 -1.0791  0.1130
  143SAPE   H4S15651   2.656   0.503  10.461 -0.6645  0.6950  1.0086
  143SAPE   C2515652   2.868   0.532  10.492 -0.0209  0.0184  0.0246
  143SAPE   H5R15653   2.887   0.568  10.594 -1.8393 -1.5864  0.9545
  143SAPE   C2615654   2.959   0.452  10.430 -0.5194  0.5574 -0.8387
  143SAPE   H6R15655   3.052   0.435  10.487 -0.3671  0.4155 -1.1256
  143SAPE   C2715656   2.950   0.383  10.292 -0.3896  0.3730 -0.6568
  143SAPE   H7R15657   3.054   0.347  10.277  0.1130 -0.3021  3.8795
  143SAPE   H7S15658   2.923   0.459  10.214  0.4822 -0.8601 -2.1971
  143SAPE   C2815659   2.875   0.254  10.283  0.3036  0.6126  0.2660
  143SAPE   H8R15660   2.846   0.201  10.375 -1.8112  0.9856 -0.1767
  143SAPE   C2915661   2.819   0.202  10.168 -0.6592  0.1645  0.5360
  143SAPE   H9R15662   2.750   0.117  10.172 -0.8452  0.2943  0.1191
  143SAPE  C21015663   2.826   0.254  10.027 -0.4392 -0.4936  0.2709
  143SAPE  H10R15664   2.913   0.213   9.972 -2.8037 -2.1384 -2.3893
  143SAPE  H10S15665   2.840   0.364  10.033  1.3426 -0.6918  0.0918
  143SAPE  C21115666   2.705   0.212   9.960 -0.0899  0.3648 -0.3076
  143SAPE  H11R15667   2.646   0.135  10.013  3.0150 -1.4298  0.6725
  143SAPE  C21215668   2.652   0.257   9.840 -0.3584 -0.5480  0.5013
  143SAPE  H12R15669   2.574   0.199   9.788 -0.9127  1.3317 -0.8383
  143SAPE  C21315670   2.711   0.368   9.756  0.1776 -0.6499  0.6466
  143SAPE  H13R15671   2.763   0.446   9.814 -1.2996  0.0975  0.9830
  143SAPE  H13S15672   2.633   0.432   9.709  1.0591  0.0860  0.1560
  143SAPE  C21415673   2.799   0.318   9.643  0.6432  0.1022  0.1751
  143SAPE  H14R15674   2.899   0.290   9.680  0.2320 -1.1810  0.3344
  143SAPE  C21515675   2.757   0.315   9.514  1.0106 -0.1187 -0.1408
  143SAPE  H15R15676   2.825   0.270   9.440  1.6615 -1.1018  1.0225
  143SAPE  C21615677   2.623   0.356   9.456  0.6943 -0.4520  0.1185
  143SAPE  H16R15678   2.580   0.443   9.511  1.2722 -0.1394  0.0850
  143SAPE  H16S15679   2.557   0.267   9.454  2.2910 -1.6507 -0.9194
  143SAPE  C21715680   2.629   0.402   9.305 -0.8839 -0.0688 -0.6123
  143SAPE  H17R15681   2.656   0.315   9.241  1.7314 -0.4673  0.9766
  143SAPE  H17S15682   2.711   0.475   9.290  0.1944 -1.8546 -3.9534
  143SAPE  C21815683   2.499   0.461   9.252 -0.3654 -0.2479 -0.3371
  143SAPE  H18R15684   2.467   0.537   9.325  1.7365 -0.7028  1.0897
  143SAPE  H18S15685   2.413   0.390   9.248  0.1030 -0.7874 -1.1509
  143SAPE  C21915686   2.521   0.542   9.120 -0.5049  0.3368  0.6159
  143SAPE  H19R15687   2.613   0.601   9.136 -0.1098 -0.7442  2.4884
  143SAPE  H19S15688   2.438   0.614   9.105  0.1715  0.8138 -0.8856
  143SAPE  C22015689   2.541   0.445   9.007 -0.3576  0.4914  0.3694
  143SAPE  H20R15690   2.444   0.391   9.000  0.0322 -0.0902 -0.7067
  143SAPE  H20S15691   2.617   0.368   9.033 -0.7079  0.0678  0.1488
  143SAPE  H20T15692   2.547   0.497   8.909  0.3096  2.2615  1.3338
  143SAPE   C3315693   2.434   0.515  10.025  0.8164  0.0315  0.0489
  143SAPE   H3X15694   2.520   0.472   9.969  1.4682 -0.6171  1.5098
  143SAPE   H3Y15695   2.409   0.615   9.985  2.2145  0.6468  0.6600
  143SAPE   C3415696   2.313   0.419  10.001 -0.1225 -0.5542 -0.3370
  143SAPE   H4X15697   2.221   0.453  10.052 -0.2440 -2.1037  0.4845
  143SAPE   H4Y15698   2.334   0.315  10.035  0.8161 -1.2394 -2.8523
  143SAPE   C3515699   2.270   0.414   9.855 -0.2412 -0.3384 -0.5442
  143SAPE   H5X15700   2.345   0.372   9.784 -0.0683  0.8733 -1.0901
  143SAPE   H5Y15701   2.236   0.518   9.835 -1.5340 -0.2940  1.7460
  143SAPE   C3615702   2.132   0.336   9.828 -1.4059 -0.5453  0.2588
  143SAPE   H6X15703   2.082   0.361   9.924 -2.5530  0.4865 -0.5849
  143SAPE   H6Y15704   2.144   0.227   9.816 -0.1754 -0.3555 -0.2961
  143SAPE   C3715705   2.041   0.397   9.711 -0.4225  0.3210 -0.0585
  143SAPE   H7X15706   2.027   0.506   9.727 -1.1583  0.2386 -0.1121
  143SAPE   H7Y15707   1.946   0.340   9.705 -0.4978  0.5079 -0.6837
  143SAPE   C3815708   2.115   0.364   9.580  0.5088  0.1371  0.2213
  143SAPE   H8X15709   2.112   0.254   9.568  2.3142  0.1389 -0.3161
  143SAPE   H8Y15710   2.223   0.392   9.580  0.2344  1.2166  0.1334
  143SAPE   C3915711   2.041   0.422   9.465 -0.4443 -0.4105 -0.0137
  143SAPE   H9X15712   2.041   0.533   9.470  0.1700 -0.4890  2.1525
  143SAPE   H9Y15713   1.934   0.394   9.476 -1.1319  2.4352  1.1396
  143SAPE  C31015714   2.082   0.372   9.325 -0.1663 -0.0304 -0.6539
  143SAPE  H10X15715   2.098   0.262   9.332 -0.0248  0.1123  1.8946
  143SAPE  H10Y15716   2.178   0.420   9.296 -0.2214  0.5930  0.1840
  143SAPE  C31115717   1.979   0.390   9.212 -0.2677  0.0497 -0.0092
  143SAPE  H11X15718   1.967   0.494   9.175  0.4836 -0.4430 -1.6774
  143SAPE  H11Y15719   1.874   0.362   9.236 -0.3502  2.0640  2.1202
  143SAPE  C31215720   2.004   0.292   9.093 -0.1718 -0.6555 -0.0574
  143SAPE  H12X15721   1.995   0.186   9.124 -0.3168 -0.9036 -0.9329
  143SAPE  H12Y15722   2.106   0.325   9.067 -0.3923  0.3631  0.3175
  143SAPE  C31315723   1.903   0.322   8.986 -0.7317 -0.4341 -0.0557
  143SAPE  H13X15724   1.897   0.432   8.967 -0.6415 -1.1008 -4.3254
  143SAPE  H13Y15725   1.800   0.302   9.021 -0.1141 -0.4813  1.7845
  143SAPE  C31415726   1.931   0.248   8.854  0.1343  0.1522  0.5052
  143SAPE  H14X15727   1.936   0.141   8.882  3.1074 -0.4795 -2.1406
  143SAPE  H14Y15728   2.034   0.273   8.819  0.1698 -1.1801 -0.3523
  143SAPE  C31515729   1.829   0.270   8.742  0.2522  0.2534  0.3134
  143SAPE  H15X15730   1.833   0.369   8.691 -0.7576 -0.7128 -1.6808
  143SAPE  H15Y15731   1.731   0.274   8.794  0.3540 -0.1186  0.5363
  143SAPE  C31615732   1.825   0.164   8.634 -0.0257  0.2905 -0.5256
  143SAPE  H16X15733   1.724   0.169   8.586 -0.3153 -1.3623 -0.1266
  143SAPE  H16Y15734   1.838   0.064   8.679 -1.6375  1.1029  1.8472
  143SAPE  C31715735   1.940   0.196   8.528  0.0801 -0.4008 -0.9402
  143SAPE  H17X15736   2.041   0.175   8.570 -0.3438  1.5140  1.1322
  143SAPE  H17Y15737   1.953   0.305   8.510 -0.9744 -0.0068  0.5054
  143SAPE  C31815738   1.914   0.129   8.392 -0.4806 -0.3332 -0.2451
  143SAPE  H18X15739   1.979   0.181   8.319 -3.6987  1.3366 -2.0518
  143SAPE  H18Y15740   1.808   0.146   8.361 -0.6365 -0.5306  0.1726
  143SAPE  H18Z15741   1.932   0.020   8.399  1.8774  0.0333 -0.3761
  144SAPE     N15742   4.899   5.396  11.069 -0.9323 -0.3319  0.0156
  144SAPE   HN115743   4.825   5.403  10.996 -1.2160  1.3411  0.4305
  144SAPE   HN215744   4.977   5.340  11.030  0.0362  1.3377 -0.5269
  144SAPE   HN315745   4.869   5.343  11.153  1.1614 -0.0012  0.9885
  144SAPE   C1215746   4.965   5.516  11.122  0.5728 -0.0885 -0.2750
  144SAPE  H12A15747   5.040   5.485  11.198  0.3407 -1.9467 -0.7814
  144SAPE  H12B15748   4.886   5.575  11.173  0.5951 -0.7930  0.5772
  144SAPE   C1115749   5.018   5.613  11.009 -0.3636  1.0184 -0.3732
  144SAPE  H11A15750   5.047   5.707  11.061 -3.0924  0.8406  1.6343
  144SAPE  H11B15751   4.938   5.625  10.933 -2.4705 -1.9967  1.2395
  144SAPE     P15752   5.150   5.463  10.839 -0.0510 -0.2031  0.1299
  144SAPE   O1315753   5.285   5.472  10.770 -0.2144  0.4795 -0.0871
  144SAPE   O1415754   5.110   5.326  10.884 -0.2293 -0.2711  1.1351
  144SAPE   O1215755   5.135   5.561  10.950  0.0801 -0.3874 -0.1444
  144SAPE   O1115756   5.038   5.515  10.736  0.1623  0.2454  0.9495
  144SAPE    C115757   5.052   5.636  10.661  0.4820 -0.2523 -0.5501
  144SAPE    HA15758   5.057   5.729  10.721 -3.4603 -0.3194 -0.0423
  144SAPE    HB15759   5.146   5.638  10.600  1.2431 -2.2439  0.5022
  144SAPE    C215760   4.935   5.666  10.558  0.8197  0.3998  0.6232
  144SAPE    HS15761   4.849   5.698  10.621  0.4508  0.3773  0.1338
  144SAPE   O2115762   4.887   5.551  10.480  0.8786 -0.0102  0.0642
  144SAPE   C2115763   4.970   5.482  10.403  0.2033  0.2773 -0.1368
  144SAPE   O2215764   5.093   5.484  10.401  0.2137 -0.3008 -0.1140
  144SAPE   C2215765   4.879   5.404  10.311  0.1933 -0.1033  1.4652
  144SAPE   H2R15766   4.869   5.307  10.365 -1.0122 -0.2192  1.0584
  144SAPE   H2S15767   4.779   5.450  10.325  0.3805  0.5751  0.5760
  144SAPE    C315768   4.965   5.781  10.461 -0.3572 -0.1269  0.1936
  144SAPE    HX15769   5.071   5.773  10.428 -1.0060  0.5812 -2.1880
  144SAPE    HY15770   4.967   5.877  10.517  1.0095 -0.4285  0.6775
  144SAPE   O3115771   4.883   5.778  10.338  0.6364 -0.0125  0.3198
  144SAPE   C3115772   4.754   5.809  10.375 -0.1445 -1.2482 -0.5846
  144SAPE   O3215773   4.723   5.867  10.477  0.0189 -0.0107  0.1437
  144SAPE   C3215774   4.647   5.759  10.281  0.5202  0.4034  0.1990
  144SAPE   H2X15775   4.554   5.818  10.293 -0.2254 -1.0144  1.4895
  144SAPE   H2Y15776   4.624   5.654  10.307 -1.1794 -0.2780 -3.6488
  144SAPE   C2315777   4.925   5.410  10.159 -0.7594  1.1230  0.2533
  144SAPE   H3R15778   4.954   5.512  10.127  0.7450  0.3886 -0.7612
  144SAPE   H3S15779   4.844   5.387  10.087 -1.6228  2.0814  0.9080
  144SAPE   C2415780   5.040   5.317  10.134 -0.2592  0.4942  0.6202
  144SAPE   H4R15781   5.123   5.342  10.203  0.4706 -0.6276  0.1628
  144SAPE   H4S15782   5.092   5.342  10.039 -0.6193  0.6384  0.4553
  144SAPE   C2515783   5.003   5.172  10.132 -0.4802 -0.4052  0.2948
  144SAPE   H5R15784   5.008   5.127  10.232  0.3584 -0.2245  0.3316
  144SAPE   C2615785   4.969   5.098  10.024 -0.2260 -0.2908 -0.2330
  144SAPE   H6R15786   4.947   4.993  10.048  0.5995 -0.7899 -1.5863
  144SAPE   C2715787   4.961   5.142   9.877  0.1176 -0.0550 -0.1066
  144SAPE   H7R15788   5.053   5.105   9.828  0.2919  1.4744 -0.9558
  144SAPE   H7S15789   4.969   5.253   9.881 -0.9831  0.0623 -0.7793
  144SAPE   C2815790   4.832   5.102   9.806  1.1400 -0.0510  0.4030
  144SAPE   H8R15791   4.744   5.110   9.872 -0.0591 -1.9464 -0.8909
  144SAPE   C2915792   4.809   5.038   9.686  0.4949 -0.0881 -0.5235
  144SAPE   H9R15793   4.703   5.024   9.659  0.2307  2.4720 -0.9337
  144SAPE  C21015794   4.911   4.995   9.583 -0.6245  0.0654  0.1970
  144SAPE  H10R15795   5.012   5.034   9.608  0.1508  0.6560 -3.5625
  144SAPE  H10S15796   4.881   5.031   9.482 -1.0290 -1.4635 -0.2373
  144SAPE  C21115797   4.918   4.840   9.592 -0.2276 -0.5922 -0.6125
  144SAPE  H11R15798   4.904   4.800   9.694  0.1106  1.8392  0.4219
  144SAPE  C21215799   4.940   4.748   9.493  0.2433  0.1820 -0.5225
  144SAPE  H12R15800   4.948   4.643   9.525  0.8936 -0.0854 -1.5469
  144SAPE  C21315801   4.975   4.778   9.345 -0.2027  0.6629  0.2857
  144SAPE  H13R15802   5.058   4.713   9.310 -0.8342  0.6621 -1.2529
  144SAPE  H13S15803   5.002   4.886   9.344  0.0026  0.6142  0.6423
  144SAPE  C21415804   4.856   4.762   9.250 -0.6942  0.3447  0.0744
  144SAPE  H14R15805   4.757   4.731   9.288 -0.7538  1.6319  1.0062
  144SAPE  C21515806   4.865   4.790   9.119  0.0658  0.1443  0.2528
  144SAPE  H15R15807   4.777   4.804   9.055  0.1080  0.9545  0.3711
  144SAPE  C21615808   4.982   4.847   9.052 -0.3998 -0.5049 -0.9543
  144SAPE  H16R15809   5.039   4.916   9.118 -1.7618  0.9489 -1.2542
  144SAPE  H16S15810   4.946   4.909   8.967  0.6959  1.5451  0.0491
  144SAPE  C21715811   5.091   4.760   8.995 -0.0532 -0.2188 -1.0564
  144SAPE  H17R15812   5.038   4.669   8.960 -0.3157 -1.2292  1.7628
  144SAPE  H17S15813   5.151   4.731   9.084 -1.9776  2.2944  1.1388
  144SAPE  C21815814   5.187   4.818   8.887 -0.3669 -0.4330 -0.5540
  144SAPE  H18R15815   5.239   4.910   8.921 -0.0768 -0.4662 -0.9092
  144SAPE  H18S15816   5.128   4.853   8.799 -1.8488  2.4433  1.5121
  144SAPE  C21915817   5.291   4.714   8.830 -0.1045  0.3268  0.1097
  144SAPE  H19R15818   5.230   4.630   8.789  0.9634  0.3980 -1.6781
  144SAPE  H19S15819   5.358   4.675   8.909 -1.2801 -1.3539  0.3145
  144SAPE  C22015820   5.380   4.762   8.716 -0.3708  0.3892  0.3400
  144SAPE  H20R15821   5.435   4.854   8.749 -1.3950  1.6186 -1.2991
  144SAPE  H20S15822   5.327   4.798   8.625  1.8438  0.4067 -0.9984
  144SAPE  H20T15823   5.453   4.682   8.690 -1.1488 -0.1775 -0.1280
  144SAPE   C3315824   4.689   5.771  10.130 -0.0460  0.6351 -0.2781
  144SAPE   H3X15825   4.781   5.711  10.110  0.3262  0.8267  0.8161
  144SAPE   H3Y15826   4.701   5.877  10.100 -0.3305  0.6680 -0.2678
  144SAPE   C3415827   4.580   5.705  10.052 -0.0347 -0.4230 -0.0140
  144SAPE   H4X15828   4.488   5.767  10.057  0.5153  0.6131 -2.1533
  144SAPE   H4Y15829   4.544   5.611  10.098  0.7400 -0.9033 -0.3674
  144SAPE   C3515830   4.604   5.671   9.914  0.0280 -0.3085  0.1644
  144SAPE   H5X15831   4.664   5.578   9.906 -1.0834 -1.0971  0.9271
  144SAPE   H5Y15832   4.661   5.748   9.856 -0.3062  0.2787  0.6061
  144SAPE   C3615833   4.470   5.670   9.832 -0.2112 -0.5259  0.4108
  144SAPE   H6X15834   4.407   5.760   9.847  1.2879  0.7336 -0.6619
  144SAPE   H6Y15835   4.402   5.590   9.868  1.6140 -1.6172  1.5287
  144SAPE   C3715836   4.494   5.653   9.687  0.3621  0.5181  0.8886
  144SAPE   H7X15837   4.542   5.748   9.653  0.2503  0.4453  0.5178
  144SAPE   H7Y15838   4.390   5.646   9.648  1.0154  1.3720 -1.1115
  144SAPE   C3815839   4.577   5.526   9.644  0.9870  0.2446 -1.0233
  144SAPE   H8X15840   4.516   5.444   9.687  1.4833 -0.1184 -1.0107
  144SAPE   H8Y15841   4.675   5.530   9.695  0.9655 -1.2185 -0.8356
  144SAPE   C3915842   4.588   5.494   9.494 -0.2254 -0.1974  1.1007
  144SAPE   H9X15843   4.666   5.558   9.448  1.2700 -1.4138  1.9165
  144SAPE   H9Y15844   4.498   5.511   9.431 -0.2507 -3.4016  0.2102
  144SAPE  C31015845   4.635   5.349   9.474 -0.2698 -0.9828  0.2060
  144SAPE  H10X15846   4.568   5.277   9.526 -1.2869 -1.4892 -1.7512
  144SAPE  H10Y15847   4.726   5.334   9.536  0.7209 -1.7332 -1.4047
  144SAPE  C31115848   4.650   5.318   9.323 -0.1200  0.0931  0.7885
  144SAPE  H11X15849   4.727   5.391   9.289  0.6343 -0.7478  0.6600
  144SAPE  H11Y15850   4.554   5.326   9.268 -0.5215 -1.3723  1.2641
  144SAPE  C31215851   4.727   5.186   9.293  0.4667 -0.3312 -0.0299
  144SAPE  H12X15852   4.664   5.097   9.315  0.5427 -0.3806 -0.0148
  144SAPE  H12Y15853   4.817   5.187   9.358  0.2483  0.8431  0.2744
  144SAPE  C31315854   4.784   5.159   9.152  0.3556  0.3666  0.4009
  144SAPE  H13X15855   4.832   5.059   9.149 -1.5627 -0.5624 -0.1010
  144SAPE  H13Y15856   4.861   5.237   9.143 -0.5868  1.0325 -2.1406
  144SAPE  C31415857   4.666   5.151   9.056  0.0003  0.1485 -0.0245
  144SAPE  H14X15858   4.607   5.243   9.081  1.3169  1.2493 -0.8775
  144SAPE  H14Y15859   4.597   5.072   9.092 -0.4213 -0.1411 -1.4149
  144SAPE  C31515860   4.704   5.128   8.914  0.1547 -0.3916 -0.5630
  144SAPE  H15X15861   4.763   5.034   8.902  1.9218  0.7393 -0.9795
  144SAPE  H15Y15862   4.774   5.211   8.894  0.4830 -0.6408 -0.4565
  144SAPE  C31615863   4.578   5.139   8.826  0.6347 -0.6565  0.1766
  144SAPE  H16X15864   4.545   5.245   8.821 -2.0426 -1.4592  0.2829
  144SAPE  H16Y15865   4.505   5.063   8.861 -0.9365 -0.4478 -2.5694
  144SAPE  C31715866   4.608   5.091   8.690  0.0452  0.3892 -0.5075
  144SAPE  H17X15867   4.512   5.074   8.637  0.7625  0.7364 -1.9500
  144SAPE  H17Y15868   4.667   4.998   8.698  0.3966  0.6511 -0.0022
  144SAPE  C31815869   4.680   5.202   8.605 -0.5007  0.2071 -0.0706
  144SAPE  H18X15870   4.713   5.151   8.512  1.0924  0.1660  0.5151
  144SAPE  H18Y15871   4.774   5.218   8.662  0.0717 -0.8074 -0.7168
  144SAPE  H18Z15872   4.623   5.297   8.602 -0.6281  0.1449  0.3757
  145SAPE     N15873   1.866   6.153  11.214  0.2328 -0.2447 -0.5294
  145SAPE   HN115874   1.893   6.164  11.313  1.5333 -1.7847 -0.6925
  145SAPE   HN215875   1.837   6.053  11.213 -1.6351  0.2655  0.5385
  145SAPE   HN315876   1.952   6.162  11.157  0.2723  0.2279 -0.3957
  145SAPE   C1215877   1.745   6.236  11.171 -0.5212 -0.0602 -1.3040
  145SAPE  H12A15878   1.675   6.253  11.255  2.4112 -1.3375  1.5035
  145SAPE  H12B15879   1.708   6.186  11.079  2.9675 -0.1158 -2.7505
  145SAPE   C1115880   1.807   6.374  11.128  0.4033  0.1654  0.4214
  145SAPE  H11A15881   1.729   6.434  11.076  0.2913 -0.0703  0.3199
  145SAPE  H11B15882   1.883   6.358  11.049  0.1716  0.1009  0.2146
  145SAPE     P15883   1.802   6.571  11.316 -0.3075  0.5461 -0.3485
  145SAPE   O1315884   1.666   6.530  11.363  0.1989  0.5794 -0.2754
  145SAPE   O1415885   1.896   6.619  11.419 -0.4190 -0.5645  0.2899
  145SAPE   O1215886   1.869   6.448  11.237 -0.3838  0.2502 -0.3853
  145SAPE   O1115887   1.798   6.686  11.210 -0.2546  0.2383  0.6723
  145SAPE    C115888   1.906   6.755  11.159  0.3522  0.2131  0.6411
  145SAPE    HA15889   1.900   6.859  11.199 -0.7173 -0.6278  2.6909
  145SAPE    HB15890   2.009   6.712  11.167  0.1847  0.2346  3.2176
  145SAPE    C215891   1.895   6.779  11.004  0.2502  0.2519 -0.5631
  145SAPE    HS15892   1.979   6.842  10.967  0.0949 -0.8712 -2.9059
  145SAPE   O2115893   1.767   6.843  10.982 -0.7083 -0.4546 -0.2166
  145SAPE   C2115894   1.750   6.926  10.880  0.7026 -0.1642  0.4326
  145SAPE   O2215895   1.835   6.949  10.798 -0.3296 -0.4043 -0.2641
  145SAPE   C2215896   1.605   6.979  10.889  0.2693  0.1891  0.1442
  145SAPE   H2R15897   1.551   6.887  10.920  0.7387 -0.2560 -0.3525
  145SAPE   H2S15898   1.608   7.055  10.970  3.4558 -0.8746  1.0724
  145SAPE    C315899   1.898   6.639  10.930 -0.1695 -0.3763  0.3944
  145SAPE    HX15900   1.802   6.585  10.947  0.0824 -1.2560 -0.9202
  145SAPE    HY15901   1.984   6.580  10.969 -1.1987 -2.0284  0.2024
  145SAPE   O3115902   1.923   6.659  10.787 -0.0109 -0.6034  0.3846
  145SAPE   C3115903   1.866   6.569  10.703 -0.0588 -0.6067  0.1178
  145SAPE   O3215904   1.827   6.460  10.747  0.3678 -0.1761 -0.0877
  145SAPE   C3215905   1.899   6.605  10.561  0.4792 -0.1735  0.4756
  145SAPE   H2X15906   2.010   6.597  10.550  0.4430 -2.3487  1.4047
  145SAPE   H2Y15907   1.867   6.708  10.534  0.1918 -0.1085  1.0680
  145SAPE   C2315908   1.548   7.035  10.761  0.4691 -0.4563 -0.6877
  145SAPE   H3R15909   1.603   7.129  10.738 -2.6807  1.2207 -1.5956
  145SAPE   H3S15910   1.445   7.060  10.795  0.6393 -1.5494  0.6758
  145SAPE   C2415911   1.547   6.950  10.626  0.1512 -0.1365  0.1990
  145SAPE   H4R15912   1.651   6.924  10.594  0.2479 -0.1871  0.5484
  145SAPE   H4S15913   1.497   7.022  10.558 -0.9963  1.2309  2.4397
  145SAPE   C2515914   1.470   6.824  10.636 -0.5991 -0.2105  0.2142
  145SAPE   H5R15915   1.440   6.781  10.733 -2.0852 -2.3116 -1.1482
  145SAPE   C2615916   1.440   6.754  10.525  0.9339 -0.4560  0.1282
  145SAPE   H6R15917   1.384   6.661  10.543  0.9305 -0.5716 -0.4915
  145SAPE   C2715918   1.455   6.797  10.382  0.6147  0.1890 -0.2023
  145SAPE   H7R15919   1.531   6.876  10.364  0.1335  1.2459  2.2115
  145SAPE   H7S15920   1.360   6.841  10.346 -0.2883 -2.0052 -0.5672
  145SAPE   C2815921   1.492   6.682  10.284  1.5065  0.2485  0.0818
  145SAPE   H8R15922   1.597   6.669  10.252  1.0599  0.8593 -1.6531
  145SAPE   C2915923   1.402   6.590  10.229 -0.2397 -0.2158  0.2505
  145SAPE   H9R15924   1.437   6.514  10.158  3.6249  2.5740 -1.0102
  145SAPE  C21015925   1.253   6.600  10.253  0.2769 -0.3846  0.0711
  145SAPE  H10R15926   1.252   6.653  10.350  1.6650  1.1243 -0.7095
  145SAPE  H10S15927   1.199   6.503  10.256 -0.2696 -0.0489  1.5151
  145SAPE  C21115928   1.176   6.687  10.152  0.1564 -0.9209 -1.2994
  145SAPE  H11R15929   1.132   6.778  10.195  5.1498  0.5676  1.0357
  145SAPE  C21215930   1.165   6.665  10.018  0.5275  0.2392  0.8120
  145SAPE  H12R15931   1.115   6.739   9.954  0.9745  0.5772  0.8555
  145SAPE  C21315932   1.220   6.547   9.942  0.2609  0.8071  0.3300
  145SAPE  H13R15933   1.144   6.518   9.867 -2.7696  1.1217  3.1274
  145SAPE  H13S15934   1.221   6.453  10.002 -1.7777  1.3118  1.2098
  145SAPE  C21415935   1.334   6.591   9.870  0.0919 -0.5154  0.2998
  145SAPE  H14R15936   1.322   6.691   9.827 -0.3954 -0.8274 -0.3143
  145SAPE  C21515937   1.442   6.515   9.843  0.1552  0.1551  0.9105
  145SAPE  H15R15938   1.528   6.551   9.784  2.2881 -3.8048  1.4393
  145SAPE  C21615939   1.459   6.371   9.877 -0.5761 -0.3163 -0.7035
  145SAPE  H16R15940   1.398   6.340   9.964  0.2743  0.4980  0.1822
  145SAPE  H16S15941   1.563   6.350   9.908 -1.4614 -0.1722  2.5790
  145SAPE  C21715942   1.419   6.273   9.760  0.2102  0.3396 -0.5108
  145SAPE  H17R15943   1.313   6.291   9.733  0.4425  1.1987 -0.8737
  145SAPE  H17S15944   1.431   6.171   9.802 -1.2219  0.7231  0.8378
  145SAPE  C21815945   1.490   6.288   9.633  0.1138  0.0202 -0.0943
  145SAPE  H18R15946   1.436   6.372   9.585 -0.6125 -0.0410  0.6122
  145SAPE  H18S15947   1.475   6.196   9.572 -1.8029  0.8736 -0.9378
  145SAPE  C21915948   1.641   6.311   9.639 -0.3295  0.2153  0.2680
  145SAPE  H19R15949   1.677   6.224   9.697 -3.1831  0.2336  2.1871
  145SAPE  H19S15950   1.673   6.402   9.694 -2.2971 -0.0646  1.9484
  145SAPE  C22015951   1.708   6.313   9.506  0.5517 -0.8104  0.0067
  145SAPE  H20R15952   1.816   6.318   9.531  0.7304 -1.4785 -0.5888
  145SAPE  H20S15953   1.683   6.404   9.448  0.3458 -0.5129  0.5598
  145SAPE  H20T15954   1.683   6.217   9.454 -1.5296 -1.8129  2.7684
  145SAPE   C3315955   1.827   6.504  10.461  0.0320 -0.4016  0.5180
  145SAPE   H3X15956   1.719   6.519  10.479  0.0505 -0.8192  0.9841
  145SAPE   H3Y15957   1.860   6.400  10.479  3.2878  0.5780  0.4916
  145SAPE   C3415958   1.866   6.558  10.322  0.1684 -0.0635 -0.2288
  145SAPE   H4X15959   1.976   6.565  10.317  0.0971  0.5837 -1.0107
  145SAPE   H4Y15960   1.817   6.655  10.299 -1.8632 -0.4059  2.4242
  145SAPE   C3515961   1.832   6.462  10.214 -0.4748  0.3264  0.2128
  145SAPE   H5X15962   1.841   6.512  10.115  1.3716  0.2641  0.3201
  145SAPE   H5Y15963   1.725   6.433  10.213 -1.4554  3.7826 -0.0814
  145SAPE   C3615964   1.923   6.337  10.208 -0.0535 -0.5125 -0.7857
  145SAPE   H6X15965   1.920   6.279  10.303  0.3499  0.5408 -0.1210
  145SAPE   H6Y15966   2.024   6.382  10.212  0.4151 -1.5878 -0.3307
  145SAPE   C3715967   1.906   6.244  10.087  0.4742  0.0117 -0.3628
  145SAPE   H7X15968   1.803   6.207  10.103  0.4998  0.4986  1.0126
  145SAPE   H7Y15969   1.969   6.152  10.095  0.9182  0.3887  0.6257
  145SAPE   C3815970   1.909   6.308   9.948 -0.2015  1.2517  0.3287
  145SAPE   H8X15971   1.814   6.364   9.938 -0.1645  1.0996 -0.9830
  145SAPE   H8Y15972   1.913   6.224   9.875 -3.8683 -1.4244  3.0197
  145SAPE   C3915973   2.013   6.400   9.914  0.3837 -0.2175 -0.4096
  145SAPE   H9X15974   2.114   6.356   9.929 -0.4607 -2.2237 -0.4093
  145SAPE   H9Y15975   2.006   6.495   9.971  1.5811  0.1770 -0.9198
  145SAPE  C31015976   2.019   6.428   9.761  0.3295 -0.6434  0.4574
  145SAPE  H10X15977   2.074   6.524   9.749 -1.5526  0.5088  0.9510
  145SAPE  H10Y15978   1.913   6.434   9.729  0.6298 -1.3058 -0.6793
  145SAPE  C31115979   2.094   6.330   9.665  0.0733  0.0391  0.2868
  145SAPE  H11X15980   2.046   6.231   9.655  2.0793 -0.9359  0.0576
  145SAPE  H11Y15981   2.196   6.303   9.699  0.7719 -1.5241 -2.8500
  145SAPE  C31215982   2.088   6.386   9.520 -0.0361  0.6877  0.5939
  145SAPE  H12X15983   2.159   6.469   9.504  0.9947  0.4730  3.8112
  145SAPE  H12Y15984   1.991   6.437   9.502 -0.6943 -0.7213  0.0708
  145SAPE  C31315985   2.115   6.278   9.422  0.4903 -0.0702 -0.0957
  145SAPE  H13X15986   2.038   6.198   9.428 -0.6423  1.1246  2.2341
  145SAPE  H13Y15987   2.210   6.225   9.442 -0.0292 -0.4946  1.2975
  145SAPE  C31415988   2.118   6.324   9.273  0.5158 -0.2294 -0.3016
  145SAPE  H14X15989   2.160   6.235   9.222  0.0791 -1.1177  0.8609
  145SAPE  H14Y15990   2.190   6.409   9.263  0.3156 -0.0482 -0.2093
  145SAPE  C31515991   1.980   6.354   9.216  0.0801 -0.3124 -1.3113
  145SAPE  H15X15992   1.998   6.434   9.141 -1.1269  0.1781 -1.0839
  145SAPE  H15Y15993   1.921   6.407   9.293  0.8269  0.0494 -0.9926
  145SAPE  C31615994   1.905   6.243   9.142  0.0776  0.2746 -0.5326
  145SAPE  H16X15995   1.865   6.167   9.212 -0.5306  0.8780 -0.2159
  145SAPE  H16Y15996   1.977   6.206   9.066  1.2404  1.1517  0.1376
  145SAPE  C31715997   1.777   6.299   9.063 -0.3902 -0.3324  0.1811
  145SAPE  H17X15998   1.805   6.392   9.008  0.0454 -1.7380 -2.0151
  145SAPE  H17Y15999   1.711   6.337   9.144 -1.9105 -1.6450 -0.4270
  145SAPE  C31816000   1.698   6.194   8.988  0.3007 -1.0103  0.2212
  145SAPE  H18X16001   1.757   6.139   8.911  1.3890  2.1926 -1.3289
  145SAPE  H18Y16002   1.613   6.245   8.938  1.4098  1.9619  1.2659
  145SAPE  H18Z16003   1.657   6.120   9.059 -1.4940 -1.1584 -0.9478
  146SAPE     N16004   5.931   5.544  10.749 -0.2095 -0.9187  0.1893
  146SAPE   HN116005   5.960   5.459  10.800  2.6587  1.1200  2.1150
  146SAPE   HN216006   5.846   5.577  10.800  1.9199  3.0962  1.3436
  146SAPE   HN316007   5.896   5.509  10.657  0.7915 -0.5093 -0.3569
  146SAPE   C1216008   6.038   5.649  10.732  0.8741  0.7980  0.1583
  146SAPE  H12A16009   6.002   5.738  10.675 -2.8653 -1.0304 -0.5419
  146SAPE  H12B16010   6.112   5.609  10.660  0.7011  2.9396 -1.2719
  146SAPE   C1116011   6.109   5.665  10.869  0.4628  0.1343 -0.5065
  146SAPE  H11A16012   6.212   5.700  10.849 -0.0307  1.2633 -1.1545
  146SAPE  H11B16013   6.112   5.565  10.917  0.5513  1.3004  1.9705
  146SAPE     P16014   5.982   5.899  10.935 -0.3107 -0.2604  0.2089
  146SAPE   O1316015   5.859   5.890  10.860 -0.0183 -0.2089 -0.3188
  146SAPE   O1416016   5.989   5.973  11.066 -0.0642 -0.3702 -0.5697
  146SAPE   O1216017   6.030   5.751  10.958  0.2563 -0.1182  0.6236
  146SAPE   O1116018   6.107   5.949  10.851 -0.2729  0.0786 -0.4500
  146SAPE    C116019   6.117   6.029  10.731  0.4044 -0.3829 -0.3514
  146SAPE    HA16020   6.021   6.041  10.676  1.1279  3.7306 -0.8407
  146SAPE    HB16021   6.159   6.124  10.770  0.7905 -0.5804 -0.2853
  146SAPE    C216022   6.212   5.964  10.623  0.7546  0.3492 -0.4900
  146SAPE    HS16023   6.147   5.882  10.586  0.0129 -0.1303  1.7547
  146SAPE   O2116024   6.327   5.911  10.686 -0.2536 -0.0808 -0.2359
  146SAPE   C2116025   6.390   5.816  10.633  0.3332  0.6976 -0.6140
  146SAPE   O2216026   6.360   5.753  10.532 -0.2387  0.5620  0.3390
  146SAPE   C2216027   6.513   5.801  10.719  0.5703  0.5100 -0.2634
  146SAPE   H2R16028   6.563   5.897  10.746  2.1976 -0.3026 -0.3236
  146SAPE   H2S16029   6.499   5.741  10.811  3.7314  0.9543  0.5602
  146SAPE    C316030   6.247   6.065  10.511 -0.2387  0.9258 -0.2667
  146SAPE    HX16031   6.299   6.158  10.546  0.3878  0.2547  0.6107
  146SAPE    HY16032   6.155   6.109  10.466  0.6728  0.9850 -2.1254
  146SAPE   O3116033   6.320   6.016  10.397 -0.2921 -0.1604 -0.2917
  146SAPE   C3116034   6.261   5.925  10.333 -0.0810 -0.0036  0.2732
  146SAPE   O3216035   6.144   5.885  10.348 -0.4406  0.5223 -0.5900
  146SAPE   C3216036   6.352   5.879  10.220  0.1665 -0.8874 -0.3937
  146SAPE   H2X16037   6.334   5.770  10.208 -0.4559 -0.9527  1.0798
  146SAPE   H2Y16038   6.457   5.899  10.249  1.1891 -1.9824 -3.1723
  146SAPE   C2316039   6.626   5.722  10.644 -0.0269 -0.1238  0.0960
  146SAPE   H3R16040   6.589   5.628  10.597  1.9645 -0.3281 -1.1015
  146SAPE   H3S16041   6.705   5.684  10.713  0.3691  0.5678  0.0267
  146SAPE   C2416042   6.701   5.801  10.537 -0.2939 -0.5157 -0.8219
  146SAPE   H4R16043   6.628   5.817  10.454  1.5546 -0.9834 -2.5828
  146SAPE   H4S16044   6.783   5.739  10.495  1.6721  2.2912 -1.2486
  146SAPE   C2516045   6.774   5.919  10.605 -0.1761 -0.2849 -0.2962
  146SAPE   H5R16046   6.815   5.889  10.703 -0.8759  0.6138  0.2788
  146SAPE   C2616047   6.769   6.045  10.570 -0.2441  0.6349  0.2461
  146SAPE   H6R16048   6.827   6.116  10.632 -0.1097  1.6014 -0.9753
  146SAPE   C2716049   6.692   6.104  10.455  0.4746  0.3018 -0.3473
  146SAPE   H7R16050   6.618   6.175  10.497  1.2039  0.8533  0.0337
  146SAPE   H7S16051   6.640   6.026  10.396  1.1359 -0.2910 -0.1517
  146SAPE   C2816052   6.772   6.187  10.360 -0.1860 -0.1494 -0.5243
  146SAPE   H8R16053   6.812   6.275  10.414 -0.6358 -0.1610 -0.1700
  146SAPE   C2916054   6.810   6.163  10.233 -0.0528 -0.4292  0.3832
  146SAPE   H9R16055   6.858   6.249  10.184 -0.2188 -0.7606 -0.3717
  146SAPE  C21016056   6.770   6.046  10.157  0.4105  0.3734 -0.5205
  146SAPE  H10R16057   6.676   6.065  10.101 -0.6381  0.3813  1.2152
  146SAPE  H10S16058   6.740   5.965  10.227 -0.2552 -0.1292 -1.3722
  146SAPE  C21116059   6.885   5.990  10.078  0.5059  0.5772  0.2805
  146SAPE  H11R16060   6.963   5.930  10.127 -0.2907 -3.4111 -3.0538
  146SAPE  C21216061   6.897   5.989   9.945  0.5824  0.5755  0.5113
  146SAPE  H12R16062   6.992   5.944   9.910  1.3072  0.8595  2.1008
  146SAPE  C21316063   6.814   6.050   9.832 -0.2196 -0.1140 -0.1484
  146SAPE  H13R16064   6.867   6.139   9.791  3.1329 -0.2091  3.6910
  146SAPE  H13S16065   6.716   6.095   9.860 -0.8627 -0.8522 -1.1657
  146SAPE  C21416066   6.801   5.943   9.729 -0.2278 -0.4905 -0.2219
  146SAPE  H14R16067   6.784   5.840   9.765  0.0479  0.0521  1.4875
  146SAPE  C21516068   6.817   5.961   9.591 -1.4615 -0.1885  0.2537
  146SAPE  H15R16069   6.805   5.882   9.516  2.2184  0.3594 -1.0391
  146SAPE  C21616070   6.842   6.092   9.526 -0.0998 -0.1384  0.3159
  146SAPE  H16R16071   6.943   6.086   9.479  0.0373  1.3990  0.3727
  146SAPE  H16S16072   6.851   6.181   9.592  2.4811  1.3650 -1.9142
  146SAPE  C21716073   6.728   6.125   9.428 -0.0779 -0.2970 -0.5625
  146SAPE  H17R16074   6.739   6.233   9.405  2.3619  0.1858  2.5660
  146SAPE  H17S16075   6.625   6.119   9.471 -0.3560 -0.8902 -1.2956
  146SAPE  C21816076   6.735   6.045   9.294  0.4823  0.4184 -0.7612
  146SAPE  H18R16077   6.634   6.052   9.249 -0.8035 -0.5272  1.8992
  146SAPE  H18S16078   6.738   5.935   9.312  0.6473  0.5715  0.1557
  146SAPE  C21916079   6.857   6.072   9.212  0.3215  0.1271  0.5539
  146SAPE  H19R16080   6.937   6.004   9.248  1.8606  0.8097 -1.4597
  146SAPE  H19S16081   6.896   6.172   9.241 -0.5681  1.9343 -4.0337
  146SAPE  C22016082   6.838   6.053   9.064  0.4699 -0.8995  0.1909
  146SAPE  H20R16083   6.787   5.957   9.043  0.1011 -0.8914  1.0472
  146SAPE  H20S16084   6.931   6.072   9.006  0.6969 -1.0845  0.4983
  146SAPE  H20T16085   6.759   6.124   9.032  0.2953 -2.1395 -2.2666
  146SAPE   C3316086   6.317   5.945  10.081 -0.5345 -0.2641 -0.0406
  146SAPE   H3X16087   6.334   6.055  10.087  0.3461 -0.4935  2.2448
  146SAPE   H3Y16088   6.210   5.951  10.051  0.0428  0.6090 -1.9746
  146SAPE   C3416089   6.371   5.868   9.960 -0.3720 -0.6650 -0.4508
  146SAPE   H4X16090   6.388   5.760   9.979 -0.2013 -0.3857  0.9835
  146SAPE   H4Y16091   6.476   5.899   9.947  0.3483 -2.5657  0.6698
  146SAPE   C3516092   6.289   5.895   9.828  0.4786  0.5617  0.3238
  146SAPE   H5X16093   6.296   6.003   9.805  0.3814  0.2904 -1.0265
  146SAPE   H5Y16094   6.179   5.881   9.840  0.9201 -3.7633  0.2084
  146SAPE   C3616095   6.340   5.830   9.710  0.5634 -0.0468  0.2841
  146SAPE   H6X16096   6.335   5.719   9.719  3.1523 -0.2934 -1.0331
  146SAPE   H6Y16097   6.447   5.855   9.699  0.4314  0.9452  1.1739
  146SAPE   C3716098   6.262   5.869   9.586 -0.3115  0.8921 -0.0232
  146SAPE   H7X16099   6.276   5.979   9.574  0.1717  0.9198  0.7328
  146SAPE   H7Y16100   6.153   5.870   9.608 -0.2475  1.4452  0.2822
  146SAPE   C3816101   6.303   5.786   9.464  0.2587  0.0882 -0.4083
  146SAPE   H8X16102   6.288   5.680   9.494 -3.0535  0.7781  0.4984
  146SAPE   H8Y16103   6.411   5.796   9.438  0.3728  0.5223  0.2479
  146SAPE   C3916104   6.219   5.815   9.334  0.8465 -0.4598 -0.1625
  146SAPE   H9X16105   6.109   5.807   9.343  0.9176  1.1849  2.6465
  146SAPE   H9Y16106   6.261   5.733   9.271 -1.8913 -3.0757  1.2572
  146SAPE  C31016107   6.245   5.952   9.278 -0.2928  0.0107 -0.6139
  146SAPE  H10X16108   6.352   5.957   9.249 -0.3180 -0.1044 -0.7283
  146SAPE  H10Y16109   6.225   6.033   9.350  1.2153 -0.1658  0.0162
  146SAPE  C31116110   6.166   5.996   9.160 -0.5358 -0.3801 -0.3929
  146SAPE  H11X16111   6.059   5.992   9.192 -0.3149 -0.2274  0.3754
  146SAPE  H11Y16112   6.175   5.925   9.075 -4.2429 -0.0330 -1.1814
  146SAPE  C31216113   6.183   6.139   9.112  0.6890 -0.0018  0.3225
  146SAPE  H12X16114   6.187   6.212   9.196 -0.0207  0.4858 -0.0622
  146SAPE  H12Y16115   6.088   6.163   9.059 -0.1856  1.3411  2.4102
  146SAPE  C31316116   6.306   6.153   9.016  1.2439 -0.0290 -0.3783
  146SAPE  H13X16117   6.333   6.055   8.972  0.3954  0.1612 -1.3534
  146SAPE  H13Y16118   6.395   6.188   9.073 -0.0791  1.0372  1.0933
  146SAPE  C31416119   6.285   6.252   8.909  0.0023  0.2376  0.1003
  146SAPE  H14X16120   6.273   6.343   8.972 -0.6091 -0.0358  0.3833
  146SAPE  H14Y16121   6.195   6.230   8.848 -1.2252  3.0358  0.8129
  146SAPE  C31516122   6.412   6.262   8.823  0.0057  0.2190  0.0588
  146SAPE  H15X16123   6.430   6.170   8.764 -1.2448 -0.7848  1.2319
  146SAPE  H15Y16124   6.507   6.283   8.878 -0.5529  1.5394  0.5351
  146SAPE  C31616125   6.415   6.377   8.712 -0.2435 -0.0766 -0.1727
  146SAPE  H16X16126   6.308   6.393   8.683 -0.0481 -0.5267 -1.1655
  146SAPE  H16Y16127   6.482   6.355   8.627  0.3142  1.9333 -0.2905
  146SAPE  C31716128   6.471   6.513   8.761  0.4542  0.0499  0.2706
  146SAPE  H17X16129   6.579   6.499   8.782  0.3985  0.3601  0.7760
  146SAPE  H17Y16130   6.414   6.529   8.855 -0.5413 -0.0576 -0.3069
  146SAPE  C31816131   6.441   6.630   8.669  0.2311  0.2610 -0.2087
  146SAPE  H18X16132   6.412   6.597   8.567 -0.9149 -0.3475  0.3035
  146SAPE  H18Y16133   6.520   6.708   8.666 -0.6700  1.2086  0.3497
  146SAPE  H18Z16134   6.345   6.674   8.704 -1.3961 -2.7621 -0.6692
  147SAPE     N16135   3.182   4.139   6.385  0.2449 -0.3040  0.0429
  147SAPE   HN116136   3.254   4.137   6.311  0.2547  0.5281  0.0203
  147SAPE   HN216137   3.105   4.076   6.354 -2.2135  1.4010  2.3942
  147SAPE   HN316138   3.164   4.242   6.383  1.5462 -0.0883 -1.3487
  147SAPE   C1216139   3.216   4.099   6.525 -0.5060  0.2374  0.0069
  147SAPE  H12A16140   3.314   4.146   6.545 -1.5985  1.7006  2.1425
  147SAPE  H12B16141   3.220   3.988   6.528 -2.0641  0.1080 -1.5243
  147SAPE   C1116142   3.123   4.155   6.634  0.4716 -0.1573  0.2536
  147SAPE  H11A16143   3.111   4.265   6.627  0.1382 -0.2399 -0.4623
  147SAPE  H11B16144   3.162   4.119   6.732  0.0263 -0.5911  0.2754
  147SAPE     P16145   2.873   4.150   6.531  0.3499 -0.1226 -0.0339
  147SAPE   O1316146   2.908   4.129   6.388 -0.0601  0.4069  0.3125
  147SAPE   O1416147   2.741   4.103   6.576  0.1264 -0.1838 -0.7199
  147SAPE   O1216148   2.994   4.092   6.618 -0.1828 -0.1953  0.2450
  147SAPE   O1116149   2.870   4.306   6.545  0.6424 -0.1533 -0.2769
  147SAPE    C116150   2.808   4.375   6.648  0.7600  0.0927 -0.5064
  147SAPE    HA16151   2.806   4.481   6.616 -3.1035  0.2338 -0.0440
  147SAPE    HB16152   2.701   4.343   6.645  0.7839  0.0448 -0.8514
  147SAPE    C216153   2.872   4.367   6.788 -1.0710 -0.6243  0.0402
  147SAPE    HS16154   2.981   4.391   6.782 -0.7002 -2.1320  0.6686
  147SAPE   O2116155   2.850   4.236   6.847 -0.4569  1.0429  0.5967
  147SAPE   C2116156   2.948   4.191   6.928 -0.0564 -0.3015 -0.5184
  147SAPE   O2216157   3.048   4.250   6.965  0.1880  0.0570  0.2780
  147SAPE   C2216158   2.929   4.044   6.952 -0.2985  0.2110  0.2702
  147SAPE   H2R16159   2.849   4.038   7.028 -0.0306 -1.0213  0.4600
  147SAPE   H2S16160   2.911   3.993   6.855 -0.4318  0.1205  0.3435
  147SAPE    C316161   2.804   4.477   6.878  0.2011  0.2137 -0.3801
  147SAPE    HX16162   2.697   4.451   6.894 -0.0739  0.9459 -1.0314
  147SAPE    HY16163   2.810   4.581   6.839 -1.1697  0.7348  0.7279
  147SAPE   O3116164   2.867   4.473   7.012 -0.3055 -0.5139 -0.7817
  147SAPE   C3116165   2.949   4.571   7.044  0.1998 -0.3970  0.4266
  147SAPE   O3216166   2.978   4.666   6.972  0.4417 -0.1238 -0.0865
  147SAPE   C3216167   2.984   4.566   7.185  0.4533  0.1714  0.2246
  147SAPE   H2X16168   3.070   4.498   7.200 -1.3526 -1.5869  3.2162
  147SAPE   H2Y16169   2.898   4.528   7.245  0.6111 -0.6489 -0.0644
  147SAPE   C2316170   3.060   3.983   7.017  0.1107 -0.3139  0.3130
  147SAPE   H3R16171   3.081   4.033   7.114 -1.9215  2.2795 -0.5244
  147SAPE   H3S16172   3.147   3.999   6.950 -0.5763 -0.4618 -0.6278
  147SAPE   C2416173   3.052   3.827   7.031 -0.7572  0.6240  0.5870
  147SAPE   H4R16174   3.146   3.803   7.084 -1.5975 -2.3095  0.8525
  147SAPE   H4S16175   3.052   3.795   6.925 -1.9648 -0.3653  0.8686
  147SAPE   C2516176   2.923   3.774   7.093 -0.2046 -0.0567  0.1913
  147SAPE   H5R16177   2.846   3.758   7.017  2.1201 -0.4296 -2.1463
  147SAPE   C2616178   2.902   3.769   7.227  0.5330 -0.0748 -0.6210
  147SAPE   H6R16179   2.808   3.731   7.270 -0.2484  1.0113 -1.3474
  147SAPE   C2716180   3.002   3.821   7.329  1.1421  1.1748 -0.2290
  147SAPE   H7R16181   3.092   3.859   7.276 -0.8290  1.9361 -3.1339
  147SAPE   H7S16182   3.035   3.736   7.393 -0.0736  2.3811  2.0966
  147SAPE   C2816183   2.949   3.933   7.407 -0.2571 -0.0689  0.0665
  147SAPE   H8R16184   2.918   4.020   7.347 -0.2595 -1.3900 -1.9004
  147SAPE   C2916185   2.926   3.938   7.537 -0.6117  0.2054  0.4362
  147SAPE   H9R16186   2.882   4.031   7.577  1.4283  1.0530  0.7671
  147SAPE  C21016187   2.957   3.835   7.640 -0.3472  0.4060 -0.4023
  147SAPE  H10R16188   2.957   3.735   7.590 -2.5066  0.4198 -0.5023
  147SAPE  H10S16189   2.876   3.825   7.716 -0.5715  0.5232 -0.6230
  147SAPE  C21116190   3.100   3.842   7.686 -0.6280  0.2317 -0.5307
  147SAPE  H11R16191   3.173   3.822   7.607 -1.6452 -1.0779 -1.1584
  147SAPE  C21216192   3.144   3.905   7.800 -0.8322  0.5136  0.6149
  147SAPE  H12R16193   3.248   3.904   7.836 -1.3149 -0.3569  2.0256
  147SAPE  C21316194   3.048   3.967   7.900  0.1196  0.0599 -1.3237
  147SAPE  H13R16195   2.944   3.952   7.865 -1.0532 -0.2948  2.1057
  147SAPE  H13S16196   3.076   4.074   7.908  1.4570 -0.2479 -1.7529
  147SAPE  C21416197   3.068   3.905   8.040 -0.0404  0.6279 -0.3893
  147SAPE  H14R16198   3.122   3.809   8.038 -3.1422 -1.4020  4.1396
  147SAPE  C21516199   3.025   3.955   8.152 -0.6338  0.0677 -0.3242
  147SAPE  H15R16200   3.046   3.899   8.245  0.0081  0.4722 -0.2226
  147SAPE  C21616201   2.947   4.089   8.170 -0.1751  0.5222  0.0044
  147SAPE  H16R16202   2.925   4.137   8.073 -2.2948  0.1395  0.2657
  147SAPE  H16S16203   3.003   4.161   8.234 -3.1807  1.7513  1.3466
  147SAPE  C21716204   2.810   4.079   8.251 -0.2922 -0.3406 -0.2839
  147SAPE  H17R16205   2.740   4.004   8.209 -1.4142  0.9049 -0.6796
  147SAPE  H17S16206   2.759   4.177   8.236 -0.5130  0.1290  3.2283
  147SAPE  C21816207   2.831   4.030   8.402 -0.3512 -0.4368  0.5779
  147SAPE  H18R16208   2.891   4.112   8.448 -0.7854  0.3706 -0.2721
  147SAPE  H18S16209   2.884   3.933   8.397 -0.1939 -0.3371  0.2939
  147SAPE  C21916210   2.698   3.997   8.475  0.4905 -0.5461 -0.8879
  147SAPE  H19R16211   2.722   3.974   8.581  0.2116 -1.4542 -1.0177
  147SAPE  H19S16212   2.636   3.922   8.422 -0.0723  1.2527 -2.9033
  147SAPE  C22016213   2.605   4.117   8.473  0.0371 -0.4203  0.6644
  147SAPE  H20R16214   2.521   4.098   8.543  0.4130 -0.4000  1.1223
  147SAPE  H20S16215   2.553   4.139   8.377  1.1886 -0.1193  0.1126
  147SAPE  H20T16216   2.656   4.212   8.499  1.1032 -0.5681 -0.8448
  147SAPE   C3316217   3.027   4.699   7.254  0.0618 -0.2568  0.1824
  147SAPE   H3X16218   2.951   4.779   7.241  2.3120  1.9643  0.2833
  147SAPE   H3Y16219   3.122   4.724   7.202  0.6970 -0.9735  0.9770
  147SAPE   C3416220   3.055   4.685   7.403 -0.3284 -0.1820 -0.7647
  147SAPE   H4X16221   3.098   4.582   7.406  0.8084  0.3158  0.9006
  147SAPE   H4Y16222   2.957   4.675   7.454 -0.1228 -2.7411 -0.8160
  147SAPE   C3516223   3.138   4.792   7.464 -0.0279  0.0028  0.3915
  147SAPE   H5X16224   3.093   4.885   7.424  0.4602  0.2154  0.3438
  147SAPE   H5Y16225   3.240   4.795   7.420 -0.4544 -2.3577 -0.8554
  147SAPE   C3616226   3.151   4.778   7.614  0.2513  0.6374  0.4536
  147SAPE   H6X16227   3.194   4.680   7.643  0.0357 -0.2754 -2.1721
  147SAPE   H6Y16228   3.050   4.765   7.658  0.5690 -0.3865  0.8877
  147SAPE   C3716229   3.244   4.886   7.683  0.0831  0.0119 -0.6026
  147SAPE   H7X16230   3.217   4.986   7.643 -0.5433  0.1246  0.0915
  147SAPE   H7Y16231   3.349   4.866   7.652  0.4457 -1.4678  1.4735
  147SAPE   C3816232   3.229   4.889   7.837 -0.6704 -0.4743 -0.2635
  147SAPE   H8X16233   3.298   4.960   7.887 -1.4392 -0.3567  0.6418
  147SAPE   H8Y16234   3.246   4.786   7.875 -0.4023 -0.7820 -1.2097
  147SAPE   C3916235   3.093   4.930   7.887  0.0885 -0.2935 -0.9960
  147SAPE   H9X16236   3.006   4.874   7.845 -0.8031 -0.1184  0.5521
  147SAPE   H9Y16237   3.081   5.033   7.847 -0.0236 -0.7823 -2.2262
  147SAPE  C31016238   3.087   4.938   8.036  1.2138 -0.1545 -0.0668
  147SAPE  H10X16239   3.169   4.999   8.079 -1.1731  1.4264  2.3876
  147SAPE  H10Y16240   3.104   4.835   8.074  2.1536  1.1892  3.2920
  147SAPE  C31116241   2.951   5.003   8.074  0.2908 -0.1870 -0.8758
  147SAPE  H11X16242   2.863   4.952   8.031  0.2960 -1.8778  1.0563
  147SAPE  H11Y16243   2.958   5.106   8.034  0.7457 -0.1219 -0.6343
  147SAPE  C31216244   2.930   5.011   8.228 -0.2437  0.3518 -0.8476
  147SAPE  H12X16245   2.934   4.904   8.258  0.7154  0.6885  0.2582
  147SAPE  H12Y16246   2.825   5.043   8.245  0.0744  0.7672  0.3782
  147SAPE  C31316247   3.035   5.092   8.297 -0.4254 -0.6431 -0.7410
  147SAPE  H13X16248   3.024   5.197   8.263 -1.7938 -0.9304 -1.1997
  147SAPE  H13Y16249   3.134   5.051   8.266 -0.3725  0.2782 -1.8319
  147SAPE  C31416250   3.037   5.077   8.450  0.2014 -0.6536  0.0146
  147SAPE  H14X16251   3.065   4.971   8.464  1.7503 -0.5627 -2.0796
  147SAPE  H14Y16252   2.937   5.091   8.497  0.0444  1.6234 -0.9321
  147SAPE  C31516253   3.132   5.180   8.515  0.7726 -0.0558 -0.5708
  147SAPE  H15X16254   3.238   5.159   8.489  1.3361  0.0586  1.4913
  147SAPE  H15Y16255   3.119   5.180   8.625 -1.0497  0.1405 -0.7687
  147SAPE  C31616256   3.097   5.320   8.474  0.6796  0.1239 -0.6035
  147SAPE  H16X16257   2.988   5.339   8.470  0.5773 -0.3177  0.0416
  147SAPE  H16Y16258   3.136   5.350   8.374  0.7975 -1.5349 -1.0564
  147SAPE  C31716259   3.171   5.430   8.555  0.3592 -0.1977 -0.0398
  147SAPE  H17X16260   3.153   5.425   8.664 -0.5738  2.0717 -0.0648
  147SAPE  H17Y16261   3.117   5.521   8.523  1.5049 -0.2194 -2.1348
  147SAPE  C31816262   3.321   5.459   8.520  0.4251  0.5630 -0.5851
  147SAPE  H18X16263   3.355   5.454   8.415  3.1101 -0.6068  0.2957
  147SAPE  H18Y16264   3.380   5.372   8.557 -0.2609  0.6122  0.6623
  147SAPE  H18Z16265   3.352   5.557   8.563  1.4981  1.4645 -3.3622
  148SAPE     N16266   2.493   2.325   6.646  0.4572  0.1427  0.4577
  148SAPE   HN116267   2.590   2.336   6.681  0.8767 -1.4300 -0.1368
  148SAPE   HN216268   2.494   2.244   6.581  3.3116  0.4528  0.0632
  148SAPE   HN316269   2.461   2.410   6.595 -1.7567 -1.0196 -0.1845
  148SAPE   C1216270   2.398   2.294   6.765  0.5087 -0.1772 -0.0139
  148SAPE  H12A16271   2.349   2.385   6.805  3.3670  0.6603  1.7185
  148SAPE  H12B16272   2.468   2.249   6.838  0.8077 -0.7159 -0.6275
  148SAPE   C1116273   2.285   2.203   6.713 -0.2519  0.1247 -0.1985
  148SAPE  H11A16274   2.225   2.156   6.793  0.2213  3.7914  2.4422
  148SAPE  H11B16275   2.333   2.116   6.664 -1.6767 -0.7212 -0.1224
  148SAPE     P16276   2.054   2.223   6.592  0.1860  0.1609 -0.5681
  148SAPE   O1316277   2.019   2.312   6.476  0.0123 -0.4578  0.2784
  148SAPE   O1416278   2.064   2.076   6.587  0.0279 -0.4126 -0.3053
  148SAPE   O1216279   2.199   2.268   6.624 -0.3247 -0.0269 -0.3224
  148SAPE   O1116280   1.973   2.265   6.721 -0.0765 -0.3150  0.3192
  148SAPE    C116281   2.016   2.381   6.785  0.1368  0.7262 -0.7170
  148SAPE    HA16282   2.124   2.380   6.810  0.7984  0.9093 -3.4735
  148SAPE    HB16283   2.000   2.467   6.717 -2.7650 -0.2420 -1.3650
  148SAPE    C216284   1.937   2.420   6.914 -0.0298  0.8012  0.2277
  148SAPE    HS16285   1.978   2.516   6.952  2.1233  0.4630 -1.1443
  148SAPE   O2116286   1.947   2.310   7.016  0.8302 -0.1605 -0.0547
  148SAPE   C2116287   2.058   2.305   7.091 -0.7050 -0.1478 -0.3339
  148SAPE   O2216288   2.152   2.385   7.083 -0.2747 -0.4219 -0.0735
  148SAPE   C2216289   2.057   2.190   7.186  0.2281  0.0877  0.3060
  148SAPE   H2R16290   1.954   2.150   7.186  0.2302  0.0599  1.4201
  148SAPE   H2S16291   2.127   2.113   7.146 -0.4201 -1.6743  2.4504
  148SAPE    C316292   1.788   2.434   6.874  0.5457 -0.3622  0.3135
  148SAPE    HX16293   1.754   2.342   6.823  0.4076 -0.4793  0.6178
  148SAPE    HY16294   1.775   2.519   6.803  1.3445 -1.2988 -0.9633
  148SAPE   O3116295   1.702   2.452   6.987 -0.8009 -0.5400  0.0845
  148SAPE   C3116296   1.706   2.577   7.043 -0.3634  1.1074 -0.5477
  148SAPE   O3216297   1.771   2.669   7.000 -0.0896 -0.0529 -0.1671
  148SAPE   C3216298   1.635   2.570   7.176 -0.2905 -0.3124  0.6132
  148SAPE   H2X16299   1.543   2.509   7.165 -0.4339  0.1109 -0.6570
  148SAPE   H2Y16300   1.603   2.670   7.211  0.4403  0.0529  0.2564
  148SAPE   C2316301   2.095   2.241   7.326  0.1557 -0.1839  0.3152
  148SAPE   H3R16302   2.021   2.293   7.390  0.8827 -0.0924  1.0901
  148SAPE   H3S16303   2.184   2.307   7.314  0.9387 -1.1257  0.8328
  148SAPE   C2416304   2.138   2.129   7.421 -0.3257  1.2454  0.0810
  148SAPE   H4R16305   2.210   2.062   7.368 -3.6191 -1.2805 -1.3432
  148SAPE   H4S16306   2.050   2.065   7.443  0.5590 -0.3175 -0.8134
  148SAPE   C2516307   2.225   2.180   7.532  0.9625  0.3168 -0.2823
  148SAPE   H5R16308   2.301   2.249   7.491 -0.7920  2.8202  0.5650
  148SAPE   C2616309   2.203   2.180   7.664  0.5554 -0.7252  0.3171
  148SAPE   H6R16310   2.268   2.249   7.720  0.1374  1.6426 -2.0345
  148SAPE   C2716311   2.078   2.128   7.741 -0.7616  0.6444 -0.5947
  148SAPE   H7R16312   2.015   2.063   7.675 -0.7690 -0.4085  0.4250
  148SAPE   H7S16313   2.023   2.220   7.768  1.6836  0.8472  4.1293
  148SAPE   C2816314   2.119   2.060   7.868 -0.0762  0.2836  0.2468
  148SAPE   H8R16315   2.171   1.965   7.853 -1.9983 -0.8259  0.5125
  148SAPE   C2916316   2.081   2.094   7.995  0.3339  0.6326 -0.5313
  148SAPE   H9R16317   2.136   2.035   8.070 -0.1978  0.9745  0.1287
  148SAPE  C21016318   1.991   2.208   8.032 -0.6757 -0.2404 -1.0758
  148SAPE  H10R16319   1.914   2.169   8.102  0.7128 -2.1272 -0.5681
  148SAPE  H10S16320   1.949   2.247   7.937  0.7885 -2.8566 -2.8765
  148SAPE  C21116321   2.076   2.315   8.109 -0.9299  0.3499 -0.9083
  148SAPE  H11R16322   2.093   2.294   8.215  0.7915 -3.5662 -1.8558
  148SAPE  C21216323   2.134   2.425   8.056  0.0789  0.3189  0.0858
  148SAPE  H12R16324   2.189   2.489   8.126  1.8723  1.1898 -2.0655
  148SAPE  C21316325   2.120   2.475   7.917 -0.0754  0.7217 -0.0743
  148SAPE  H13R16326   2.012   2.480   7.890  0.3000  0.5569 -1.6583
  148SAPE  H13S16327   2.163   2.400   7.848  0.9077 -0.0053  1.3180
  148SAPE  C21416328   2.185   2.605   7.877  0.0483 -0.1821 -0.4206
  148SAPE  H14R16329   2.183   2.674   7.963 -0.6308 -0.6898 -0.0180
  148SAPE  C21516330   2.245   2.641   7.760  0.4871  0.0906  0.1005
  148SAPE  H15R16331   2.274   2.746   7.745  1.0580  0.1256  1.3771
  148SAPE  C21616332   2.257   2.553   7.640  0.6946 -0.6848  0.6954
  148SAPE  H16R16333   2.205   2.455   7.649  2.0753 -1.3767  1.2469
  148SAPE  H16S16334   2.364   2.525   7.630  1.1036  0.9887  0.3332
  148SAPE  C21716335   2.213   2.633   7.514  0.8421 -0.0853  0.2625
  148SAPE  H17R16336   2.256   2.582   7.426  3.0914  0.2428  1.1442
  148SAPE  H17S16337   2.249   2.738   7.519 -0.5794  0.4868 -1.0566
  148SAPE  C21816338   2.063   2.653   7.496 -0.1783 -0.2927 -0.3776
  148SAPE  H18R16339   2.025   2.703   7.587 -0.6038 -2.2534  0.5461
  148SAPE  H18S16340   2.011   2.555   7.491 -1.3051  0.1766  1.8204
  148SAPE  C21916341   2.032   2.749   7.380  0.0596  0.9945 -0.6240
  148SAPE  H19R16342   2.090   2.841   7.404 -0.0315  1.2126 -1.2132
  148SAPE  H19S16343   1.925   2.779   7.381 -0.1314  0.2901  2.3958
  148SAPE  C22016344   2.064   2.695   7.239 -0.5675 -0.2009  0.5727
  148SAPE  H20R16345   2.173   2.703   7.221 -0.4458  0.0100  1.3800
  148SAPE  H20S16346   2.025   2.763   7.160 -0.7554 -1.6370 -0.5690
  148SAPE  H20T16347   2.020   2.598   7.208 -1.8778  0.4028  0.4961
  148SAPE   C3316348   1.716   2.524   7.300 -0.2040  0.3526 -0.1080
  148SAPE   H3X16349   1.789   2.606   7.319 -1.1456  1.4929 -1.3516
  148SAPE   H3Y16350   1.774   2.432   7.274 -2.2216 -0.8769 -0.4047
  148SAPE   C3416351   1.628   2.500   7.428  0.2459 -0.0743  0.2703
  148SAPE   H4X16352   1.558   2.417   7.404 -1.2391  0.8767  1.2198
  148SAPE   H4Y16353   1.558   2.584   7.446 -0.0411 -0.4963  1.1904
  148SAPE   C3516354   1.707   2.459   7.556 -0.2738  0.0246  0.5617
  148SAPE   H5X16355   1.776   2.539   7.590 -0.2416 -0.6225  2.0302
  148SAPE   H5Y16356   1.763   2.368   7.524  1.0292  1.1699 -0.4657
  148SAPE   C3616357   1.604   2.420   7.658  0.0436 -0.6059  0.0227
  148SAPE   H6X16358   1.558   2.325   7.623 -1.8378  0.1796  0.2740
  148SAPE   H6Y16359   1.524   2.497   7.661 -0.8132 -1.3887 -1.8715
  148SAPE   C3716360   1.650   2.391   7.803 -0.8359 -0.6743 -0.2422
  148SAPE   H7X16361   1.746   2.336   7.790  0.4189  1.7672 -1.8174
  148SAPE   H7Y16362   1.574   2.326   7.850  1.5565 -1.7581  2.2999
  148SAPE   C3816363   1.660   2.514   7.900  0.2032  0.3702  0.1424
  148SAPE   H8X16364   1.567   2.575   7.901  0.7412  1.2114 -0.1441
  148SAPE   H8Y16365   1.743   2.567   7.847 -0.8469  2.2236  0.3315
  148SAPE   C3916366   1.715   2.494   8.040 -0.9346  0.0285  0.0439
  148SAPE   H9X16367   1.815   2.449   8.026 -0.3059  1.3991  0.1307
  148SAPE   H9Y16368   1.648   2.418   8.087 -2.2126  1.5208  0.6935
  148SAPE  C31016369   1.726   2.623   8.122 -0.0384  0.7405 -0.5563
  148SAPE  H10X16370   1.792   2.605   8.209 -0.9827 -1.8067 -0.3152
  148SAPE  H10Y16371   1.622   2.641   8.159 -0.1592  1.2499 -1.1240
  148SAPE  C31116372   1.777   2.734   8.041 -0.5318 -0.4262 -0.2256
  148SAPE  H11X16373   1.719   2.760   7.950 -3.7480 -1.0126  1.5780
  148SAPE  H11Y16374   1.882   2.709   8.012 -0.7215 -0.4339 -0.9083
  148SAPE  C31216375   1.777   2.858   8.140  0.4151  0.4231  0.0368
  148SAPE  H12X16376   1.838   2.830   8.230  0.0617 -0.0240  0.1410
  148SAPE  H12Y16377   1.673   2.885   8.167  1.0619  2.3457  0.6300
  148SAPE  C31316378   1.833   2.977   8.064 -0.3856 -0.5008 -0.1226
  148SAPE  H13X16379   1.751   3.012   7.998  0.3539  0.6783 -0.4381
  148SAPE  H13Y16380   1.926   2.957   8.006  0.6542  1.1882  0.8958
  148SAPE  C31416381   1.883   3.088   8.155 -0.5464  0.1120  0.1323
  148SAPE  H14X16382   1.948   3.152   8.091  1.7717 -1.1632  1.1300
  148SAPE  H14Y16383   1.943   3.049   8.240 -0.4473  0.3903  0.1924
  148SAPE  C31516384   1.765   3.158   8.225  0.3195  0.6424  0.0533
  148SAPE  H15X16385   1.725   3.098   8.310  0.8360 -1.5751 -1.2298
  148SAPE  H15Y16386   1.680   3.184   8.158 -0.3641 -1.4845  0.0602
  148SAPE  C31616387   1.809   3.286   8.294 -0.8001  0.3188  0.6237
  148SAPE  H16X16388   1.834   3.369   8.224 -2.1113 -0.4911 -0.8374
  148SAPE  H16Y16389   1.899   3.267   8.357 -0.3722 -0.1971 -0.1423
  148SAPE  C31716390   1.702   3.346   8.386 -0.4861 -0.6638 -0.0998
  148SAPE  H17X16391   1.691   3.279   8.474 -1.5261  0.1434  0.3993
  148SAPE  H17Y16392   1.611   3.347   8.322  0.2719  3.6501 -1.2987
  148SAPE  C31816393   1.726   3.489   8.443 -0.0435  0.3075 -0.2723
  148SAPE  H18X16394   1.726   3.568   8.365 -0.0809  1.6215  1.0370
  148SAPE  H18Y16395   1.827   3.492   8.489  0.2290  0.9570 -0.9036
  148SAPE  H18Z16396   1.645   3.523   8.511 -1.2160 -0.7499 -1.1209
  149SAPE     N16397   2.095   2.834   6.351  0.4671 -1.2179 -0.1080
  149SAPE   HN116398   2.011   2.783   6.318  0.0668 -0.3157 -0.4874
  149SAPE   HN216399   2.136   2.786   6.434  0.4500 -2.9534 -1.0671
  149SAPE   HN316400   2.068   2.930   6.380 -0.9058 -1.4887 -0.4611
  149SAPE   C1216401   2.199   2.820   6.240 -0.2008 -0.2980 -0.5937
  149SAPE  H12A16402   2.139   2.812   6.146  0.1581  0.3370 -0.8741
  149SAPE  H12B16403   2.245   2.720   6.258  1.3830  0.6336  0.6495
  149SAPE   C1116404   2.281   2.942   6.221  0.3055  0.2545  0.2269
  149SAPE  H11A16405   2.214   3.024   6.188  0.2303  0.1074  0.0138
  149SAPE  H11B16406   2.361   2.928   6.145 -0.4258  2.3316 -0.9421
  149SAPE     P16407   2.449   2.920   6.421 -0.2310  0.1775  0.6620
  149SAPE   O1316408   2.441   2.776   6.398  0.0342  0.9831 -0.3456
  149SAPE   O1416409   2.575   2.993   6.400 -0.4189  0.4733  0.1582
  149SAPE   O1216410   2.335   2.987   6.343  0.8977 -0.1773  0.4812
  149SAPE   O1116411   2.422   2.949   6.569  0.1120  0.2502  0.1292
  149SAPE    C116412   2.296   2.949   6.636 -0.4476 -0.0715 -0.3685
  149SAPE    HA16413   2.217   2.978   6.562  0.3025  0.6076 -0.9111
  149SAPE    HB16414   2.269   2.846   6.668 -2.1867 -0.0150 -1.5169
  149SAPE    C216415   2.294   3.028   6.769 -0.2069 -0.2835 -0.3748
  149SAPE    HS16416   2.191   3.067   6.784  0.3455  0.5400  1.4318
  149SAPE   O2116417   2.392   3.127   6.781 -0.6209 -0.1929  0.9795
  149SAPE   C2116418   2.390   3.215   6.678  0.4017  0.3750 -0.5201
  149SAPE   O2216419   2.313   3.220   6.586 -0.1059 -0.1972  0.5138
  149SAPE   C2216420   2.499   3.330   6.711  0.4036  0.4794  0.2140
  149SAPE   H2R16421   2.576   3.276   6.770 -1.0807 -0.5852  1.2300
  149SAPE   H2S16422   2.538   3.367   6.614  2.0122 -0.1721  0.6013
  149SAPE    C316423   2.320   2.926   6.883 -0.5073 -0.1589 -0.0078
  149SAPE    HX16424   2.407   2.866   6.847  0.9701  2.5854 -1.1107
  149SAPE    HY16425   2.227   2.866   6.890  0.4392 -1.8515 -1.4246
  149SAPE   O3116426   2.333   2.994   7.009 -0.4639 -0.3794 -0.8753
  149SAPE   C3116427   2.373   2.917   7.104 -0.0952  0.3386  0.5633
  149SAPE   O3216428   2.392   2.796   7.095  0.1432 -0.1821 -0.4727
  149SAPE   C3216429   2.400   2.993   7.236  0.1371 -0.1051  0.2091
  149SAPE   H2X16430   2.307   3.049   7.260  0.2736  0.3661 -0.3678
  149SAPE   H2Y16431   2.486   3.063   7.228  0.2727 -0.3489 -0.5155
  149SAPE   C2316432   2.435   3.446   6.787 -0.0371 -0.9091  0.4560
  149SAPE   H3R16433   2.376   3.412   6.875 -0.2312  1.0014  1.1029
  149SAPE   H3S16434   2.361   3.491   6.717 -0.2819  1.5053  2.1860
  149SAPE   C2416435   2.544   3.544   6.837  0.0796 -0.9995 -0.0151
  149SAPE   H4R16436   2.607   3.566   6.747 -1.2655  0.1801 -0.6818
  149SAPE   H4S16437   2.604   3.496   6.917 -0.3820 -1.2514  0.1791
  149SAPE   C2516438   2.491   3.676   6.890 -0.7861  0.4591  0.1703
  149SAPE   H5R16439   2.460   3.751   6.815 -0.6395  0.1135 -0.2407
  149SAPE   C2616440   2.484   3.716   7.016  0.3037  0.3385 -0.5045
  149SAPE   H6R16441   2.441   3.815   7.038  3.1116  1.7346 -1.0678
  149SAPE   C2716442   2.523   3.625   7.136  0.1346 -0.0746 -0.2876
  149SAPE   H7R16443   2.634   3.621   7.131  0.1951 -0.2062  0.8936
  149SAPE   H7S16444   2.482   3.523   7.121 -0.0487 -0.6397  3.4928
  149SAPE   C2816445   2.480   3.693   7.272  0.0075  0.0904  0.0459
  149SAPE   H8R16446   2.415   3.781   7.261  0.0312  0.4219  2.3179
  149SAPE   C2916447   2.521   3.649   7.392 -0.4632  0.0693  0.3959
  149SAPE   H9R16448   2.477   3.700   7.480 -0.4003  1.8081 -0.5535
  149SAPE  C21016449   2.607   3.533   7.419  0.5179 -0.5185 -0.4992
  149SAPE  H10R16450   2.658   3.499   7.326 -2.0869  3.1295 -3.4076
  149SAPE  H10S16451   2.543   3.454   7.463  0.2864 -0.6469 -1.0636
  149SAPE  C21116452   2.715   3.565   7.519  0.4529  0.4667 -0.2408
  149SAPE  H11R16453   2.813   3.588   7.474  0.6766 -0.4291 -0.2285
  149SAPE  C21216454   2.712   3.548   7.656 -0.4352  0.3443 -0.1566
  149SAPE  H12R16455   2.802   3.574   7.714  0.1189  0.2572 -0.9553
  149SAPE  C21316456   2.591   3.503   7.737  1.1705 -0.5919  0.2624
  149SAPE  H13R16457   2.629   3.456   7.830 -1.9067 -0.4612  1.6233
  149SAPE  H13S16458   2.529   3.427   7.686 -0.6280  1.0134 -0.0147
  149SAPE  C21416459   2.502   3.617   7.785 -0.2992 -0.6323  0.5849
  149SAPE  H14R16460   2.475   3.684   7.702 -0.5900 -0.0975  1.1041
  149SAPE  C21516461   2.490   3.657   7.918  0.2316  0.2058  0.1031
  149SAPE  H15R16462   2.431   3.746   7.945  0.8454  0.4903  0.5356
  149SAPE  C21616463   2.541   3.595   8.041 -0.5302  0.6104  0.2463
  149SAPE  H16R16464   2.545   3.484   8.031  0.5832  0.8145 -1.9617
  149SAPE  H16S16465   2.460   3.597   8.116 -2.1696  0.0029 -1.4770
  149SAPE  C21716466   2.682   3.644   8.096  0.4790 -0.3308 -0.1190
  149SAPE  H17R16467   2.700   3.753   8.081  1.6813 -0.5502 -0.3002
  149SAPE  H17S16468   2.751   3.585   8.031  0.2895 -0.8508  0.1503
  149SAPE  C21816469   2.710   3.608   8.239  0.7956 -0.0600  0.5428
  149SAPE  H18R16470   2.661   3.511   8.261 -1.0362  0.4578 -1.0675
  149SAPE  H18S16471   2.670   3.692   8.299  1.4050  0.0738  0.7665
  149SAPE  C21916472   2.854   3.592   8.262  0.3684 -0.4459 -0.6618
  149SAPE  H19R16473   2.915   3.683   8.241 -0.1445  0.2542  0.7989
  149SAPE  H19S16474   2.891   3.504   8.205 -0.1632  1.7127 -4.5354
  149SAPE  C22016475   2.883   3.569   8.412 -0.5878  0.6612  0.4928
  149SAPE  H20R16476   2.891   3.668   8.463  1.8990  0.4481  0.5775
  149SAPE  H20S16477   2.979   3.514   8.424 -0.7557  0.5646  1.4009
  149SAPE  H20T16478   2.809   3.506   8.464  1.0217 -1.6118  0.0830
  149SAPE   C3316479   2.428   2.892   7.357  0.0527  0.1546  0.1345
  149SAPE   H3X16480   2.520   2.836   7.330  1.0210  2.2897 -1.0648
  149SAPE   H3Y16481   2.341   2.824   7.368 -0.3538  0.8242  1.1798
  149SAPE   C3416482   2.429   2.968   7.494 -0.2152  0.1017 -0.2183
  149SAPE   H4X16483   2.324   2.976   7.531  0.1225  0.0148  0.7688
  149SAPE   H4Y16484   2.475   3.068   7.481 -1.4777  0.6823 -0.3271
  149SAPE   C3516485   2.515   2.880   7.588  0.3256 -0.4787  0.6981
  149SAPE   H5X16486   2.612   2.870   7.536  0.7043 -0.1862  1.3487
  149SAPE   H5Y16487   2.468   2.785   7.624 -1.1356  0.0309  0.1938
  149SAPE   C3616488   2.560   2.972   7.702 -0.6547  0.2728 -0.6572
  149SAPE   H6X16489   2.479   3.005   7.772 -0.2076 -3.0078  1.5269
  149SAPE   H6Y16490   2.607   3.064   7.662  2.0891  0.0354  1.7996
  149SAPE   C3716491   2.669   2.902   7.783  0.1812  0.8282 -0.4081
  149SAPE   H7X16492   2.718   2.977   7.849  0.7082 -0.6103  0.8787
  149SAPE   H7Y16493   2.753   2.866   7.720  0.0593 -1.1324  0.4966
  149SAPE   C3816494   2.621   2.787   7.869 -0.7098  0.1018  0.3858
  149SAPE   H8X16495   2.712   2.738   7.910  0.5821  0.5298 -1.8573
  149SAPE   H8Y16496   2.558   2.719   7.808 -0.7607  0.1015  0.4402
  149SAPE   C3916497   2.538   2.830   7.987  0.2367 -0.4637  0.5143
  149SAPE   H9X16498   2.447   2.889   7.960  1.2300 -0.1364 -2.2808
  149SAPE   H9Y16499   2.594   2.903   8.049 -0.1978 -1.3294  1.9307
  149SAPE  C31016500   2.526   2.704   8.073  0.6627 -0.1854 -0.4600
  149SAPE  H10X16501   2.624   2.653   8.078  0.4626 -0.6039 -0.7735
  149SAPE  H10Y16502   2.455   2.632   8.027 -0.6831  1.3346 -0.8109
  149SAPE  C31116503   2.470   2.736   8.214  0.3263  0.3519 -0.3779
  149SAPE  H11X16504   2.548   2.792   8.268 -1.2258  0.4320  1.8667
  149SAPE  H11Y16505   2.475   2.637   8.265  0.5703  2.0295  2.9734
  149SAPE  C31216506   2.341   2.819   8.213  0.1462 -0.5357 -0.5371
  149SAPE  H12X16507   2.252   2.768   8.169  0.3158  1.5414 -3.4398
  149SAPE  H12Y16508   2.370   2.902   8.145  1.8801  1.1730  2.2338
  149SAPE  C31316509   2.305   2.870   8.355 -0.1571  0.4651  0.1203
  149SAPE  H13X16510   2.378   2.942   8.396 -0.7544  2.9207 -2.9703
  149SAPE  H13Y16511   2.309   2.777   8.416 -0.4738 -0.0236 -0.5845
  149SAPE  C31416512   2.169   2.932   8.370 -0.1398 -0.4360  0.2315
  149SAPE  H14X16513   2.112   2.843   8.335  0.0800 -0.8261  0.8561
  149SAPE  H14Y16514   2.154   3.022   8.306 -1.0677 -0.1511  0.8418
  149SAPE  C31516515   2.142   2.977   8.518  0.1136  0.1837 -0.2286
  149SAPE  H15X16516   2.209   3.062   8.543 -0.4407  1.1579 -1.9571
  149SAPE  H15Y16517   2.178   2.908   8.597 -0.3955  1.9319  1.5808
  149SAPE  C31616518   1.995   3.024   8.536  0.7853  0.1112 -0.4583
  149SAPE  H16X16519   1.931   2.949   8.486  0.6722 -0.5356  0.6331
  149SAPE  H16Y16520   1.966   3.124   8.498  0.1179  0.2522  0.4141
  149SAPE  C31716521   1.975   3.046   8.686  1.0608  0.6602 -0.1123
  149SAPE  H17X16522   2.049   3.123   8.715  0.3349  1.7874 -1.2004
  149SAPE  H17Y16523   1.979   2.957   8.752 -3.8012  1.7537  1.9165
  149SAPE  C31816524   1.832   3.101   8.720  0.2185 -0.1611  0.4934
  149SAPE  H18X16525   1.818   3.207   8.689 -1.3286 -0.3959  0.3654
  149SAPE  H18Y16526   1.829   3.102   8.831 -0.0100 -0.2978  0.4875
  149SAPE  H18Z16527   1.753   3.041   8.671 -0.5352  0.1629  1.2870
  150SAPE     N16528   0.924   4.230   6.270 -0.4580  0.2820  0.1295
  150SAPE   HN116529   0.927   4.215   6.168 -2.0699  0.1473  0.0895
  150SAPE   HN216530   1.020   4.264   6.290 -0.8590  3.3533 -2.8393
  150SAPE   HN316531   0.910   4.137   6.316 -1.7438 -0.2887 -1.3948
  150SAPE   C1216532   0.832   4.337   6.320  0.2721 -0.1493 -0.0251
  150SAPE  H12A16533   0.741   4.288   6.359  0.3615  0.0343  0.4068
  150SAPE  H12B16534   0.794   4.401   6.238 -1.4531 -1.7794 -0.5314
  150SAPE   C1116535   0.881   4.429   6.433 -0.1086  0.2424  0.0793
  150SAPE  H11A16536   0.896   4.366   6.523 -2.7746  0.1249  0.4769
  150SAPE  H11B16537   0.805   4.504   6.463 -0.4538 -0.4703  1.0062
  150SAPE     P16538   1.020   4.646   6.365 -0.5014 -0.8373  0.2571
  150SAPE   O1316539   1.156   4.668   6.318  0.1081  0.1930  0.7168
  150SAPE   O1416540   0.915   4.702   6.278 -0.2714  0.2269 -0.6871
  150SAPE   O1216541   1.004   4.497   6.395  0.5458  0.4733  0.0757
  150SAPE   O1116542   1.014   4.715   6.507 -0.3780 -0.1699 -0.0492
  150SAPE    C116543   1.104   4.678   6.613  0.2337 -0.1478 -0.0016
  150SAPE    HA16544   1.204   4.641   6.581  0.0792 -1.7204  1.2604
  150SAPE    HB16545   1.130   4.773   6.664  0.7581  1.4400 -3.1225
  150SAPE    C216546   1.036   4.594   6.728 -0.0015  0.5220  0.1435
  150SAPE    HS16547   1.013   4.495   6.684  1.2438  1.6575 -3.2199
  150SAPE   O2116548   0.924   4.668   6.780 -0.4710  0.5601  0.2944
  150SAPE   C2116549   0.824   4.583   6.799 -1.4130  0.0803  0.4296
  150SAPE   O2216550   0.820   4.464   6.785  0.0116 -0.2630 -0.2165
  150SAPE   C2216551   0.704   4.661   6.853 -0.5455 -1.1113 -0.4286
  150SAPE   H2R16552   0.668   4.740   6.784 -2.3953 -1.9896 -0.4844
  150SAPE   H2S16553   0.629   4.585   6.883 -1.5699 -0.5976 -1.6578
  150SAPE    C316554   1.142   4.556   6.834 -0.5280  0.7083  1.1203
  150SAPE    HX16555   1.162   4.647   6.895 -0.3775  0.6117  1.2141
  150SAPE    HY16556   1.231   4.529   6.773 -1.8266  2.6909 -1.7970
  150SAPE   O3116557   1.104   4.447   6.923 -0.0031 -0.0278 -0.0986
  150SAPE   C3116558   1.106   4.323   6.875  0.6559 -0.0265 -0.1528
  150SAPE   O3216559   1.140   4.292   6.760  0.3384  1.0723  0.1489
  150SAPE   C3216560   1.063   4.232   6.987  0.0852 -0.1618 -0.2937
  150SAPE   H2X16561   0.983   4.169   6.941  0.9216 -1.2654 -0.2487
  150SAPE   H2Y16562   1.020   4.285   7.074  0.5506  0.7084 -0.5919
  150SAPE   C2316563   0.739   4.745   6.986  0.5036 -0.3160  0.4431
  150SAPE   H3R16564   0.672   4.833   6.994 -0.4557 -0.8681 -1.4041
  150SAPE   H3S16565   0.845   4.779   6.993  0.0509  1.3051 -0.5611
  150SAPE   C2416566   0.694   4.667   7.116  0.2308 -0.5762  0.4914
  150SAPE   H4R16567   0.587   4.638   7.105  0.1241  0.5748 -1.9327
  150SAPE   H4S16568   0.700   4.734   7.205 -0.7917  0.3400 -0.1219
  150SAPE   C2516569   0.793   4.557   7.147  0.0466  0.0348 -0.0931
  150SAPE   H5R16570   0.894   4.599   7.161  0.8271 -1.6868 -0.4972
  150SAPE   C2616571   0.768   4.425   7.165 -0.3812  0.6768  0.3908
  150SAPE   H6R16572   0.851   4.358   7.193 -2.2737 -2.7142 -1.7429
  150SAPE   C2716573   0.632   4.368   7.142  0.1794 -0.6054  0.0739
  150SAPE   H7R16574   0.593   4.379   7.039  2.1020 -2.4067 -0.8866
  150SAPE   H7S16575   0.563   4.426   7.207 -0.5927 -0.2145 -1.0866
  150SAPE   C2816576   0.624   4.220   7.175 -0.2273 -0.5690  0.0136
  150SAPE   H8R16577   0.643   4.152   7.091  0.6755 -2.0337  1.3836
  150SAPE   C2916578   0.598   4.171   7.301 -0.0419 -0.3057 -0.1789
  150SAPE   H9R16579   0.574   4.065   7.317 -0.0001 -0.4006 -0.7295
  150SAPE  C21016580   0.559   4.262   7.413  0.4843 -0.2133  0.5495
  150SAPE  H10R16581   0.465   4.307   7.376  0.3893 -0.3808  0.5875
  150SAPE  H10S16582   0.616   4.357   7.428 -1.7955  1.4772 -1.2091
  150SAPE  C21116583   0.523   4.192   7.539  0.7632 -0.5360 -0.1844
  150SAPE  H11R16584   0.450   4.111   7.521 -0.2422  0.8668 -2.5335
  150SAPE  C21216585   0.572   4.224   7.665  0.6759 -0.1039  0.2596
  150SAPE  H12R16586   0.557   4.155   7.749 -1.5029  1.3873  1.1476
  150SAPE  C21316587   0.686   4.323   7.672  0.7875  0.2089 -0.3999
  150SAPE  H13R16588   0.639   4.421   7.647  0.2566  0.2414  0.7099
  150SAPE  H13S16589   0.772   4.303   7.605  1.5286 -3.0846  1.4586
  150SAPE  C21416590   0.752   4.339   7.801 -0.4906  0.4813  0.0209
  150SAPE  H14R16591   0.791   4.248   7.851 -2.7813  0.7017  2.2848
  150SAPE  C21516592   0.796   4.457   7.853 -0.4652 -0.4651 -0.1214
  150SAPE  H15R16593   0.857   4.456   7.945  2.3343 -0.4946 -1.9024
  150SAPE  C21616594   0.790   4.594   7.797 -0.0110 -0.6027  0.5247
  150SAPE  H16R16595   0.745   4.660   7.874 -1.0775 -0.7941  0.0678
  150SAPE  H16S16596   0.744   4.597   7.696 -0.8725  1.1046  0.9583
  150SAPE  C21716597   0.923   4.675   7.772 -0.3478 -0.3810  0.5454
  150SAPE  H17R16598   0.961   4.726   7.863 -0.0527 -0.1438  0.2924
  150SAPE  H17S16599   0.893   4.760   7.707 -0.6498 -0.0657  1.0977
  150SAPE  C21816600   1.039   4.612   7.697 -0.2308 -0.4770 -0.1492
  150SAPE  H18R16601   1.082   4.538   7.768  0.7154  0.9860  0.8106
  150SAPE  H18S16602   1.119   4.688   7.689 -0.3159 -0.4148 -0.4453
  150SAPE  C21916603   1.009   4.535   7.575 -0.2691  0.4273  0.2539
  150SAPE  H19R16604   0.932   4.457   7.588  2.0311 -2.0613 -0.6455
  150SAPE  H19S16605   1.103   4.483   7.547  0.1987  1.1533  0.4368
  150SAPE  C22016606   0.982   4.625   7.457  0.4586 -0.4983  0.1535
  150SAPE  H20R16607   0.895   4.689   7.483  0.8420 -0.1974  0.7150
  150SAPE  H20S16608   0.960   4.559   7.371  1.2281 -1.9158  1.0352
  150SAPE  H20T16609   1.067   4.691   7.429 -0.3723  0.8691  0.8094
  150SAPE   C3316610   1.184   4.139   7.022 -0.5237 -0.7943 -0.1830
  150SAPE   H3X16611   1.237   4.103   6.932 -2.4301 -0.5695 -1.4437
  150SAPE   H3Y16612   1.149   4.049   7.077 -0.8426  1.9886  4.4521
  150SAPE   C3416613   1.282   4.199   7.132 -0.0288 -0.3563  0.2056
  150SAPE   H4X16614   1.328   4.291   7.091 -0.5620  0.0575  0.5202
  150SAPE   H4Y16615   1.366   4.127   7.146  1.7967  1.3410 -1.6902
  150SAPE   C3516616   1.221   4.247   7.270  0.5146  0.1902  0.5351
  150SAPE   H5X16617   1.144   4.326   7.253  1.0118  0.3486 -1.0435
  150SAPE   H5Y16618   1.301   4.291   7.333  0.9070  1.3607 -0.7673
  150SAPE   C3616619   1.146   4.130   7.336  0.5715 -0.1606 -0.0288
  150SAPE   H6X16620   1.211   4.042   7.348  0.2693 -0.5020 -0.9331
  150SAPE   H6Y16621   1.059   4.104   7.272  0.4637  0.0143  0.0434
  150SAPE   C3716622   1.081   4.159   7.474 -0.2507 -0.3692  0.2275
  150SAPE   H7X16623   1.036   4.058   7.484 -0.7041 -0.2195 -0.2958
  150SAPE   H7Y16624   1.004   4.238   7.467 -2.1655 -2.0972  1.3476
  150SAPE   C3816625   1.194   4.187   7.576  0.2319  0.8177 -0.2318
  150SAPE   H8X16626   1.218   4.293   7.554 -0.5110  1.3587  1.4159
  150SAPE   H8Y16627   1.288   4.128   7.564  0.2362  0.7021  0.3312
  150SAPE   C3916628   1.141   4.168   7.718 -0.5294  0.3416  0.3493
  150SAPE   H9X16629   1.124   4.062   7.745 -1.3501  0.2496 -0.5121
  150SAPE   H9Y16630   1.041   4.215   7.727 -0.7018 -0.0992  0.7260
  150SAPE  C31016631   1.211   4.238   7.830  0.0942  0.4016 -0.4259
  150SAPE  H10X16632   1.188   4.345   7.846 -1.6937  0.1192 -1.0544
  150SAPE  H10Y16633   1.321   4.228   7.815 -0.2507 -1.4370 -1.9549
  150SAPE  C31116634   1.159   4.165   7.961  0.0648 -0.2722 -0.2512
  150SAPE  H11X16635   1.182   4.056   7.960 -3.0519 -1.0510  1.9706
  150SAPE  H11Y16636   1.050   4.188   7.969  0.5526  1.8775  0.6184
  150SAPE  C31216637   1.208   4.223   8.097  0.0483 -0.0401 -0.2365
  150SAPE  H12X16638   1.305   4.175   8.120  0.7506  1.9973  1.2706
  150SAPE  H12Y16639   1.134   4.194   8.175 -1.1539  0.1932 -1.2823
  150SAPE  C31316640   1.220   4.377   8.110  0.3550 -0.1945 -0.3293
  150SAPE  H13X16641   1.271   4.425   8.024  2.6639  0.7722  1.5133
  150SAPE  H13Y16642   1.292   4.393   8.194  0.7648 -1.2094 -0.4900
  150SAPE  C31416643   1.094   4.458   8.147 -0.3437  1.2464  0.2589
  150SAPE  H14X16644   1.072   4.441   8.254  0.2143  1.3539  0.3936
  150SAPE  H14Y16645   0.998   4.437   8.094 -0.0128  0.5626 -0.0711
  150SAPE  C31516646   1.114   4.610   8.133 -0.0200  0.3548 -1.0348
  150SAPE  H15X16647   1.102   4.628   8.025 -2.2172  2.1370 -0.5201
  150SAPE  H15Y16648   1.217   4.647   8.151  0.1669 -0.9177  0.7847
  150SAPE  C31616649   1.008   4.702   8.210 -0.2575 -0.8846  0.1226
  150SAPE  H16X16650   1.045   4.805   8.188  0.9382 -1.4099 -0.3604
  150SAPE  H16Y16651   1.036   4.689   8.317  1.6674  2.9019  0.1810
  150SAPE  C31716652   0.857   4.682   8.181  0.0307  0.3016 -0.6822
  150SAPE  H17X16653   0.835   4.574   8.196 -2.0624  0.5743 -1.6476
  150SAPE  H17Y16654   0.843   4.705   8.073 -1.4982  0.7167 -0.4130
  150SAPE  C31816655   0.758   4.760   8.270  0.3523  0.1651 -0.3641
  150SAPE  H18X16656   0.778   4.869   8.258 -0.3903  0.3229 -0.1796
  150SAPE  H18Y16657   0.765   4.724   8.375  2.0908 -0.9177 -0.8332
  150SAPE  H18Z16658   0.650   4.736   8.254  0.3378  0.2201 -0.3491
  151SAPE     N16659   2.995   1.580   6.633  0.2113  0.2243  0.2486
  151SAPE   HN116660   3.085   1.566   6.682 -0.1668 -1.5795  0.4667
  151SAPE   HN216661   2.944   1.657   6.681 -1.4481  0.1417 -1.2978
  151SAPE   HN316662   2.944   1.492   6.654  1.5675 -0.5943  0.1757
  151SAPE   C1216663   3.014   1.592   6.489 -0.0902 -0.3268  0.1450
  151SAPE  H12A16664   2.928   1.538   6.445 -1.6827  1.9517  0.3755
  151SAPE  H12B16665   3.098   1.530   6.451 -0.6904 -1.4173  0.5795
  151SAPE   C1116666   3.034   1.746   6.436  0.7221  0.0094  0.6714
  151SAPE  H11A16667   2.931   1.784   6.445  0.6371  0.1812 -0.7863
  151SAPE  H11B16668   3.054   1.751   6.326 -1.1380 -0.6845  0.2852
  151SAPE     P16669   3.281   1.801   6.482  0.1986 -0.0247 -0.0831
  151SAPE   O1316670   3.311   1.654   6.470 -0.3992  0.1965  0.1152
  151SAPE   O1416671   3.322   1.889   6.372  0.1270 -0.5433 -0.0711
  151SAPE   O1216672   3.124   1.818   6.520  0.2112  0.1716  0.5544
  151SAPE   O1116673   3.351   1.853   6.612  0.5105  0.3842  0.0155
  151SAPE    C116674   3.314   1.977   6.668  0.0130 -0.6770  0.1959
  151SAPE    HA16675   3.394   2.047   6.635 -1.9398  1.7686  0.5150
  151SAPE    HB16676   3.208   2.000   6.646 -0.5194 -1.7907  1.5151
  151SAPE    C216677   3.327   1.972   6.826  0.1866  0.2087 -0.7568
  151SAPE    HS16678   3.432   1.948   6.855 -0.0275  0.1299 -0.0429
  151SAPE   O2116679   3.230   1.880   6.890 -0.1786  0.3470 -0.4068
  151SAPE   C2116680   3.279   1.778   6.968  0.0331 -0.7301 -0.4179
  151SAPE   O2216681   3.397   1.753   6.975  0.5409  0.2571  0.3590
  151SAPE   C2216682   3.154   1.715   7.035 -0.1498 -0.2199  0.0590
  151SAPE   H2R16683   3.081   1.789   7.074  0.8965  0.9069 -0.0555
  151SAPE   H2S16684   3.101   1.655   6.958 -0.8268  1.6661 -0.9691
  151SAPE    C316685   3.296   2.112   6.891  0.3430  0.1232  0.0538
  151SAPE    HX16686   3.198   2.137   6.846  1.1006  0.2108 -1.5923
  151SAPE    HY16687   3.371   2.190   6.869 -2.4606  2.6496 -0.8638
  151SAPE   O3116688   3.291   2.106   7.035  0.0411  0.1116 -0.2899
  151SAPE   C3116689   3.411   2.093   7.088 -0.2310  0.0692  0.6917
  151SAPE   O3216690   3.516   2.096   7.026  0.2499 -0.1915 -0.0326
  151SAPE   C3216691   3.400   2.077   7.241 -0.5245 -0.0825 -0.1184
  151SAPE   H2X16692   3.311   2.018   7.274  1.0613 -0.9365  2.7915
  151SAPE   H2Y16693   3.395   2.182   7.275  1.2055 -0.3152  0.8895
  151SAPE   C2316694   3.206   1.609   7.143  0.0642 -0.8967  0.5685
  151SAPE   H3R16695   3.267   1.545   7.075  0.7040  0.7286 -0.4204
  151SAPE   H3S16696   3.117   1.549   7.172  0.1586 -0.5647  1.5433
  151SAPE   C2416697   3.264   1.677   7.269  0.4166  0.5175 -0.4672
  151SAPE   H4R16698   3.345   1.744   7.235  0.8484  0.1683 -0.1408
  151SAPE   H4S16699   3.313   1.604   7.337  0.6511  1.1635  0.0679
  151SAPE   C2516700   3.149   1.743   7.346  0.1755 -0.6767 -0.1798
  151SAPE   H5R16701   3.130   1.848   7.317 -1.0328 -0.9101 -0.2701
  151SAPE   C2616702   3.085   1.687   7.452 -0.7022 -1.0538  0.3996
  151SAPE   H6R16703   2.994   1.737   7.487 -0.1056  0.1876  0.2106
  151SAPE   C2716704   3.111   1.548   7.512  0.2255 -0.1830 -0.5700
  151SAPE   H7R16705   3.180   1.488   7.448 -0.3645 -1.5479  0.0442
  151SAPE   H7S16706   3.024   1.480   7.523  0.7016 -0.7410 -0.2336
  151SAPE   C2816707   3.175   1.568   7.648  0.1181 -0.3932  0.0842
  151SAPE   H8R16708   3.274   1.616   7.645 -0.8806  1.7641  0.5059
  151SAPE   C2916709   3.136   1.520   7.771  0.2861 -0.2147 -0.3749
  151SAPE   H9R16710   3.190   1.560   7.858 -0.0148 -0.9406  0.1486
  151SAPE  C21016711   3.006   1.443   7.809 -0.6838  0.1683  0.8119
  151SAPE  H10R16712   3.047   1.349   7.851  0.7351 -0.4570 -1.8562
  151SAPE  H10S16713   2.941   1.415   7.724  0.9624  0.3509 -0.5467
  151SAPE  C21116714   2.916   1.524   7.898 -0.2671 -0.0508  0.7503
  151SAPE  H11R16715   2.876   1.607   7.839  2.6871  1.4465  0.7504
  151SAPE  C21216716   2.890   1.529   8.029  0.8518 -0.9554 -0.7842
  151SAPE  H12R16717   2.817   1.601   8.069 -0.6082 -1.1379 -2.9836
  151SAPE  C21316718   2.943   1.432   8.133 -0.0113  0.8182 -0.0348
  151SAPE  H13R16719   2.901   1.331   8.113  0.9081 -0.0339  2.1697
  151SAPE  H13S16720   2.907   1.456   8.235  1.0339 -0.1106  0.5638
  151SAPE  C21416721   3.093   1.416   8.144 -0.0802 -0.8062 -0.4985
  151SAPE  H14R16722   3.160   1.442   8.061  1.2921 -1.5835  0.3401
  151SAPE  C21516723   3.151   1.371   8.258 -0.0290  1.2692  0.1774
  151SAPE  H15R16724   3.261   1.374   8.248 -0.0252  2.9039  0.4581
  151SAPE  C21616725   3.075   1.329   8.385  0.1408 -0.2662 -0.5514
  151SAPE  H16R16726   3.017   1.238   8.360 -1.3734  0.8627 -1.2290
  151SAPE  H16S16727   3.002   1.409   8.408  0.9532 -0.5465  3.2077
  151SAPE  C21716728   3.165   1.312   8.511  0.1157 -0.2085  0.0232
  151SAPE  H17R16729   3.243   1.237   8.486 -0.3026 -1.2253  1.7249
  151SAPE  H17S16730   3.103   1.256   8.584 -0.7655  0.0920 -0.4930
  151SAPE  C21816731   3.218   1.444   8.563  0.7330  0.8456 -0.3630
  151SAPE  H18R16732   3.133   1.500   8.607  0.0338 -0.1534 -0.4244
  151SAPE  H18S16733   3.273   1.496   8.480  0.6197  0.5434 -0.6280
  151SAPE  C21916734   3.322   1.411   8.674 -0.8175  0.4488  0.3660
  151SAPE  H19R16735   3.392   1.332   8.638 -0.4887  0.1215  1.6886
  151SAPE  H19S16736   3.270   1.367   8.762 -0.9566 -0.2360 -0.0546
  151SAPE  C22016737   3.399   1.532   8.712 -0.4997 -0.2155 -0.4526
  151SAPE  H20R16738   3.443   1.518   8.813  0.0522  2.7463 -0.2228
  151SAPE  H20S16739   3.483   1.548   8.642 -0.2092  1.6591  0.2718
  151SAPE  H20T16740   3.329   1.618   8.724 -0.2527 -0.3241  2.1062
  151SAPE   C3316741   3.530   2.018   7.295 -0.6077  0.0262  0.0933
  151SAPE   H3X16742   3.612   2.080   7.254 -1.4550 -0.9891 -3.4004
  151SAPE   H3Y16743   3.544   1.920   7.244  0.6937 -0.3114  1.1097
  151SAPE   C3416744   3.542   2.003   7.448  0.1621 -0.8020  0.7646
  151SAPE   H4X16745   3.517   2.104   7.487 -1.6867  0.8107 -4.1581
  151SAPE   H4Y16746   3.650   1.991   7.471  0.2479  0.5204  1.1177
  151SAPE   C3516747   3.457   1.886   7.504 -0.7953  0.3637  0.0426
  151SAPE   H5X16748   3.486   1.798   7.443  0.2916  1.2573 -0.7533
  151SAPE   H5Y16749   3.350   1.911   7.484 -1.0284 -0.3776  0.3503
  151SAPE   C3616750   3.480   1.857   7.655  0.6288  0.7620  0.6471
  151SAPE   H6X16751   3.580   1.811   7.662 -0.9293 -2.8637 -0.1051
  151SAPE   H6Y16752   3.403   1.782   7.680  0.9440  0.7093  1.4656
  151SAPE   C3716753   3.470   1.983   7.740  0.2254  0.0160 -0.4314
  151SAPE   H7X16754   3.371   2.028   7.716 -0.6204  0.2513  3.2502
  151SAPE   H7Y16755   3.555   2.049   7.712  0.8256 -0.3660  0.4782
  151SAPE   C3816756   3.479   1.954   7.893  0.0896 -0.0480  0.5835
  151SAPE   H8X16757   3.416   1.867   7.920 -2.0938  0.8312 -1.5136
  151SAPE   H8Y16758   3.437   2.040   7.949 -1.7081 -2.0875  2.4636
  151SAPE   C3916759   3.617   1.943   7.948 -0.0856  0.4476 -0.0623
  151SAPE   H9X16760   3.655   2.047   7.942  0.7207  0.0591 -1.9779
  151SAPE   H9Y16761   3.667   1.863   7.889 -0.0651 -1.1554  2.0660
  151SAPE  C31016762   3.632   1.912   8.099 -0.1400 -0.1518 -0.6460
  151SAPE  H10X16763   3.579   1.816   8.115 -0.1348  0.3125  2.3151
  151SAPE  H10Y16764   3.571   1.988   8.152 -0.2210 -0.4132 -0.3667
  151SAPE  C31116765   3.769   1.903   8.155 -0.1567 -0.9202  1.1387
  151SAPE  H11X16766   3.826   1.814   8.119 -2.2864 -1.6446 -0.5846
  151SAPE  H11Y16767   3.745   1.886   8.262 -2.3905 -1.0821  0.6545
  151SAPE  C31216768   3.859   2.018   8.131  0.3379  0.4137  0.2576
  151SAPE  H12X16769   3.817   2.110   8.175 -0.7232 -0.0902  0.3193
  151SAPE  H12Y16770   3.867   2.047   8.024 -1.5302 -0.2903 -0.1111
  151SAPE  C31316771   4.007   2.002   8.182  0.2606  0.4477 -0.0389
  151SAPE  H13X16772   4.055   1.905   8.156  1.5816  1.1907 -0.4226
  151SAPE  H13Y16773   4.008   2.008   8.293 -0.8391  0.2049 -0.0097
  151SAPE  C31416774   4.095   2.115   8.148  0.0907 -0.2094 -0.2172
  151SAPE  H14X16775   4.048   2.207   8.189  1.2041  0.9008 -1.4122
  151SAPE  H14Y16776   4.105   2.109   8.038 -1.2464 -1.8747 -0.2717
  151SAPE  C31516777   4.239   2.111   8.203 -0.5835  0.1533 -0.1329
  151SAPE  H15X16778   4.292   2.022   8.161  1.1088  1.1650 -0.1947
  151SAPE  H15Y16779   4.231   2.095   8.313  1.7905  1.5486  0.2807
  151SAPE  C31616780   4.315   2.247   8.179  0.4430  0.3980  0.2149
  151SAPE  H16X16781   4.259   2.341   8.199 -0.2468  0.1797 -0.6488
  151SAPE  H16Y16782   4.346   2.264   8.073 -0.7931 -0.8812 -0.3776
  151SAPE  C31716783   4.446   2.248   8.253  0.2692  0.2604  0.8187
  151SAPE  H17X16784   4.497   2.151   8.229  1.9734  1.1784  0.6219
  151SAPE  H17Y16785   4.415   2.238   8.359 -1.9128 -2.1356  0.0129
  151SAPE  C31816786   4.534   2.370   8.229  0.5463  0.7360  0.0298
  151SAPE  H18X16787   4.565   2.379   8.123 -0.7537 -2.0174 -0.6389
  151SAPE  H18Y16788   4.622   2.369   8.297  0.3025 -0.5367  0.3499
  151SAPE  H18Z16789   4.471   2.460   8.245 -0.4377  0.0884 -0.1169
  152SAPE     N16790   0.072   5.617   5.918  0.4388 -0.5854  0.3306
  152SAPE   HN116791   0.048   5.695   5.982  1.0570  0.0926 -0.2460
  152SAPE   HN216792   0.173   5.595   5.919  0.4863 -0.3787  0.2657
  152SAPE   HN316793   0.043   5.650   5.823  1.3389  0.1150  0.2907
  152SAPE   C1216794  -0.004   5.497   5.969 -0.6868  0.6254  0.2577
  152SAPE  H12A16795  -0.001   5.414   5.896  2.9520 -0.4914  1.5545
  152SAPE  H12B16796  -0.110   5.529   5.982 -1.0765 -0.0782 -1.1203
  152SAPE   C1116797   0.054   5.453   6.105 -0.2160 -0.3954 -0.1975
  152SAPE  H11A16798  -0.003   5.369   6.150  3.2867 -2.8581 -0.1626
  152SAPE  H11B16799   0.042   5.534   6.180  2.6047 -1.1722  1.1440
  152SAPE     P16800   0.272   5.365   6.220  0.1279  0.4933 -0.5429
  152SAPE   O1316801   0.409   5.313   6.178 -0.2082  0.2637  0.6687
  152SAPE   O1416802   0.274   5.473   6.321  0.0138  0.4102  0.2731
  152SAPE   O1216803   0.190   5.414   6.091  0.1164  0.2725 -0.2763
  152SAPE   O1116804   0.196   5.238   6.271  0.3586  0.1761 -0.5848
  152SAPE    C116805   0.088   5.236   6.361  0.2362  0.6786  0.5165
  152SAPE    HA16806   0.019   5.321   6.340 -0.8863 -0.8042 -2.0290
  152SAPE    HB16807   0.026   5.146   6.344 -1.2763  1.5919  1.1079
  152SAPE    C216808   0.119   5.204   6.511  0.4731 -0.1716  0.3214
  152SAPE    HS16809   0.025   5.170   6.559  0.0156  4.2946  2.8106
  152SAPE   O2116810   0.167   5.321   6.581 -0.2568 -0.6311 -0.2681
  152SAPE   C2116811   0.091   5.366   6.675 -0.0399 -0.1002 -0.4812
  152SAPE   O2216812  -0.028   5.341   6.697  0.2789  0.3799 -0.2058
  152SAPE   C2216813   0.172   5.466   6.751 -0.2179 -0.5640  0.2207
  152SAPE   H2R16814   0.273   5.466   6.706 -1.1935  0.5220 -2.0807
  152SAPE   H2S16815   0.142   5.571   6.730  1.1529 -0.2779 -0.3540
  152SAPE    C316816   0.209   5.080   6.519  0.7628  0.2518  0.5615
  152SAPE    HX16817   0.304   5.086   6.462  0.9003 -3.0629  0.3390
  152SAPE    HY16818   0.142   5.004   6.472 -0.6516  2.0081 -0.3557
  152SAPE   O3116819   0.228   5.031   6.656 -0.2146 -1.1888  0.4563
  152SAPE   C3116820   0.345   5.059   6.710 -0.5535  0.1198  0.8964
  152SAPE   O3216821   0.430   5.134   6.676  0.1880  0.3920 -0.2739
  152SAPE   C3216822   0.353   4.973   6.836 -0.3000 -0.4365  0.3093
  152SAPE   H2X16823   0.391   4.872   6.812 -2.2885 -1.4652  1.4218
  152SAPE   H2Y16824   0.250   4.962   6.875 -1.6041 -0.7340 -3.0048
  152SAPE   C2316825   0.187   5.435   6.896  0.0148  0.6722  0.1531
  152SAPE   H3R16826   0.238   5.337   6.911 -0.8021  0.1435 -0.4769
  152SAPE   H3S16827   0.086   5.407   6.932 -0.8694  0.9017 -2.0570
  152SAPE   C2416828   0.249   5.542   6.977 -0.4896 -0.7147 -0.2861
  152SAPE   H4R16829   0.231   5.511   7.082  0.8772  1.8173  0.7357
  152SAPE   H4S16830   0.189   5.634   6.964 -1.2363 -0.8121  2.1427
  152SAPE   C2516831   0.393   5.567   6.942  0.5689  0.2721  0.2488
  152SAPE   H5R16832   0.402   5.581   6.833  0.0910 -2.2886 -0.1496
  152SAPE   C2616833   0.507   5.561   7.017 -0.3948  0.5938  0.2744
  152SAPE   H6R16834   0.603   5.579   6.965 -1.0204  1.0303 -0.7597
  152SAPE   C2716835   0.523   5.521   7.166 -0.0447  0.0801 -0.6271
  152SAPE   H7R16836   0.426   5.512   7.220  1.2007  1.6194  1.9384
  152SAPE   H7S16837   0.584   5.602   7.211 -1.1396 -0.1242  1.2881
  152SAPE   C2816838   0.588   5.391   7.186  0.0886 -0.2626  0.1570
  152SAPE   H8R16839   0.570   5.313   7.111  0.0927 -0.7061  0.6193
  152SAPE   C2916840   0.677   5.362   7.286 -0.1137  0.6767 -0.8878
  152SAPE   H9R16841   0.716   5.260   7.294 -2.1551 -0.4212 -3.8243
  152SAPE  C21016842   0.725   5.462   7.385  0.0337 -0.0088 -0.0776
  152SAPE  H10R16843   0.628   5.490   7.432 -0.1766  0.8380 -0.9974
  152SAPE  H10S16844   0.769   5.547   7.328 -0.7144  0.4232 -0.0159
  152SAPE  C21116845   0.828   5.404   7.485  0.4360 -0.2588 -0.1517
  152SAPE  H11R16846   0.929   5.394   7.443  0.3435  0.8431 -0.6620
  152SAPE  C21216847   0.796   5.363   7.613  0.1508  0.2513 -0.0113
  152SAPE  H12R16848   0.881   5.332   7.676 -0.6376 -2.0098 -0.0344
  152SAPE  C21316849   0.667   5.373   7.683  0.4658  0.3081  0.5756
  152SAPE  H13R16850   0.578   5.368   7.617 -0.0071  1.4424  1.1101
  152SAPE  H13S16851   0.652   5.468   7.738 -0.2625  0.6642 -0.2332
  152SAPE  C21416852   0.662   5.253   7.775  0.1479  0.8354 -0.5060
  152SAPE  H14R16853   0.675   5.156   7.725 -0.6616  0.3425  0.2345
  152SAPE  C21516854   0.645   5.248   7.905  0.1624  0.7780  0.2005
  152SAPE  H15R16855   0.610   5.156   7.955  1.3494 -0.2088 -0.7768
  152SAPE  C21616856   0.614   5.364   7.996 -0.2553 -0.2876 -0.1881
  152SAPE  H16R16857   0.657   5.458   7.956  2.8508 -1.4579  0.2762
  152SAPE  H16S16858   0.674   5.357   8.089 -3.5806  0.0839  2.0807
  152SAPE  C21716859   0.462   5.381   8.027 -0.0815 -0.3055  0.4505
  152SAPE  H17R16860   0.438   5.276   8.053  1.1247 -0.8654 -0.6155
  152SAPE  H17S16861   0.407   5.398   7.932  0.1114  2.0588  0.7377
  152SAPE  C21816862   0.427   5.476   8.146  0.2589  0.0770  0.3683
  152SAPE  H18R16863   0.316   5.481   8.148 -0.0240 -4.2354  0.8396
  152SAPE  H18S16864   0.453   5.580   8.117 -4.1875  0.3259 -3.4448
  152SAPE  C21916865   0.483   5.429   8.279 -0.4757  0.0195  0.0597
  152SAPE  H19R16866   0.585   5.456   8.312 -0.8340 -0.5118  1.6489
  152SAPE  H19S16867   0.499   5.320   8.267 -1.2184 -0.0682 -0.1434
  152SAPE  C22016868   0.382   5.445   8.395  0.3188 -0.1047 -0.4987
  152SAPE  H20R16869   0.298   5.378   8.369  0.5709 -1.1115  1.1840
  152SAPE  H20S16870   0.351   5.551   8.407 -1.5306 -0.7278  0.3222
  152SAPE  H20T16871   0.428   5.417   8.492 -0.8593 -1.9914 -0.4641
  152SAPE   C3316872   0.432   5.039   6.952  0.2085  0.1137  0.0660
  152SAPE   H3X16873   0.378   5.134   6.971  1.5422  0.7704  0.6351
  152SAPE   H3Y16874   0.528   5.071   6.905 -0.3832  0.7397 -0.7182
  152SAPE   C3416875   0.435   4.951   7.075 -0.3666  0.6886 -0.5815
  152SAPE   H4X16876   0.531   4.953   7.131  0.2717  1.2816 -1.6637
  152SAPE   H4Y16877   0.421   4.849   7.034  0.2241 -1.1787  3.6615
  152SAPE   C3516878   0.314   4.971   7.163  0.0286 -0.2378 -0.4211
  152SAPE   H5X16879   0.314   4.899   7.248 -1.6624  0.6871  0.3876
  152SAPE   H5Y16880   0.224   4.947   7.101 -0.4511  1.0744 -0.2397
  152SAPE   C3616881   0.295   5.107   7.225 -0.0735  0.3303  0.4945
  152SAPE   H6X16882   0.266   5.182   7.148  0.9384 -1.2157 -1.4505
  152SAPE   H6Y16883   0.393   5.132   7.269  1.1485 -1.9410 -0.8481
  152SAPE   C3716884   0.189   5.104   7.337  0.9292  0.7013  0.1973
  152SAPE   H7X16885   0.181   4.998   7.370 -0.8681  1.2382  1.6098
  152SAPE   H7Y16886   0.092   5.145   7.301  0.8150 -0.2496 -0.6141
  152SAPE   C3816887   0.230   5.176   7.466  0.3335  0.1521 -0.5300
  152SAPE   H8X16888   0.195   5.281   7.453 -1.6261 -0.5187 -0.8740
  152SAPE   H8Y16889   0.341   5.169   7.475  0.3095  1.9324  1.6621
  152SAPE   C3916890   0.149   5.128   7.591 -0.9506 -0.3186  0.5216
  152SAPE   H9X16891   0.192   5.026   7.605  0.5457  0.1466 -0.5231
  152SAPE   H9Y16892   0.042   5.123   7.561 -0.5341 -1.8644 -0.7846
  152SAPE  C31016893   0.168   5.211   7.713 -0.2672 -0.6359 -0.7104
  152SAPE  H10X16894   0.149   5.319   7.694 -0.9873 -0.3042  1.7272
  152SAPE  H10Y16895   0.269   5.202   7.756  0.1695 -0.9849 -1.7843
  152SAPE  C31116896   0.077   5.171   7.832  0.0361 -0.1639 -0.1479
  152SAPE  H11X16897   0.056   5.062   7.841  1.4136 -0.4668 -0.5081
  152SAPE  H11Y16898  -0.014   5.233   7.818  0.7315  1.1634  1.0473
  152SAPE  C31216899   0.145   5.216   7.967 -0.4808 -0.5353 -0.1602
  152SAPE  H12X16900   0.166   5.324   7.954 -0.4790 -0.6975 -1.5730
  152SAPE  H12Y16901   0.244   5.168   7.986 -0.3705 -0.5108 -0.6565
  152SAPE  C31316902   0.062   5.217   8.097 -0.3230 -0.6654 -0.0202
  152SAPE  H13X16903  -0.012   5.300   8.090 -2.2366 -2.2747  0.8459
  152SAPE  H13Y16904   0.136   5.241   8.177  0.2391 -1.6990 -0.2209
  152SAPE  C31416905  -0.000   5.083   8.124  0.3504 -0.2913 -0.1132
  152SAPE  H14X16906   0.058   5.012   8.062  1.1189 -0.7729  1.1352
  152SAPE  H14Y16907  -0.106   5.091   8.090  0.9114  0.4118 -1.7011
  152SAPE  C31516908   0.004   5.039   8.267  0.1821 -0.2396 -0.0344
  152SAPE  H15X16909  -0.038   5.114   8.337  0.0203 -0.1272 -0.2523
  152SAPE  H15Y16910   0.111   5.038   8.297 -0.2389  0.4941  1.5547
  152SAPE  C31616911  -0.053   4.907   8.295 -0.3431 -0.5095 -0.3760
  152SAPE  H16X16912   0.006   4.838   8.232 -1.9530 -1.4719 -0.8647
  152SAPE  H16Y16913  -0.154   4.904   8.249 -0.4410 -2.2291 -0.0723
  152SAPE  C31716914  -0.051   4.861   8.445  0.4317 -0.3297  0.3899
  152SAPE  H17X16915  -0.085   4.756   8.442 -0.2364 -0.0766 -1.8677
  152SAPE  H17Y16916  -0.119   4.929   8.499 -3.0485 -1.8850 -1.8764
  152SAPE  C31816917   0.091   4.863   8.501  0.2215 -0.4931 -0.3204
  152SAPE  H18X16918   0.173   4.814   8.444  0.3939 -0.3898 -0.1603
  152SAPE  H18Y16919   0.085   4.809   8.598  1.2401  0.1980  0.1371
  152SAPE  H18Z16920   0.120   4.967   8.526 -0.8519 -0.4265  0.6995
  153SAPE     N16921   3.055   6.488   6.282  0.4212 -0.0299  0.3613
  153SAPE   HN116922   2.974   6.457   6.225  0.2697 -2.7816  2.0124
  153SAPE   HN216923   3.059   6.430   6.368 -0.0439 -3.7490 -2.0379
  153SAPE   HN316924   3.045   6.586   6.315 -2.5913 -0.5063  1.0055
  153SAPE   C1216925   3.169   6.460   6.197  0.3016 -0.2794 -0.4263
  153SAPE  H12A16926   3.135   6.456   6.091 -0.3009  1.2580 -0.3130
  153SAPE  H12B16927   3.216   6.362   6.219 -0.0273 -0.1389  0.9689
  153SAPE   C1116928   3.285   6.571   6.212  0.8807 -0.0237 -0.6365
  153SAPE  H11A16929   3.242   6.671   6.187 -3.3531 -1.1908  1.3792
  153SAPE  H11B16930   3.349   6.546   6.125 -0.2625  0.0703 -1.5161
  153SAPE     P16931   3.478   6.492   6.369  0.0884 -0.1270  0.1510
  153SAPE   O1316932   3.444   6.350   6.353 -0.1452 -0.3461 -0.0275
  153SAPE   O1416933   3.581   6.550   6.279  0.6186  0.2484  0.0033
  153SAPE   O1216934   3.341   6.573   6.341  0.1233  0.4283 -0.5254
  153SAPE   O1116935   3.512   6.519   6.525 -0.4851  0.4895  0.0703
  153SAPE    C116936   3.473   6.642   6.575  0.0596  0.4726  0.2872
  153SAPE    HA16937   3.535   6.714   6.518  0.2175  0.3499  0.3051
  153SAPE    HB16938   3.366   6.660   6.552 -0.2130  1.1359  2.0203
  153SAPE    C216939   3.482   6.660   6.728  0.3655 -0.3802 -0.6590
  153SAPE    HS16940   3.438   6.757   6.760  0.0431 -1.3745  1.9549
  153SAPE   O2116941   3.614   6.645   6.775  0.1377  0.0600  0.2706
  153SAPE   C2116942   3.688   6.753   6.746  0.4747 -0.0381 -0.3795
  153SAPE   O2216943   3.651   6.851   6.683 -0.2585 -1.0879  0.0490
  153SAPE   C2216944   3.822   6.752   6.821 -0.4999  0.1577  0.4806
  153SAPE   H2R16945   3.894   6.692   6.762 -0.3581  1.9556 -1.2374
  153SAPE   H2S16946   3.848   6.860   6.811 -1.1373  0.2155 -0.7304
  153SAPE    C316947   3.392   6.548   6.795 -0.3676  0.2253 -0.0068
  153SAPE    HX16948   3.434   6.446   6.785  0.2943  0.4960 -0.0321
  153SAPE    HY16949   3.299   6.547   6.734 -0.0890 -0.4609 -0.4276
  153SAPE   O3116950   3.366   6.575   6.939 -0.4143 -0.1198  0.4421
  153SAPE   C3116951   3.450   6.514   7.024 -0.8177 -0.0889  0.3786
  153SAPE   O3216952   3.549   6.445   6.995 -0.0148  0.3582  0.2622
  153SAPE   C3216953   3.402   6.539   7.160 -0.2092  0.1825  0.0481
  153SAPE   H2X16954   3.291   6.534   7.169 -0.4798  0.0318 -2.7888
  153SAPE   H2Y16955   3.432   6.640   7.194  0.8235  0.5316 -1.8721
  153SAPE   C2316956   3.807   6.704   6.966  0.3101 -0.5452  0.5050
  153SAPE   H3R16957   3.729   6.625   6.969  0.6340 -0.8695  0.4252
  153SAPE   H3S16958   3.789   6.780   7.044  0.3909 -0.4070  0.3878
  153SAPE   C2416959   3.930   6.630   7.017  0.0487  0.1355 -0.1560
  153SAPE   H4R16960   4.003   6.711   7.036  0.4408 -0.4161  0.6905
  153SAPE   H4S16961   3.961   6.566   6.932 -0.1515 -0.1145 -0.0437
  153SAPE   C2516962   3.897   6.551   7.136  0.1527  0.4233 -0.2308
  153SAPE   H5R16963   3.796   6.508   7.131 -0.6495  1.9458  2.3208
  153SAPE   C2616964   3.960   6.551   7.253 -0.2645  0.3892 -0.0021
  153SAPE   H6R16965   3.923   6.472   7.320  1.3577  0.7997  1.4047
  153SAPE   C2716966   4.082   6.622   7.302  0.7915  0.3598  0.0244
  153SAPE   H7R16967   4.070   6.691   7.388  2.4883 -1.2492  1.6054
  153SAPE   H7S16968   4.107   6.689   7.217 -3.6852 -0.1120 -1.8011
  153SAPE   C2816969   4.196   6.528   7.329 -0.2844 -0.4409 -0.0528
  153SAPE   H8R16970   4.249   6.487   7.242  0.7466 -1.2491  0.9527
  153SAPE   C2916971   4.215   6.458   7.440 -0.1705  0.7943  0.6783
  153SAPE   H9R16972   4.304   6.395   7.448 -0.5708 -0.0734 -1.4622
  153SAPE  C21016973   4.126   6.461   7.565 -0.0508 -0.2261 -0.1566
  153SAPE  H10R16974   4.081   6.361   7.579  1.1874 -0.5657  1.5218
  153SAPE  H10S16975   4.039   6.529   7.550 -2.1977 -2.7301  0.6271
  153SAPE  C21116976   4.198   6.498   7.691  0.4472 -0.1212 -0.9862
  153SAPE  H11R16977   4.305   6.520   7.679 -0.0676  2.6951 -0.7480
  153SAPE  C21216978   4.150   6.523   7.817  0.2346  0.1249  0.0098
  153SAPE  H12R16979   4.228   6.560   7.885  1.5792  2.3053 -2.6198
  153SAPE  C21316980   4.005   6.530   7.870 -0.0252 -0.2457  0.8818
  153SAPE  H13R16981   3.938   6.583   7.799  1.2487  1.1429  0.6957
  153SAPE  H13S16982   4.006   6.599   7.956 -0.6796  0.4816  0.3159
  153SAPE  C21416983   3.941   6.399   7.913  0.5993 -0.2297  0.1093
  153SAPE  H14R16984   3.874   6.353   7.838 -1.1115  1.3778  0.5976
  153SAPE  C21516985   3.969   6.339   8.035 -0.2282 -0.2712  0.9003
  153SAPE  H15R16986   3.931   6.236   8.040 -1.1022  0.0310  0.5710
  153SAPE  C21616987   4.063   6.379   8.152  0.0895  0.0689  0.2247
  153SAPE  H16R16988   4.116   6.471   8.120  0.1484 -0.2405 -0.5760
  153SAPE  H16S16989   4.136   6.296   8.158 -0.1395 -0.5068 -3.4536
  153SAPE  C21716990   3.998   6.405   8.291 -0.2367  0.4845  0.3649
  153SAPE  H17R16991   3.945   6.312   8.321 -0.5694  0.8772  0.9758
  153SAPE  H17S16992   3.913   6.472   8.269  0.4790  0.7034 -1.9464
  153SAPE  C21816993   4.101   6.451   8.392 -0.0760 -0.6440  0.4461
  153SAPE  H18R16994   4.036   6.473   8.480 -0.9490 -0.0856 -0.3210
  153SAPE  H18S16995   4.131   6.556   8.370 -2.6878  1.0786  4.2972
  153SAPE  C21916996   4.215   6.354   8.423 -0.1733  1.4247 -0.2808
  153SAPE  H19R16997   4.259   6.317   8.328 -0.7851 -1.1534  0.4116
  153SAPE  H19S16998   4.178   6.265   8.478 -1.7700  2.5710  0.5206
  153SAPE  C22016999   4.336   6.413   8.498  0.0799 -0.2966  0.1299
  153SAPE  H20R17000   4.301   6.440   8.600  3.7886  1.5190  1.0232
  153SAPE  H20S17001   4.363   6.502   8.437 -1.0097 -0.6673 -0.9030
  153SAPE  H20T17002   4.423   6.344   8.502 -0.3679 -0.9081 -0.8370
  153SAPE   C3317003   3.451   6.434   7.263 -0.1292  0.1648 -0.4311
  153SAPE   H3X17004   3.561   6.427   7.271 -0.1777  0.9958  1.4433
  153SAPE   H3Y17005   3.416   6.331   7.241  1.5076 -0.1949 -1.4085
  153SAPE   C3417006   3.396   6.471   7.398 -0.0058  0.4130 -0.3314
  153SAPE   H4X17007   3.287   6.486   7.382  0.1346  2.0292  0.0629
  153SAPE   H4Y17008   3.440   6.571   7.420 -0.0911  0.6337 -1.1284
  153SAPE   C3517009   3.426   6.370   7.510 -0.5847  0.4836  0.0687
  153SAPE   H5X17010   3.533   6.341   7.506 -0.1795  1.7025  1.3930
  153SAPE   H5Y17011   3.370   6.277   7.489 -1.0117  0.6321  0.5332
  153SAPE   C3617012   3.399   6.438   7.646  0.1717  0.1410  0.1159
  153SAPE   H6X17013   3.288   6.447   7.655  0.1341 -0.4899  0.2542
  153SAPE   H6Y17014   3.447   6.538   7.639 -1.0432  0.5981 -2.3717
  153SAPE   C3717015   3.454   6.358   7.769  0.3023 -0.1404  0.3926
  153SAPE   H7X17016   3.561   6.328   7.757  0.4940  0.1973  1.2216
  153SAPE   H7Y17017   3.398   6.263   7.778  1.0437 -0.7861 -1.5776
  153SAPE   C3817018   3.429   6.434   7.899 -0.0548  0.6702 -0.2019
  153SAPE   H8X17019   3.327   6.478   7.891 -1.3394 -1.8609  1.5039
  153SAPE   H8Y17020   3.504   6.514   7.919  0.5660  0.4761 -1.7022
  153SAPE   C3917021   3.422   6.346   8.024 -0.2002  0.8322  0.2952
  153SAPE   H9X17022   3.517   6.293   8.044  0.1800  0.8378 -1.4259
  153SAPE   H9Y17023   3.348   6.266   8.004 -1.0265  1.4233  0.9338
  153SAPE  C31017024   3.368   6.408   8.155  0.4098  0.1812 -0.0331
  153SAPE  H10X17025   3.264   6.432   8.124  0.4071  0.5425  0.2431
  153SAPE  H10Y17026   3.418   6.502   8.189 -0.0031  0.2255  0.4709
  153SAPE  C31117027   3.389   6.314   8.277 -0.4376 -0.5399 -0.0667
  153SAPE  H11X17028   3.360   6.210   8.253  0.2127 -1.0457  1.2909
  153SAPE  H11Y17029   3.327   6.346   8.364  0.0053  0.1707 -0.0085
  153SAPE  C31217030   3.540   6.312   8.313  0.4493 -0.4317 -0.2915
  153SAPE  H12X17031   3.581   6.415   8.325 -2.3433  0.6325  0.5447
  153SAPE  H12Y17032   3.600   6.255   8.239  0.3861 -0.5445 -0.2547
  153SAPE  C31317033   3.551   6.246   8.453  0.7459  0.7741 -0.1348
  153SAPE  H13X17034   3.494   6.152   8.438 -1.1586  1.9880 -0.8155
  153SAPE  H13Y17035   3.496   6.317   8.519  1.5473  0.7795  0.5327
  153SAPE  C31417036   3.690   6.236   8.507 -0.0052  0.1032  0.0824
  153SAPE  H14X17037   3.746   6.327   8.537 -0.8737  0.4236  0.7189
  153SAPE  H14Y17038   3.745   6.201   8.417 -0.3295  2.4282 -1.0311
  153SAPE  C31517039   3.711   6.134   8.627  0.3437  0.6515  0.8097
  153SAPE  H15X17040   3.685   6.031   8.592 -0.2683  0.6722  1.1931
  153SAPE  H15Y17041   3.654   6.165   8.717  0.4699 -0.0050  1.1118
  153SAPE  C31617042   3.853   6.126   8.683  0.3274  0.1339  0.1378
  153SAPE  H16X17043   3.913   6.115   8.590  1.1708  2.7590  0.3399
  153SAPE  H16Y17044   3.879   6.037   8.743 -3.7271 -0.5768  0.9419
  153SAPE  C31717045   3.918   6.242   8.753  0.2542  0.6720 -0.1259
  153SAPE  H17X17046   3.872   6.274   8.849  0.3817  0.7742 -0.1005
  153SAPE  H17Y17047   3.908   6.334   8.692 -0.0922  0.3149 -0.6084
  153SAPE  C31817048   4.060   6.202   8.780 -0.2959  0.1801 -0.1119
  153SAPE  H18X17049   4.083   6.125   8.856  0.1354  0.3200 -0.0997
  153SAPE  H18Y17050   4.128   6.288   8.798  0.7114 -0.6411  0.0404
  153SAPE  H18Z17051   4.115   6.170   8.689  0.3717  4.3881 -1.2990
  154SAPE     N17052   1.290   4.806   6.143  0.4110  0.0413  0.6961
  154SAPE   HN117053   1.219   4.834   6.073  0.3276 -0.5046  0.5575
  154SAPE   HN217054   1.244   4.743   6.212  0.8659 -0.3450  0.6546
  154SAPE   HN317055   1.297   4.897   6.192  1.7580 -0.3816  1.3097
  154SAPE   C1217056   1.416   4.759   6.084  0.0791 -0.1654  1.4854
  154SAPE  H12A17057   1.389   4.707   5.989  1.4338 -0.8766  1.4731
  154SAPE  H12B17058   1.464   4.690   6.157 -0.4447 -1.2009  0.8618
  154SAPE   C1117059   1.514   4.875   6.045 -0.6158 -0.7550  0.2585
  154SAPE  H11A17060   1.461   4.946   5.979  1.2090  0.1403 -0.2764
  154SAPE  H11B17061   1.589   4.829   5.977  0.2319  0.7602  0.1491
  154SAPE     P17062   1.719   4.887   6.223 -0.4023  0.2936 -0.1170
  154SAPE   O1317063   1.777   4.777   6.149  0.4412  0.2306  0.3008
  154SAPE   O1417064   1.805   5.006   6.236 -0.1896 -0.6263  0.3365
  154SAPE   O1217065   1.580   4.931   6.163  0.2075  0.2807  0.2481
  154SAPE   O1117066   1.679   4.833   6.367 -0.4104  0.0804 -0.0046
  154SAPE    C117067   1.557   4.867   6.428  0.3135 -0.6507 -0.5062
  154SAPE    HA17068   1.516   4.959   6.380 -0.5319 -1.3319 -1.1198
  154SAPE    HB17069   1.490   4.784   6.398 -0.5667  0.8655 -2.8706
  154SAPE    C217070   1.558   4.886   6.582 -0.8439 -0.0325 -0.3065
  154SAPE    HS17071   1.460   4.933   6.602 -0.4449  0.7103 -0.0543
  154SAPE   O2117072   1.672   4.966   6.637  0.0955  0.7131 -0.3510
  154SAPE   C2117073   1.660   5.103   6.623 -0.3866 -0.1922  0.0889
  154SAPE   O2217074   1.563   5.155   6.567  0.2282 -0.1002  0.4519
  154SAPE   C2217075   1.781   5.169   6.689  0.6620  0.0916 -1.4902
  154SAPE   H2R17076   1.787   5.127   6.792 -1.2568  0.2564 -1.3050
  154SAPE   H2S17077   1.870   5.133   6.632  2.2148 -0.2997  1.0688
  154SAPE    C317078   1.548   4.745   6.659 -0.2831  0.4908  0.1914
  154SAPE    HX17079   1.623   4.682   6.606  0.0462 -0.3565  1.6590
  154SAPE    HY17080   1.456   4.691   6.628  2.3511 -4.3458  0.3180
  154SAPE   O3117081   1.556   4.765   6.803 -0.3958  0.4450 -0.0525
  154SAPE   C3117082   1.435   4.804   6.853  0.4477 -0.9858  0.4470
  154SAPE   O3217083   1.336   4.809   6.783  0.0025 -0.1986  0.6309
  154SAPE   C3217084   1.452   4.860   6.992  0.4830 -0.3435  0.3550
  154SAPE   H2X17085   1.453   4.971   6.982  0.6427 -0.5317 -2.0679
  154SAPE   H2Y17086   1.555   4.830   7.020  0.2156 -0.2880  1.4250
  154SAPE   C2317087   1.765   5.321   6.702 -0.4414  0.2508  0.1683
  154SAPE   H3R17088   1.687   5.336   6.780 -2.4462 -1.7841 -1.3815
  154SAPE   H3S17089   1.744   5.373   6.606 -3.1365 -2.6052 -0.8586
  154SAPE   C2417090   1.898   5.380   6.745 -0.5271  0.0683  0.1250
  154SAPE   H4R17091   1.973   5.356   6.666  0.1292 -1.3028  1.1560
  154SAPE   H4S17092   1.942   5.334   6.836  1.6163  0.3794 -0.7110
  154SAPE   C2517093   1.874   5.527   6.765 -0.2222 -0.7316 -0.2759
  154SAPE   H5R17094   1.769   5.560   6.761 -0.2642 -0.5779  1.4992
  154SAPE   C2617095   1.969   5.629   6.772 -0.3247  0.0926 -0.5694
  154SAPE   H6R17096   1.936   5.732   6.793  1.4617  0.4134  0.8294
  154SAPE   C2717097   2.112   5.596   6.772 -0.2373  0.4288  0.4462
  154SAPE   H7R17098   2.149   5.640   6.677  0.8185 -2.0962 -0.3664
  154SAPE   H7S17099   2.132   5.487   6.762  2.1827  1.1224 -3.1559
  154SAPE   C2817100   2.195   5.641   6.884  0.1400  0.9515 -0.0624
  154SAPE   H8R17101   2.238   5.743   6.876  0.6305  0.9163  1.9928
  154SAPE   C2917102   2.248   5.574   6.993  0.3289  0.7188 -0.3332
  154SAPE   H9R17103   2.311   5.620   7.070 -0.5207 -0.0482  0.8410
  154SAPE  C21017104   2.219   5.428   7.022  0.0342  0.4703  0.6981
  154SAPE  H10R17105   2.156   5.379   6.945  0.2611 -0.4095  1.0644
  154SAPE  H10S17106   2.165   5.427   7.119  1.7145  0.7254  1.6562
  154SAPE  C21117107   2.348   5.348   7.028 -0.4432 -0.1448 -0.0471
  154SAPE  H11R17108   2.411   5.350   6.938  0.7493  0.4757  0.7960
  154SAPE  C21217109   2.384   5.271   7.135 -0.7964  0.7560  0.0377
  154SAPE  H12R17110   2.483   5.223   7.138 -1.0229  0.3334  1.1095
  154SAPE  C21317111   2.318   5.249   7.266  0.5729 -0.2107 -0.0968
  154SAPE  H13R17112   2.255   5.158   7.260 -0.7111  0.7459 -1.5596
  154SAPE  H13S17113   2.241   5.328   7.280 -1.7706 -2.5233  0.3545
  154SAPE  C21417114   2.417   5.254   7.385 -0.1325  0.4879  0.0224
  154SAPE  H14R17115   2.492   5.334   7.378  1.9412 -1.4349 -0.3297
  154SAPE  C21517116   2.406   5.190   7.503  0.0818  0.3432  0.2371
  154SAPE  H15R17117   2.480   5.224   7.577 -1.2885  0.3235  1.6244
  154SAPE  C21617118   2.297   5.104   7.548  0.4806 -0.8886 -0.6697
  154SAPE  H16R17119   2.284   5.008   7.493  0.9826 -1.7278  0.6483
  154SAPE  H16S17120   2.203   5.161   7.531 -0.8357 -3.0434 -0.7647
  154SAPE  C21717121   2.296   5.085   7.708 -0.2800 -0.0415  0.1185
  154SAPE  H17R17122   2.399   5.064   7.745  0.1339  1.8238  0.0576
  154SAPE  H17S17123   2.237   4.995   7.739 -0.3915  0.0513  0.1735
  154SAPE  C21817124   2.252   5.212   7.785 -0.2415  0.1702 -0.9150
  154SAPE  H18R17125   2.142   5.217   7.794 -0.0008  0.2097  2.6987
  154SAPE  H18S17126   2.298   5.296   7.729 -0.5248  1.6342  1.0061
  154SAPE  C21917127   2.280   5.219   7.940  0.1398 -0.4498 -0.6651
  154SAPE  H19R17128   2.390   5.211   7.953 -0.0380  0.7895  1.7525
  154SAPE  H19S17129   2.238   5.132   7.994 -0.0726 -0.3255 -0.6318
  154SAPE  C22017130   2.230   5.344   8.005  0.1587  0.0563  0.0823
  154SAPE  H20R17131   2.121   5.357   7.985  0.1158  0.3937  0.5276
  154SAPE  H20S17132   2.287   5.430   7.964  1.6308 -0.3317  1.2972
  154SAPE  H20T17133   2.236   5.353   8.115  0.5513 -1.8147  0.2350
  154SAPE   C3317134   1.350   4.816   7.100  0.4094  0.2910 -1.0070
  154SAPE   H3X17135   1.374   4.714   7.136 -0.1090  0.5643  0.1380
  154SAPE   H3Y17136   1.247   4.819   7.061  0.4097 -1.0383 -1.1304
  154SAPE   C3417137   1.356   4.926   7.209  0.6177 -0.1876  0.0729
  154SAPE   H4X17138   1.305   5.020   7.178 -3.2112 -0.4283  5.0094
  154SAPE   H4Y17139   1.463   4.944   7.230  0.5071  0.8330 -0.2319
  154SAPE   C3517140   1.285   4.867   7.335 -0.7186  0.5285  0.5620
  154SAPE   H5X17141   1.318   4.762   7.351  0.4234  0.4701 -1.9781
  154SAPE   H5Y17142   1.176   4.856   7.315 -0.1750 -1.1624 -1.7497
  154SAPE   C3617143   1.325   4.949   7.460  1.0636 -0.0046  0.7595
  154SAPE   H6X17144   1.287   5.050   7.435 -0.5011 -0.9879 -0.9872
  154SAPE   H6Y17145   1.435   4.958   7.470  0.9866  1.1999  0.5379
  154SAPE   C3717146   1.262   4.902   7.596 -0.8341 -0.8897  0.2676
  154SAPE   H7X17147   1.297   4.798   7.614  0.3223 -0.4873  0.3980
  154SAPE   H7Y17148   1.152   4.899   7.579 -0.9252  1.1620  0.3463
  154SAPE   C3817149   1.285   4.991   7.717 -0.3983  0.4160 -0.5961
  154SAPE   H8X17150   1.275   5.094   7.676  1.6237  0.0088 -2.1863
  154SAPE   H8Y17151   1.392   4.987   7.745 -1.0321 -0.9095  1.7861
  154SAPE   C3917152   1.192   4.957   7.835  0.2922  0.0667  0.3083
  154SAPE   H9X17153   1.211   4.853   7.867 -0.0608  0.0439  0.4420
  154SAPE   H9Y17154   1.082   4.968   7.822  0.5421  1.3749 -0.8585
  154SAPE  C31017155   1.238   5.041   7.958 -0.7327  0.6790 -0.0229
  154SAPE  H10X17156   1.155   5.010   8.025 -0.5641 -0.9371 -0.5400
  154SAPE  H10Y17157   1.225   5.148   7.933  1.7149  1.0062 -0.0571
  154SAPE  C31117158   1.377   4.998   8.014  0.3839  0.8461  0.4878
  154SAPE  H11X17159   1.464   5.013   7.946  0.5243 -2.5942 -0.1844
  154SAPE  H11Y17160   1.382   4.890   8.040  1.1687  1.0731  1.3222
  154SAPE  C31217161   1.415   5.091   8.134 -0.4410  0.2861 -0.4973
  154SAPE  H12X17162   1.389   5.197   8.112  2.6085  0.7514 -2.1897
  154SAPE  H12Y17163   1.524   5.073   8.143 -0.3637  1.2874  0.7437
  154SAPE  C31317164   1.354   5.039   8.262  0.4048 -0.4198 -0.3255
  154SAPE  H13X17165   1.397   4.943   8.299 -1.0040 -0.1802  2.0221
  154SAPE  H13Y17166   1.244   5.023   8.256  0.4498 -1.0153  0.3337
  154SAPE  C31417167   1.392   5.136   8.376  0.0612  0.7868  0.3012
  154SAPE  H14X17168   1.331   5.227   8.358 -0.1537  0.5515 -0.1501
  154SAPE  H14Y17169   1.500   5.165   8.371  0.9863 -2.3809  0.8395
  154SAPE  C31517170   1.363   5.063   8.507  0.0416  0.2551 -0.5706
  154SAPE  H15X17171   1.431   4.976   8.521  3.5794  3.3264  2.1100
  154SAPE  H15Y17172   1.258   5.026   8.515  0.2244 -0.2030 -0.2106
  154SAPE  C31617173   1.393   5.161   8.621  0.5077 -0.0110 -0.1008
  154SAPE  H16X17174   1.302   5.222   8.636  0.4176 -0.3115  0.5982
  154SAPE  H16Y17175   1.489   5.213   8.598 -0.1632  1.8293  1.1152
  154SAPE  C31717176   1.415   5.100   8.760 -0.1586 -0.5663 -0.3054
  154SAPE  H17X17177   1.512   5.046   8.753 -0.2577 -0.7411 -0.3101
  154SAPE  H17Y17178   1.339   5.026   8.792 -0.7681 -0.3214 -1.1784
  154SAPE  C31817179   1.413   5.197   8.874  0.3058  0.2631 -0.1222
  154SAPE  H18X17180   1.314   5.246   8.884  0.7209  0.9639  0.5330
  154SAPE  H18Y17181   1.491   5.275   8.858  0.0120  1.0891  2.3725
  154SAPE  H18Z17182   1.441   5.163   8.976  1.1443  0.7283 -0.1941
  155SAPE     N17183   1.363   5.966   6.361  0.1889 -0.4062  0.1487
  155SAPE   HN117184   1.303   5.898   6.311 -0.1492 -0.3292  0.4448
  155SAPE   HN217185   1.405   6.016   6.280  0.5672 -2.8975 -1.2135
  155SAPE   HN317186   1.441   5.912   6.404  0.2302 -0.9334 -0.5835
  155SAPE   C1217187   1.286   6.050   6.465 -1.0717  0.5298 -0.3668
  155SAPE  H12A17188   1.251   5.986   6.549 -1.0128 -0.7560 -1.3206
  155SAPE  H12B17189   1.195   6.096   6.421 -1.7070  2.1366  2.4487
  155SAPE   C1117190   1.387   6.157   6.518  0.1596  0.1644  0.3198
  155SAPE  H11A17191   1.324   6.211   6.592  1.3932  0.4293  1.1969
  155SAPE  H11B17192   1.421   6.217   6.431  0.2086 -0.0186  0.2122
  155SAPE     P17193   1.644   6.156   6.561  0.1177  0.0739 -0.7214
  155SAPE   O1317194   1.711   6.071   6.463  0.0751  0.4326  0.1489
  155SAPE   O1417195   1.631   6.293   6.519  0.0775  0.5134  0.1767
  155SAPE   O1217196   1.495   6.098   6.589 -0.4785  0.5147 -0.8922
  155SAPE   O1117197   1.718   6.155   6.706 -0.5751  0.2295  0.3853
  155SAPE    C117198   1.659   6.228   6.812 -0.2023  0.0473  0.1536
  155SAPE    HA17199   1.679   6.337   6.801 -1.1830  0.0667 -1.6160
  155SAPE    HB17200   1.551   6.202   6.812  0.1761 -1.6736 -1.6748
  155SAPE    C217201   1.736   6.195   6.940  0.2703  0.1288 -0.9144
  155SAPE    HS17202   1.844   6.214   6.920  1.4032 -2.6405  2.1361
  155SAPE   O2117203   1.711   6.055   6.983 -0.4970 -0.4138 -0.2426
  155SAPE   C2117204   1.782   5.955   6.958 -0.6770  0.0776 -0.3114
  155SAPE   O2217205   1.882   5.951   6.888  0.0434 -0.9033  0.5363
  155SAPE   C2217206   1.718   5.832   7.038 -0.0961  0.7921  1.1326
  155SAPE   H2R17207   1.616   5.812   7.001  0.5788 -1.4885  0.4212
  155SAPE   H2S17208   1.791   5.749   7.022 -0.7924  0.0692  1.6581
  155SAPE    C317209   1.711   6.298   7.060  0.1836 -0.3504 -0.3495
  155SAPE    HX17210   1.601   6.297   7.072  0.2705  1.6956  0.8211
  155SAPE    HY17211   1.734   6.401   7.028  2.3411 -0.0486  2.0023
  155SAPE   O3117212   1.778   6.251   7.179  0.0861 -0.1124 -0.2554
  155SAPE   C3117213   1.722   6.274   7.297  0.3563  0.0688  0.0872
  155SAPE   O3217214   1.624   6.342   7.314 -0.3794 -0.0806 -0.7181
  155SAPE   C3217215   1.805   6.220   7.415 -0.4909  0.1515 -0.3847
  155SAPE   H2X17216   1.903   6.271   7.406 -0.8754  0.3843 -4.1331
  155SAPE   H2Y17217   1.817   6.110   7.403  0.4240  0.3386 -1.2473
  155SAPE   C2317218   1.721   5.835   7.192  0.6124  0.2521 -0.2064
  155SAPE   H3R17219   1.636   5.895   7.230  0.2093 -1.9959  2.5952
  155SAPE   H3S17220   1.810   5.895   7.222  0.3017  0.0480  1.1486
  155SAPE   C2417221   1.724   5.696   7.258  0.2554 -0.9721 -0.5925
  155SAPE   H4R17222   1.821   5.656   7.223  0.4297 -2.9015  1.9955
  155SAPE   H4S17223   1.639   5.634   7.220 -0.9994  1.2439 -1.5451
  155SAPE   C2517224   1.720   5.701   7.409 -0.2837 -0.1120 -0.3447
  155SAPE   H5R17225   1.623   5.677   7.455 -2.1950  1.6727 -3.2900
  155SAPE   C2617226   1.819   5.708   7.495 -0.6256 -0.9250 -0.1503
  155SAPE   H6R17227   1.798   5.722   7.602 -2.4954  0.3347 -0.6550
  155SAPE   C2717228   1.961   5.705   7.463 -0.6679  0.2804  0.0308
  155SAPE   H7R17229   2.006   5.790   7.519  0.6977  0.1899 -0.9141
  155SAPE   H7S17230   1.978   5.733   7.357  0.7531 -1.1780 -0.1418
  155SAPE   C2817231   2.044   5.579   7.484  0.0367  0.6570 -0.5921
  155SAPE   H8R17232   2.052   5.516   7.394  0.1297 -1.0632  0.5967
  155SAPE   C2917233   2.089   5.541   7.609 -0.1081  0.3051  0.3389
  155SAPE   H9R17234   2.141   5.444   7.611 -0.3897 -0.0207 -3.1958
  155SAPE  C21017235   2.074   5.612   7.742  0.3360 -0.3107 -1.0594
  155SAPE  H10R17236   2.080   5.721   7.723 -1.4417  0.3062  1.6142
  155SAPE  H10S17237   2.173   5.597   7.790  0.1912  1.1971 -0.2506
  155SAPE  C21117238   1.963   5.556   7.825  0.3568  0.2795  0.3921
  155SAPE  H11R17239   1.955   5.447   7.837 -0.1360  0.3402  0.6377
  155SAPE  C21217240   1.864   5.622   7.890 -0.0765 -0.4092 -0.5187
  155SAPE  H12R17241   1.797   5.565   7.956  2.7099 -1.0694  1.8942
  155SAPE  C21317242   1.847   5.774   7.895 -0.5547  0.5400  0.0958
  155SAPE  H13R17243   1.758   5.802   7.835 -1.4793  1.2239  1.7432
  155SAPE  H13S17244   1.943   5.825   7.869 -0.3782  0.2897  0.2611
  155SAPE  C21417245   1.824   5.814   8.038  0.1374  0.1953  0.0213
  155SAPE  H14R17246   1.720   5.790   8.062  0.1249 -0.5473 -0.7557
  155SAPE  C21517247   1.911   5.877   8.126 -0.7868 -0.0771 -0.4703
  155SAPE  H15R17248   1.879   5.908   8.227 -0.0365 -0.7328 -0.0203
  155SAPE  C21617249   2.051   5.913   8.099  0.6439  0.0709 -0.6243
  155SAPE  H16R17250   2.057   6.023   8.083  1.2123 -0.2183 -2.4815
  155SAPE  H16S17251   2.086   5.868   8.003  1.4779 -0.3713 -0.1131
  155SAPE  C21717252   2.154   5.867   8.207 -0.3095  0.0479 -0.9467
  155SAPE  H17R17253   2.130   5.926   8.298  0.8549  0.0785 -0.6528
  155SAPE  H17S17254   2.257   5.898   8.180  0.0310  0.1966  0.4750
  155SAPE  C21817255   2.147   5.711   8.239  0.4889 -0.3231  0.1214
  155SAPE  H18R17256   2.171   5.667   8.140  0.8473  1.9974 -0.8682
  155SAPE  H18S17257   2.043   5.683   8.267  0.6979 -0.3987  0.8359
  155SAPE  C21917258   2.261   5.654   8.327  0.1955  0.1880  0.0239
  155SAPE  H19R17259   2.349   5.718   8.308 -0.5222  0.9308 -0.8912
  155SAPE  H19S17260   2.290   5.553   8.289  1.2539  0.6761 -0.4776
  155SAPE  C22017261   2.229   5.662   8.478 -0.3707  0.6115  0.0485
  155SAPE  H20R17262   2.122   5.635   8.489 -0.5284  1.7353  1.2687
  155SAPE  H20S17263   2.230   5.765   8.519 -2.1670  0.9612 -0.7160
  155SAPE  H20T17264   2.305   5.610   8.540 -0.2488 -0.2983 -0.8447
  155SAPE   C3317265   1.736   6.257   7.541  0.5520  0.2090  0.7654
  155SAPE   H3X17266   1.642   6.198   7.549  2.4685 -3.3789 -1.6226
  155SAPE   H3Y17267   1.710   6.364   7.550  0.2040  0.3067 -1.1377
  155SAPE   C3417268   1.815   6.226   7.670 -0.1864  0.0470  0.6774
  155SAPE   H4X17269   1.918   6.267   7.660 -0.8777  2.2497  2.1421
  155SAPE   H4Y17270   1.832   6.117   7.684  3.3239  0.6897  2.0820
  155SAPE   C3517271   1.749   6.285   7.794 -0.5509 -0.3157 -0.2172
  155SAPE   H5X17272   1.640   6.261   7.799 -0.4356 -1.1969 -1.7533
  155SAPE   H5Y17273   1.752   6.395   7.780  0.2920 -0.2734  0.2522
  155SAPE   C3617274   1.822   6.242   7.921  0.2760  0.6407 -0.6138
  155SAPE   H6X17275   1.931   6.254   7.908  0.2171  0.5405 -1.1867
  155SAPE   H6Y17276   1.808   6.132   7.925  0.6510  0.5564 -1.6127
  155SAPE   C3717277   1.774   6.306   8.045 -0.4599 -0.4913  1.0543
  155SAPE   H7X17278   1.665   6.295   8.059 -0.3906 -0.4436  1.6362
  155SAPE   H7Y17279   1.795   6.415   8.037 -0.5848 -0.4904  0.7283
  155SAPE   C3817280   1.855   6.274   8.171 -0.2067  0.0704 -0.0067
  155SAPE   H8X17281   1.962   6.280   8.141  0.0270 -1.8819  0.3384
  155SAPE   H8Y17282   1.841   6.166   8.191 -0.5247  0.2221  0.5895
  155SAPE   C3917283   1.817   6.361   8.302  0.3073 -0.2007  0.5129
  155SAPE   H9X17284   1.708   6.348   8.317  0.3543 -0.5166  0.5808
  155SAPE   H9Y17285   1.838   6.467   8.274 -2.1607  0.5540  1.3706
  155SAPE  C31017286   1.897   6.313   8.423 -0.2426  0.5624  0.2726
  155SAPE  H10X17287   2.007   6.305   8.408 -0.4455  0.3032 -1.1269
  155SAPE  H10Y17288   1.871   6.208   8.444 -0.2419  0.9983  2.5579
  155SAPE  C31117289   1.864   6.401   8.547  0.2217 -0.2039  0.3675
  155SAPE  H11X17290   1.753   6.398   8.555  0.1026 -1.0468 -1.4229
  155SAPE  H11Y17291   1.904   6.503   8.530 -1.3552  0.2156 -0.8886
  155SAPE  C31217292   1.923   6.349   8.687  0.5797 -0.5141 -0.1866
  155SAPE  H12X17293   1.874   6.250   8.702 -0.7698  0.4349  2.1439
  155SAPE  H12Y17294   1.885   6.416   8.768 -0.6347 -1.8479  0.3775
  155SAPE  C31317295   2.071   6.309   8.681 -0.0690  0.1901  0.0807
  155SAPE  H13X17296   2.131   6.377   8.617 -0.0712 -0.3902 -0.5565
  155SAPE  H13Y17297   2.078   6.207   8.638  1.2915 -0.4700  1.8396
  155SAPE  C31417298   2.147   6.310   8.822 -0.0577  0.0166  0.4213
  155SAPE  H14X17299   2.104   6.223   8.876  0.7010 -0.1432  0.7762
  155SAPE  H14Y17300   2.117   6.405   8.872 -0.2363  0.1159  0.1284
  155SAPE  C31517301   2.303   6.300   8.806  0.8257 -0.9221  0.5378
  155SAPE  H15X17302   2.334   6.407   8.803 -1.2471 -0.3358 -2.6534
  155SAPE  H15Y17303   2.317   6.261   8.703  2.4357  0.0598  0.3707
  155SAPE  C31617304   2.397   6.221   8.896  0.0866 -0.2852 -1.1147
  155SAPE  H16X17305   2.501   6.212   8.858  0.4110  1.4479 -0.6465
  155SAPE  H16Y17306   2.365   6.114   8.898 -2.3957  0.3942 -2.5293
  155SAPE  C31717307   2.416   6.278   9.038  0.0604  0.5563  0.3126
  155SAPE  H17X17308   2.321   6.325   9.071 -2.8785 -3.6839 -1.7214
  155SAPE  H17Y17309   2.483   6.367   9.031  2.1354 -0.8582  1.7053
  155SAPE  C31817310   2.445   6.179   9.144 -0.2576 -0.5397 -0.4236
  155SAPE  H18X17311   2.377   6.092   9.130  1.0542 -1.7582  0.6008
  155SAPE  H18Y17312   2.435   6.213   9.249 -0.8629  0.7303 -0.8834
  155SAPE  H18Z17313   2.547   6.140   9.124 -0.3004  0.5023 -2.7265
  156SAPE     N17314   6.708   6.525   6.103  0.1736  0.1408 -0.1057
  156SAPE   HN117315   6.633   6.596   6.095 -0.0736 -0.0385  0.5647
  156SAPE   HN217316   6.786   6.566   6.157  0.1577 -0.6369  0.5283
  156SAPE   HN317317   6.764   6.506   6.017  0.4143  2.6340 -0.5358
  156SAPE   C1217318   6.656   6.396   6.153  0.4028  0.5228  0.2095
  156SAPE  H12A17319   6.741   6.325   6.151 -0.1882 -0.1614 -2.0748
  156SAPE  H12B17320   6.574   6.360   6.087  0.2599  0.9812  0.1301
  156SAPE   C1117321   6.613   6.400   6.303 -0.1651  0.7589 -0.4861
  156SAPE  H11A17322   6.591   6.294   6.329  2.0217  0.6960  1.1849
  156SAPE  H11B17323   6.522   6.464   6.312  0.5247  1.8261 -0.9956
  156SAPE     P17324   6.788   6.383   6.489 -0.5637 -0.3333  0.1859
  156SAPE   O1317325   6.826   6.249   6.437  0.0932 -0.4810  0.2837
  156SAPE   O1417326   6.899   6.460   6.544  0.4742  0.2445  0.8403
  156SAPE   O1217327   6.714   6.460   6.378 -0.4920 -0.2263 -0.6977
  156SAPE   O1117328   6.679   6.353   6.596  0.0772  1.0297 -0.8470
  156SAPE    C117329   6.596   6.454   6.649  0.1311  0.8422  0.2633
  156SAPE    HA17330   6.649   6.550   6.666  0.5318  0.9130 -1.2907
  156SAPE    HB17331   6.521   6.479   6.571  1.7968  0.1295 -1.6121
  156SAPE    C217332   6.525   6.420   6.779 -0.7828  0.1930 -0.9491
  156SAPE    HS17333   6.474   6.511   6.816 -0.3142  0.5839 -1.2473
  156SAPE   O2117334   6.632   6.366   6.864  0.0708 -0.1540  0.7154
  156SAPE   C2117335   6.694   6.458   6.935 -0.3158  0.0991  0.0191
  156SAPE   O2217336   6.674   6.577   6.936 -0.7283 -0.3706  0.3131
  156SAPE   C2217337   6.802   6.393   7.020 -0.5290  0.5440  0.4050
  156SAPE   H2R17338   6.847   6.315   6.956 -1.3604  0.1659  0.2716
  156SAPE   H2S17339   6.880   6.468   7.048  1.3379 -0.8197 -1.0641
  156SAPE    C317340   6.411   6.315   6.756 -0.8867  0.2099 -0.2605
  156SAPE    HX17341   6.453   6.221   6.714  2.0671  0.4796  1.9713
  156SAPE    HY17342   6.339   6.352   6.680  0.3402 -0.4963 -1.7991
  156SAPE   O3117343   6.332   6.295   6.874  0.1148 -0.3374  0.2286
  156SAPE   C3117344   6.376   6.200   6.964 -0.7726  0.6934  0.2267
  156SAPE   O3217345   6.473   6.126   6.950 -0.0609  0.3826 -0.2052
  156SAPE   C3217346   6.277   6.203   7.073  0.1206  0.6986  0.1365
  156SAPE   H2X17347   6.192   6.132   7.071  0.2028  0.4557  3.1729
  156SAPE   H2Y17348   6.230   6.303   7.068 -1.1576  0.1796  1.4348
  156SAPE   C2317349   6.752   6.314   7.144  0.2440 -0.5236 -0.0673
  156SAPE   H3R17350   6.666   6.250   7.115  0.0237 -0.4745  0.4705
  156SAPE   H3S17351   6.709   6.385   7.218 -1.3821 -2.4216  0.8467
  156SAPE   C2417352   6.862   6.229   7.203 -0.0629  0.6640 -0.3188
  156SAPE   H4R17353   6.948   6.294   7.230 -0.9548  1.1214  1.5000
  156SAPE   H4S17354   6.898   6.168   7.117 -0.1189 -0.0392  0.1551
  156SAPE   C2517355   6.833   6.141   7.321  0.1776 -0.3648 -0.4694
  156SAPE   H5R17356   6.793   6.041   7.300 -0.0445 -0.1195 -1.2346
  156SAPE   C2617357   6.853   6.168   7.457  0.0416 -0.3717 -0.3024
  156SAPE   H6R17358   6.804   6.106   7.533  1.4413  1.1579  1.8758
  156SAPE   C2717359   6.916   6.292   7.515 -1.2649  0.1339  0.2321
  156SAPE   H7R17360   6.943   6.380   7.453  0.0292  0.5874  1.4091
  156SAPE   H7S17361   7.014   6.260   7.557 -1.7778  0.7818  1.9817
  156SAPE   C2817362   6.842   6.343   7.636  0.1456  0.9088  0.2344
  156SAPE   H8R17363   6.789   6.439   7.624  0.1779  1.0330  1.0629
  156SAPE   C2917364   6.841   6.291   7.758  0.3093  0.4448  0.1853
  156SAPE   H9R17365   6.786   6.349   7.834 -1.2930 -0.9242  0.0932
  156SAPE  C21017366   6.908   6.163   7.803  0.0286  0.2511 -1.2323
  156SAPE  H10R17367   7.013   6.169   7.839 -0.0545 -0.0236 -0.9377
  156SAPE  H10S17368   6.915   6.085   7.724 -0.2538 -1.3029  0.2456
  156SAPE  C21117369   6.821   6.098   7.909  0.2223 -0.2028 -0.0740
  156SAPE  H11R17370   6.738   6.036   7.873 -0.2332  0.8572 -0.8687
  156SAPE  C21217371   6.832   6.136   8.037  0.4607  0.2089 -0.1738
  156SAPE  H12R17372   6.768   6.080   8.107 -1.0776  1.0886 -0.8492
  156SAPE  C21317373   6.935   6.230   8.106 -0.0074 -0.2048  0.9574
  156SAPE  H13R17374   7.019   6.256   8.037 -0.7848  0.4357  0.2454
  156SAPE  H13S17375   6.990   6.172   8.182 -1.3896 -0.7397  1.5682
  156SAPE  C21417376   6.880   6.360   8.175  0.4205 -0.2105 -0.3018
  156SAPE  H14R17377   6.851   6.445   8.112  0.4446  0.8202  1.0593
  156SAPE  C21517378   6.844   6.366   8.302  0.0954  0.5060 -0.1360
  156SAPE  H15R17379   6.794   6.457   8.337  2.2125  1.6780 -0.0960
  156SAPE  C21617380   6.864   6.261   8.407 -1.0523 -0.0097 -0.1608
  156SAPE  H16R17381   6.877   6.300   8.511  2.5310  2.0161 -1.2500
  156SAPE  H16S17382   6.970   6.226   8.399 -2.4385 -4.0554 -2.0397
  156SAPE  C21717383   6.776   6.141   8.411  0.3911  0.1475  0.0565
  156SAPE  H17R17384   6.774   6.095   8.309 -0.1152 -2.4953  1.2143
  156SAPE  H17S17385   6.673   6.164   8.446  0.7777  1.5575  0.2833
  156SAPE  C21817386   6.830   6.024   8.501 -0.1479  0.4583 -0.2062
  156SAPE  H18R17387   6.941   6.033   8.498 -0.0331 -0.9504 -0.5439
  156SAPE  H18S17388   6.791   5.929   8.459  0.1296  0.5367 -0.6393
  156SAPE  C21917389   6.780   6.037   8.649 -0.4030  0.0853  0.2900
  156SAPE  H19R17390   6.669   6.041   8.656 -0.2475  1.9444  2.1386
  156SAPE  H19S17391   6.827   6.129   8.690  0.9390 -0.5102  0.1137
  156SAPE  C22017392   6.826   5.910   8.732 -0.3335  0.1370 -0.1215
  156SAPE  H20R17393   6.798   5.815   8.680 -3.4192 -0.1576  1.9251
  156SAPE  H20S17394   6.790   5.922   8.836  0.2723  3.2956 -0.2304
  156SAPE  H20T17395   6.936   5.923   8.732 -0.1289 -1.4623  1.4202
  156SAPE   C3317396   6.347   6.192   7.212  0.6109 -0.2285 -0.3387
  156SAPE   H3X17397   6.435   6.259   7.212 -0.0824  0.6927 -0.6069
  156SAPE   H3Y17398   6.383   6.088   7.228  1.6280  0.1897  0.0599
  156SAPE   C3417399   6.255   6.242   7.326 -0.2883 -0.7636  0.6203
  156SAPE   H4X17400   6.169   6.172   7.337 -1.2136  0.4299  1.0448
  156SAPE   H4Y17401   6.212   6.344   7.315 -1.3203 -1.3458 -1.1237
  156SAPE   C3517402   6.328   6.234   7.461 -0.2623  0.2859  0.4278
  156SAPE   H5X17403   6.396   6.322   7.471  1.6826 -1.1859  0.5644
  156SAPE   H5Y17404   6.376   6.134   7.466 -0.5338  0.1083 -0.4618
  156SAPE   C3617405   6.236   6.253   7.582 -0.4124  0.6336  0.6270
  156SAPE   H6X17406   6.140   6.197   7.583  0.7065 -1.3207 -0.2677
  156SAPE   H6Y17407   6.205   6.359   7.588  0.7778  1.0850 -1.0380
  156SAPE   C3717408   6.302   6.202   7.714  0.1174 -0.5545 -0.5774
  156SAPE   H7X17409   6.371   6.120   7.685  1.9396  0.6364  0.2996
  156SAPE   H7Y17410   6.212   6.173   7.772  0.0122 -2.3212 -1.5880
  156SAPE   C3817411   6.390   6.303   7.789 -0.1732  0.1071 -0.3630
  156SAPE   H8X17412   6.328   6.377   7.845  2.5472  1.3436  1.1097
  156SAPE   H8Y17413   6.446   6.354   7.708 -0.0835 -0.5868 -0.7350
  156SAPE   C3917414   6.479   6.240   7.896  0.4594  0.6489 -0.2801
  156SAPE   H9X17415   6.513   6.334   7.944  1.9291 -0.0424  0.0645
  156SAPE   H9Y17416   6.567   6.186   7.855 -0.2722  1.4023 -2.9237
  156SAPE  C31017417   6.407   6.148   7.993 -0.1158 -0.4383 -0.5500
  156SAPE  H10X17418   6.387   6.046   7.956  1.3897 -0.8499 -0.2898
  156SAPE  H10Y17419   6.311   6.202   8.006 -0.7833 -1.3945 -1.5140
  156SAPE  C31117420   6.473   6.167   8.128 -0.3617  0.0536 -0.2399
  156SAPE  H11X17421   6.470   6.274   8.160 -1.1741 -0.9318  3.0928
  156SAPE  H11Y17422   6.579   6.134   8.129  0.1707  1.6793  1.6005
  156SAPE  C31217423   6.405   6.080   8.234 -0.2850  0.0001 -0.1688
  156SAPE  H12X17424   6.449   5.978   8.236 -0.9223 -0.3672 -2.5478
  156SAPE  H12Y17425   6.298   6.064   8.210 -0.6240 -1.1877  2.0133
  156SAPE  C31317426   6.395   6.145   8.370  0.4667 -0.1777  0.1654
  156SAPE  H13X17427   6.312   6.217   8.359  0.7356  0.0334 -0.5154
  156SAPE  H13Y17428   6.484   6.206   8.395  0.4746 -0.4518  0.8333
  156SAPE  C31417429   6.389   6.042   8.480  0.5211  0.1137 -0.8505
  156SAPE  H14X17430   6.467   6.061   8.556 -1.5308  1.7718  0.9021
  156SAPE  H14Y17431   6.418   5.939   8.449  1.0522  0.1428 -0.4418
  156SAPE  C31517432   6.248   6.046   8.553  0.1837  0.0605  0.0555
  156SAPE  H15X17433   6.169   6.042   8.475  0.4095  1.0718 -0.2267
  156SAPE  H15Y17434   6.235   6.146   8.599  0.0045  0.5696 -1.0908
  156SAPE  C31617435   6.234   5.938   8.650  0.0554  0.5535  0.3512
  156SAPE  H16X17436   6.332   5.941   8.703  1.0128 -1.5438 -1.2367
  156SAPE  H16Y17437   6.245   5.842   8.596 -0.2298  0.6654  0.0977
  156SAPE  C31717438   6.105   5.954   8.731 -0.3634  0.2890  0.1821
  156SAPE  H17X17439   6.105   6.051   8.787  0.0810  0.4681 -0.1265
  156SAPE  H17Y17440   6.098   5.871   8.805  0.5135  0.0276 -0.0244
  156SAPE  C31817441   5.981   5.944   8.644  0.1063 -0.4008 -0.1372
  156SAPE  H18X17442   5.984   6.023   8.566  1.3830 -0.8605 -0.5661
  156SAPE  H18Y17443   5.893   5.967   8.708 -0.1584  4.7649 -2.1764
  156SAPE  H18Z17444   5.961   5.846   8.596 -0.6281 -0.1630 -0.3284
  157SAPE     N17445   3.818   1.245   6.006  0.3855 -0.0914  0.7536
  157SAPE   HN117446   3.845   1.226   5.908 -3.6759  1.5359 -0.7707
  157SAPE   HN217447   3.752   1.174   6.045 -0.9383  0.7941  0.1659
  157SAPE   HN317448   3.771   1.337   5.990  0.6255  0.0148  0.6546
  157SAPE   C1217449   3.944   1.259   6.090  0.6149 -1.0899  0.1153
  157SAPE  H12A17450   4.005   1.340   6.045 -2.2396  0.1912 -1.5636
  157SAPE  H12B17451   4.007   1.167   6.089  2.3884  0.1161 -0.4401
  157SAPE   C1117452   3.907   1.289   6.239  0.3532 -0.6925 -0.4462
  157SAPE  H11A17453   3.995   1.329   6.294 -0.9508  1.8882 -0.1375
  157SAPE  H11B17454   3.867   1.191   6.274  1.3995 -1.2397 -0.7709
  157SAPE     P17455   3.844   1.551   6.265 -0.1168 -0.0790 -0.0203
  157SAPE   O1317456   3.903   1.595   6.137 -0.0025  0.2713 -0.6433
  157SAPE   O1417457   3.737   1.634   6.324 -0.1642  0.4205  0.2934
  157SAPE   O1217458   3.803   1.398   6.249 -0.6413  0.1164 -0.5169
  157SAPE   O1117459   3.960   1.557   6.360 -0.1001 -0.3066 -0.1942
  157SAPE    C117460   4.058   1.662   6.370 -0.0497 -0.0148  0.5395
  157SAPE    HA17461   4.154   1.609   6.347  0.8933  1.4131  1.1375
  157SAPE    HB17462   4.053   1.739   6.291  0.9900 -0.9264 -0.4385
  157SAPE    C217463   4.049   1.731   6.514 -0.0353  0.4114 -0.7476
  157SAPE    HS17464   4.133   1.802   6.529 -0.9566  1.2134  0.6624
  157SAPE   O2117465   4.050   1.626   6.612  0.5537  0.1654  0.3273
  157SAPE   C2117466   4.153   1.551   6.645 -0.3987 -0.4825 -0.1750
  157SAPE   O2217467   4.266   1.567   6.600  0.5496  0.2791 -0.5275
  157SAPE   C2217468   4.113   1.454   6.762  0.0038  0.1731 -0.0540
  157SAPE   H2R17469   4.205   1.420   6.813 -0.6599 -1.4025  0.1251
  157SAPE   H2S17470   4.069   1.522   6.838 -0.3846 -0.3884  0.2227
  157SAPE    C317471   3.922   1.827   6.527  0.1175  0.2288 -0.1988
  157SAPE    HX17472   3.838   1.769   6.483  0.6303 -0.9600  0.3751
  157SAPE    HY17473   3.944   1.898   6.444  0.5590 -1.3683 -1.4714
  157SAPE   O3117474   3.907   1.890   6.656 -0.3466  0.4896 -0.0931
  157SAPE   C3117475   3.805   1.835   6.734 -0.8725 -0.1004  0.2306
  157SAPE   O3217476   3.741   1.742   6.695 -0.1982  0.3019 -0.0305
  157SAPE   C3217477   3.804   1.908   6.867 -0.6900  0.0310  0.3756
  157SAPE   H2X17478   3.741   1.996   6.844  0.5622  0.3414 -2.0071
  157SAPE   H2Y17479   3.904   1.948   6.894  0.0554 -1.1843 -0.5637
  157SAPE   C2317480   4.021   1.345   6.708 -0.5364 -0.7432 -0.2196
  157SAPE   H3R17481   4.072   1.283   6.631 -0.1272  0.9914 -1.3711
  157SAPE   H3S17482   3.922   1.375   6.666 -0.3499  2.8087  1.6683
  157SAPE   C2417483   3.974   1.246   6.817  0.1657  0.6870 -0.3792
  157SAPE   H4R17484   4.060   1.181   6.843 -1.0007  0.1179  2.2188
  157SAPE   H4S17485   3.907   1.182   6.754  0.3272  0.2921 -0.1518
  157SAPE   C2517486   3.908   1.299   6.945 -0.1723 -0.1439 -0.0502
  157SAPE   H5R17487   3.826   1.369   6.925 -0.6307 -0.4579  0.7128
  157SAPE   C2617488   3.938   1.277   7.072 -0.1160 -0.5881 -0.3458
  157SAPE   H6R17489   3.875   1.322   7.150 -0.7405 -1.6057 -0.2565
  157SAPE   C2717490   4.062   1.202   7.126  0.8476  0.0825 -0.6987
  157SAPE   H7R17491   4.152   1.203   7.060 -0.1617 -0.1162 -2.0888
  157SAPE   H7S17492   4.026   1.098   7.141 -1.8703  1.2532  1.3736
  157SAPE   C2817493   4.094   1.276   7.256 -0.2785  0.6310 -0.5794
  157SAPE   H8R17494   4.108   1.385   7.248  3.5494  0.0946 -2.0761
  157SAPE   C2917495   4.134   1.214   7.376  0.5452  0.2199 -0.2336
  157SAPE   H9R17496   4.146   1.283   7.461 -2.1299  2.6594 -1.7153
  157SAPE  C21017497   4.143   1.070   7.405 -0.4116 -0.4020  0.2723
  157SAPE  H10R17498   4.130   1.014   7.309 -1.2557 -0.7759  0.5944
  157SAPE  H10S17499   4.047   1.043   7.455 -1.1917 -0.9141 -1.4543
  157SAPE  C21117500   4.265   1.041   7.485  0.0209  0.2614 -0.5004
  157SAPE  H11R17501   4.359   1.051   7.429 -0.2577  0.1086 -0.9951
  157SAPE  C21217502   4.267   0.995   7.612 -0.7223 -0.3311  0.4974
  157SAPE  H12R17503   4.367   0.972   7.652  0.1157  1.8608 -0.2170
  157SAPE  C21317504   4.162   0.958   7.708 -0.5716 -0.3660  0.4086
  157SAPE  H13R17505   4.184   0.853   7.738  1.5494 -0.1766 -0.4211
  157SAPE  H13S17506   4.061   0.952   7.662 -0.2523  1.3780 -0.5493
  157SAPE  C21417507   4.148   1.048   7.830  0.2269  0.0798 -0.1502
  157SAPE  H14R17508   4.159   1.156   7.811 -2.0935  0.6317  1.4684
  157SAPE  C21517509   4.109   1.019   7.960  0.6382 -0.0122  0.5330
  157SAPE  H15R17510   4.124   1.100   8.032  1.5833 -0.4210  0.8154
  157SAPE  C21617511   4.069   0.885   8.018 -0.1426 -0.8406  0.0879
  157SAPE  H16R17512   4.111   0.800   7.960 -0.3571 -1.7079  1.1778
  157SAPE  H16S17513   3.959   0.881   8.005 -0.3123  2.0705  0.3176
  157SAPE  C21717514   4.089   0.876   8.175 -0.0240  0.0636 -0.1459
  157SAPE  H17R17515   4.051   0.774   8.200 -1.7517  0.8818  0.6703
  157SAPE  H17S17516   4.024   0.951   8.225 -0.2398 -1.5741  2.1392
  157SAPE  C21817517   4.233   0.897   8.231  0.3999  0.2130 -0.0184
  157SAPE  H18R17518   4.221   0.887   8.341 -0.7009 -4.2740 -0.4685
  157SAPE  H18S17519   4.269   0.999   8.204  0.4443  0.5891  1.4128
  157SAPE  C21917520   4.331   0.795   8.184 -0.2622  0.0826  0.8586
  157SAPE  H19R17521   4.306   0.772   8.078 -0.2275  0.9156  0.6710
  157SAPE  H19S17522   4.330   0.701   8.243  0.2421 -0.6560 -0.2821
  157SAPE  C22017523   4.471   0.849   8.186 -0.0614  0.1577 -0.3442
  157SAPE  H20R17524   4.531   0.769   8.137 -0.5270  0.1059 -0.8438
  157SAPE  H20S17525   4.511   0.860   8.288  0.1994  0.5714 -0.4952
  157SAPE  H20T17526   4.485   0.948   8.138  1.8600  1.6321  3.0763
  157SAPE   C3317527   3.726   1.828   6.975 -0.2349 -1.3430 -0.1316
  157SAPE   H3X17528   3.621   1.816   6.938  0.2301 -3.5493 -0.7789
  157SAPE   H3Y17529   3.729   1.889   7.067  1.1645 -1.1924 -0.2765
  157SAPE   C3417530   3.779   1.685   7.009 -0.8021 -0.5815  0.3206
  157SAPE   H4X17531   3.887   1.698   6.988 -0.8511 -2.6376 -1.3723
  157SAPE   H4Y17532   3.741   1.616   6.930  0.1782 -0.2817 -0.4141
  157SAPE   C3517533   3.766   1.639   7.151  0.1306  0.4340 -0.5921
  157SAPE   H5X17534   3.805   1.720   7.216  0.4477  0.8271 -1.2722
  157SAPE   H5Y17535   3.844   1.560   7.164 -0.9341 -0.6507 -0.6554
  157SAPE   C3617536   3.627   1.588   7.189 -0.0140 -0.2404  0.6808
  157SAPE   H6X17537   3.566   1.535   7.113  0.3977 -0.0715  0.2313
  157SAPE   H6Y17538   3.560   1.676   7.203 -0.3138 -0.3067 -0.3171
  157SAPE   C3717539   3.634   1.502   7.316 -0.0761  0.1437  0.0879
  157SAPE   H7X17540   3.699   1.418   7.285 -1.2719 -0.1397 -1.7352
  157SAPE   H7Y17541   3.532   1.461   7.337 -0.1521 -0.4080 -1.3564
  157SAPE   C3817542   3.699   1.572   7.435  0.1305  0.0022 -1.0429
  157SAPE   H8X17543   3.660   1.676   7.438  0.9214  0.2693  1.1893
  157SAPE   H8Y17544   3.810   1.574   7.421 -0.0796  1.1539 -2.6914
  157SAPE   C3917545   3.681   1.491   7.564  0.0354  0.4325  0.4769
  157SAPE   H9X17546   3.741   1.399   7.549  0.7844  1.1485 -0.9018
  157SAPE   H9Y17547   3.576   1.459   7.581  0.5621 -1.5879 -0.0087
  157SAPE  C31017548   3.741   1.556   7.687 -0.7427 -0.0698  0.1096
  157SAPE  H10X17549   3.691   1.652   7.713  1.9762  1.7206 -1.0506
  157SAPE  H10Y17550   3.843   1.595   7.669 -0.6655 -0.8815 -1.3093
  157SAPE  C31117551   3.748   1.460   7.816  0.0877 -0.5796 -0.4536
  157SAPE  H11X17552   3.785   1.360   7.784 -1.6935 -0.9573 -1.4484
  157SAPE  H11Y17553   3.647   1.454   7.862 -0.6938 -0.0062 -2.0542
  157SAPE  C31217554   3.841   1.518   7.925 -0.5834  0.1281  0.4439
  157SAPE  H12X17555   3.822   1.625   7.950 -0.6271  0.3159 -0.3589
  157SAPE  H12Y17556   3.943   1.523   7.882 -0.5507  0.1849  0.5281
  157SAPE  C31317557   3.844   1.426   8.045 -0.2786  0.0841 -0.0148
  157SAPE  H13X17558   3.861   1.324   8.004  1.3623 -0.3055  1.6148
  157SAPE  H13Y17559   3.751   1.427   8.105 -0.6823 -0.9129 -0.6136
  157SAPE  C31417560   3.967   1.469   8.128 -0.9461  0.0014  0.1021
  157SAPE  H14X17561   3.975   1.579   8.132 -1.0535  0.1093 -2.0506
  157SAPE  H14Y17562   4.062   1.443   8.076 -0.5144  0.0541  0.8551
  157SAPE  C31517563   3.993   1.392   8.262 -0.4963 -0.5755  0.8396
  157SAPE  H15X17564   3.999   1.284   8.237  0.0785 -0.4214  0.2932
  157SAPE  H15Y17565   3.909   1.395   8.334  0.6061 -1.9218  2.2239
  157SAPE  C31617566   4.125   1.442   8.331 -0.8990 -0.1008 -0.5476
  157SAPE  H16X17567   4.121   1.541   8.380  1.0288  0.7071 -1.9513
  157SAPE  H16Y17568   4.210   1.457   8.260  0.6460  1.3994  1.5912
  157SAPE  C31717569   4.176   1.336   8.441  0.1664  0.5675  0.1315
  157SAPE  H17X17570   4.269   1.376   8.486 -0.0490  1.0599  0.1519
  157SAPE  H17Y17571   4.187   1.237   8.392  3.2441  1.2539 -0.6454
  157SAPE  C31817572   4.081   1.322   8.561 -0.1883 -0.0319 -0.1564
  157SAPE  H18X17573   4.084   1.409   8.630 -1.1754 -0.7294  0.7846
  157SAPE  H18Y17574   4.110   1.239   8.628 -0.0967  1.7540  2.0687
  157SAPE  H18Z17575   3.978   1.304   8.522 -1.2690  1.4602  1.9196
  158SAPE     N17576   6.771   5.992   6.505 -0.1841  0.6469 -0.3947
  158SAPE   HN117577   6.863   5.954   6.475  0.9449  1.6045  1.7774
  158SAPE   HN217578   6.751   6.080   6.453  1.5789  1.2653 -0.0803
  158SAPE   HN317579   6.781   6.026   6.602 -4.4095 -2.0686  1.1011
  158SAPE   C1217580   6.655   5.897   6.483 -0.6380 -0.0908  0.4065
  158SAPE  H12A17581   6.663   5.816   6.560  2.6097 -1.7633 -1.5711
  158SAPE  H12B17582   6.665   5.849   6.383  1.6812  0.9679  0.1019
  158SAPE   C1117583   6.519   5.967   6.500  0.3773  0.1399 -0.5229
  158SAPE  H11A17584   6.519   6.015   6.601 -0.3360 -0.6788 -0.1263
  158SAPE  H11B17585   6.433   5.898   6.500 -0.4665  1.1558  0.4262
  158SAPE     P17586   6.465   6.034   6.248  0.5372 -0.2390 -0.1736
  158SAPE   O1317587   6.407   6.155   6.189 -0.1251 -0.4264 -0.6534
  158SAPE   O1417588   6.588   5.980   6.188  0.0637 -0.1935 -0.0179
  158SAPE   O1217589   6.507   6.067   6.399  0.7541 -0.2219 -0.3247
  158SAPE   O1117590   6.357   5.921   6.257 -0.2796 -0.0507  0.1231
  158SAPE    C117591   6.223   5.952   6.236 -0.0202  0.7341 -0.0870
  158SAPE    HA17592   6.206   6.017   6.147 -2.0529  0.7987  0.3168
  158SAPE    HB17593   6.162   5.859   6.234 -1.1330  1.4395  0.0901
  158SAPE    C217594   6.142   6.021   6.362  0.1102  0.1155  1.2878
  158SAPE    HS17595   6.191   6.120   6.371  1.2940 -0.3070 -0.2311
  158SAPE   O2117596   6.171   5.938   6.477  0.0275  0.3040  0.1700
  158SAPE   C2117597   6.195   6.002   6.591  0.9281  0.7898 -0.7814
  158SAPE   O2217598   6.197   6.123   6.606  0.3633 -0.4190  0.0459
  158SAPE   C2217599   6.232   5.892   6.689  0.2784 -0.3744  0.2937
  158SAPE   H2R17600   6.275   5.805   6.635 -0.2958 -1.2672  1.2509
  158SAPE   H2S17601   6.300   5.929   6.769 -0.1629 -2.2409  1.5899
  158SAPE    C317602   5.990   6.022   6.342 -0.4258  0.3711 -0.6438
  158SAPE    HX17603   5.959   5.916   6.329  0.1846 -0.1168  1.7457
  158SAPE    HY17604   5.949   6.089   6.263  0.2058  1.3532 -0.1406
  158SAPE   O3117605   5.931   6.056   6.472 -0.5032 -0.1334  0.2285
  158SAPE   C3117606   5.925   6.188   6.508  0.5018 -0.1577 -0.6086
  158SAPE   O3217607   5.954   6.280   6.429  0.4287 -0.1501 -0.6705
  158SAPE   C3217608   5.882   6.221   6.655 -0.3852 -0.0325 -0.6983
  158SAPE   H2X17609   5.961   6.174   6.717  0.9064 -0.5993 -2.7186
  158SAPE   H2Y17610   5.786   6.167   6.671  0.5731 -1.5826 -0.0931
  158SAPE   C2317611   6.094   5.849   6.757  0.1432 -0.1100 -0.0967
  158SAPE   H3R17612   6.012   5.817   6.689  0.8458 -1.9256 -0.1173
  158SAPE   H3S17613   6.062   5.940   6.812 -3.6209 -0.4054 -1.6883
  158SAPE   C2417614   6.104   5.726   6.850 -0.2174 -1.3385 -0.6433
  158SAPE   H4R17615   6.125   5.636   6.788  1.7690 -0.2438 -1.6086
  158SAPE   H4S17616   6.002   5.714   6.891 -0.4084  0.3235 -0.6162
  158SAPE   C2517617   6.206   5.749   6.952  0.2972 -0.3077 -0.4707
  158SAPE   H5R17618   6.310   5.738   6.919  0.1718 -2.9486 -0.0522
  158SAPE   C2617619   6.186   5.806   7.076 -0.1620 -0.7318  0.5329
  158SAPE   H6R17620   6.277   5.819   7.136  0.3040 -0.5040 -0.2161
  158SAPE   C2717621   6.053   5.855   7.124 -0.0793  0.0397  0.8471
  158SAPE   H7R17622   5.976   5.860   7.045 -0.7925  0.5762  1.5716
  158SAPE   H7S17623   6.060   5.957   7.167 -1.1577  2.4725 -4.4256
  158SAPE   C2817624   5.994   5.754   7.224  0.1197 -0.3408 -0.6887
  158SAPE   H8R17625   5.990   5.650   7.186  0.2905  0.0697 -1.8601
  158SAPE   C2917626   5.953   5.783   7.347 -0.8833 -0.1959  0.7345
  158SAPE   H9R17627   5.909   5.706   7.412 -0.7501 -1.7907 -1.0296
  158SAPE  C21017628   5.964   5.911   7.423 -0.2473  0.1123  0.1050
  158SAPE  H10R17629   5.886   5.915   7.502 -0.4346  0.0256 -0.0756
  158SAPE  H10S17630   5.948   5.999   7.357  0.5859  0.9145  0.9542
  158SAPE  C21117631   6.100   5.909   7.480  0.5367 -0.0759  0.6769
  158SAPE  H11R17632   6.171   5.928   7.398 -1.4718 -0.8798 -1.2771
  158SAPE  C21217633   6.134   5.881   7.609 -0.0144  0.2193 -0.1438
  158SAPE  H12R17634   6.239   5.876   7.640  0.0737 -0.8846 -0.5998
  158SAPE  C21317635   6.032   5.846   7.715 -0.3870 -0.5986 -0.9307
  158SAPE  H13R17636   5.937   5.807   7.672 -0.2805 -0.9506 -0.8450
  158SAPE  H13S17637   6.012   5.934   7.780  0.7583 -0.8065 -0.2964
  158SAPE  C21417638   6.083   5.730   7.802  0.3120 -0.6634  1.1871
  158SAPE  H14R17639   6.090   5.636   7.745  0.2252 -1.1155  1.9188
  158SAPE  C21517640   6.131   5.733   7.923 -0.1960 -1.5889  0.1215
  158SAPE  H15R17641   6.159   5.634   7.964  0.8303 -0.7260  1.5880
  158SAPE  C21617642   6.146   5.857   8.013  0.2912 -1.1451  0.5796
  158SAPE  H16R17643   6.139   5.954   7.959 -0.0808 -0.1237  2.4418
  158SAPE  H16S17644   6.249   5.866   8.053  0.4195  0.3479 -0.0399
  158SAPE  C21717645   6.053   5.863   8.135 -0.1326  0.6826 -0.4183
  158SAPE  H17R17646   5.946   5.842   8.114 -0.5288  0.4151  1.7521
  158SAPE  H17S17647   6.060   5.965   8.178  0.9459  1.2345 -1.8358
  158SAPE  C21817648   6.102   5.760   8.240 -0.0120  0.9204 -0.0546
  158SAPE  H18R17649   6.082   5.801   8.341 -1.5557 -1.9930  0.8736
  158SAPE  H18S17650   6.212   5.751   8.235 -0.1281  0.0606 -1.6172
  158SAPE  C21917651   6.028   5.625   8.235  0.2030 -0.3695  0.4510
  158SAPE  H19R17652   6.026   5.580   8.133 -2.7322  1.2528 -0.2447
  158SAPE  H19S17653   5.920   5.648   8.247  0.3655  0.8090 -0.2572
  158SAPE  C22017654   6.074   5.520   8.339  0.3534 -0.4746  0.3069
  158SAPE  H20R17655   6.066   5.556   8.444  2.5002 -1.4424  0.8335
  158SAPE  H20S17656   6.182   5.501   8.319  0.9697  1.8912  1.2495
  158SAPE  H20T17657   6.010   5.429   8.331  1.6957 -1.6007  2.0644
  158SAPE   C3317658   5.866   6.365   6.691 -0.2218  0.2962 -0.0645
  158SAPE   H3X17659   5.790   6.411   6.625  0.6622  1.7698 -0.0732
  158SAPE   H3Y17660   5.965   6.412   6.670 -0.3902 -0.1736 -1.9815
  158SAPE   C3417661   5.817   6.393   6.829 -0.1040  0.4162  0.3923
  158SAPE   H4X17662   5.720   6.345   6.853  0.4985 -1.5668 -1.0751
  158SAPE   H4Y17663   5.795   6.502   6.842 -2.1115 -0.0892  1.5548
  158SAPE   C3517664   5.901   6.351   6.950  0.1996 -0.7128  0.1595
  158SAPE   H5X17665   5.999   6.402   6.961  0.2933 -0.7470 -0.5061
  158SAPE   H5Y17666   5.923   6.243   6.938  3.1285 -0.1685  0.2100
  158SAPE   C3617667   5.821   6.369   7.083 -0.0816 -0.0572 -0.5463
  158SAPE   H6X17668   5.718   6.330   7.072 -0.3344  0.1286  1.1114
  158SAPE   H6Y17669   5.807   6.476   7.107 -2.9542 -0.5038 -0.0959
  158SAPE   C3717670   5.887   6.323   7.213 -1.2370  0.9530  0.3522
  158SAPE   H7X17671   5.890   6.212   7.218 -2.4259  0.8633 -0.7842
  158SAPE   H7Y17672   5.991   6.361   7.225 -0.9296  0.2012  0.0394
  158SAPE   C3817673   5.828   6.380   7.344 -0.2983 -0.6132  0.0696
  158SAPE   H8X17674   5.722   6.346   7.346  0.1724 -2.1583 -0.1861
  158SAPE   H8Y17675   5.834   6.491   7.353  1.9920 -0.5643 -1.6898
  158SAPE   C3917676   5.908   6.321   7.464 -0.2928  0.6941  0.4404
  158SAPE   H9X17677   6.014   6.352   7.457  0.0383 -0.1986  1.3700
  158SAPE   H9Y17678   5.907   6.210   7.460  1.8959  0.7040 -1.2916
  158SAPE  C31017679   5.839   6.340   7.597  0.4859  0.0691 -0.6184
  158SAPE  H10X17680   5.743   6.285   7.591  0.7114 -0.5791  1.4185
  158SAPE  H10Y17681   5.812   6.448   7.595 -0.6581 -0.1862  0.5714
  158SAPE  C31117682   5.913   6.279   7.725  0.4210 -0.0318  1.2889
  158SAPE  H11X17683   6.014   6.323   7.741  0.6265 -0.7876  2.0972
  158SAPE  H11Y17684   5.918   6.169   7.714  0.2541  0.2079 -1.5526
  158SAPE  C31217685   5.833   6.285   7.855 -0.2970  0.4369 -0.6066
  158SAPE  H12X17686   5.866   6.190   7.902  1.9872  2.1473  1.3534
  158SAPE  H12Y17687   5.722   6.288   7.844 -0.1050  2.5315 -2.3701
  158SAPE  C31317688   5.868   6.400   7.943 -0.0199 -0.7075  0.0349
  158SAPE  H13X17689   5.806   6.481   7.899 -0.9959 -1.6157 -0.2915
  158SAPE  H13Y17690   5.974   6.430   7.933 -0.1663 -0.8787 -2.4380
  158SAPE  C31417691   5.835   6.375   8.088  0.5591  0.0074 -0.4889
  158SAPE  H14X17692   5.732   6.333   8.092  0.5454  0.1333  1.0773
  158SAPE  H14Y17693   5.847   6.470   8.146  1.4285  1.9126 -3.6832
  158SAPE  C31517694   5.936   6.288   8.160 -0.5877  0.1048  0.4936
  158SAPE  H15X17695   6.039   6.318   8.131 -1.1059  1.0248 -0.4418
  158SAPE  H15Y17696   5.930   6.178   8.145  1.7148 -0.0670  0.6673
  158SAPE  C31617697   5.918   6.328   8.311  0.2469  0.4366 -0.4890
  158SAPE  H16X17698   5.946   6.234   8.364 -0.8239 -0.2330 -1.1030
  158SAPE  H16Y17699   5.812   6.351   8.334  0.3495  0.9672 -0.5254
  158SAPE  C31717700   6.007   6.434   8.359 -0.5041  0.4220 -0.1214
  158SAPE  H17X17701   5.983   6.532   8.313 -0.1369  0.3985 -0.3660
  158SAPE  H17Y17702   6.112   6.403   8.340 -0.0840  0.9904  1.2012
  158SAPE  C31817703   5.996   6.458   8.509  0.0211 -0.5352  0.2203
  158SAPE  H18X17704   5.901   6.507   8.539 -0.1733  0.4086 -1.8865
  158SAPE  H18Y17705   6.088   6.510   8.543  0.4047  0.2200 -1.9063
  158SAPE  H18Z17706   5.993   6.357   8.556  2.5368 -1.1829 -0.9361
  159SAPE     N17707   4.975   2.631   6.198  0.2991 -0.3127 -0.1739
  159SAPE   HN117708   5.048   2.694   6.238  0.7108 -0.0705 -1.2832
  159SAPE   HN217709   5.007   2.611   6.102 -2.3508  1.5093 -1.5015
  159SAPE   HN317710   4.886   2.685   6.192  2.2061  2.8048 -1.4888
  159SAPE   C1217711   4.960   2.503   6.282 -0.0498  0.3428  0.1162
  159SAPE  H12A17712   4.932   2.419   6.214  1.0647 -0.2698  0.3953
  159SAPE  H12B17713   4.891   2.527   6.365  0.3808 -1.9649  1.1787
  159SAPE   C1117714   5.103   2.461   6.332 -0.3890 -0.4306  0.0843
  159SAPE  H11A17715   5.113   2.352   6.352  1.3989 -0.3577 -0.3399
  159SAPE  H11B17716   5.124   2.514   6.428 -1.6547 -0.6994  0.5300
  159SAPE     P17717   5.296   2.397   6.160  0.2147 -0.3516 -0.0647
  159SAPE   O1317718   5.212   2.290   6.103  0.1373 -0.0699 -0.4522
  159SAPE   O1417719   5.372   2.488   6.061 -0.2541 -0.1541 -0.3415
  159SAPE   O1217720   5.205   2.502   6.231 -0.5231 -0.0768  0.4299
  159SAPE   O1117721   5.400   2.349   6.265  0.3751 -0.2024  0.2519
  159SAPE    C117722   5.473   2.441   6.348 -0.0559  0.3300  0.3974
  159SAPE    HA17723   5.562   2.479   6.293 -0.4048  1.4888  0.6140
  159SAPE    HB17724   5.402   2.516   6.390  0.2338 -0.0075  1.5082
  159SAPE    C217725   5.539   2.368   6.471 -0.6238 -0.4416 -0.1458
  159SAPE    HS17726   5.626   2.309   6.435 -0.0611 -1.4250  2.7100
  159SAPE   O2117727   5.459   2.270   6.526  0.2074  0.1102  0.3807
  159SAPE   C2117728   5.339   2.306   6.571  0.4239 -0.1994 -0.1898
  159SAPE   O2217729   5.309   2.422   6.604 -0.4284  0.0449 -0.3248
  159SAPE   C2217730   5.243   2.189   6.587  0.4863  0.3655 -0.2313
  159SAPE   H2R17731   5.154   2.217   6.527  0.4722 -0.3932 -0.5658
  159SAPE   H2S17732   5.288   2.094   6.553  2.5432  1.4566 -0.6818
  159SAPE    C317733   5.602   2.469   6.572  0.9423  0.2229 -0.5631
  159SAPE    HX17734   5.532   2.555   6.585  1.5737  0.7330 -0.5300
  159SAPE    HY17735   5.697   2.505   6.527 -0.1288  3.1022 -0.6571
  159SAPE   O3117736   5.635   2.421   6.705  0.3108 -0.2307 -0.4432
  159SAPE   C3117737   5.759   2.369   6.713 -0.7768  0.4076 -0.1747
  159SAPE   O3217738   5.850   2.411   6.641  0.0091  0.6486 -0.0298
  159SAPE   C3217739   5.782   2.272   6.832 -0.2581 -0.0062  0.0690
  159SAPE   H2X17740   5.747   2.169   6.811  1.5487 -1.3006  3.1134
  159SAPE   H2Y17741   5.706   2.307   6.905  0.0403  0.0754  0.3410
  159SAPE   C2317742   5.193   2.181   6.729  0.1736 -0.1477 -0.8423
  159SAPE   H3R17743   5.095   2.128   6.722  0.1354 -0.4010  1.1622
  159SAPE   H3S17744   5.167   2.281   6.770 -1.9089 -1.0423  0.1122
  159SAPE   C2417745   5.281   2.101   6.825  0.0204 -1.3345 -0.6080
  159SAPE   H4R17746   5.304   1.998   6.789  0.3709 -0.8719 -1.7251
  159SAPE   H4S17747   5.213   2.067   6.906  2.6080 -2.4407  1.1679
  159SAPE   C2517748   5.404   2.183   6.871 -0.5726 -0.0481 -0.4183
  159SAPE   H5R17749   5.461   2.235   6.792  1.2306 -0.1464  0.7852
  159SAPE   C2617750   5.435   2.212   6.997  0.4743 -0.0776  0.5004
  159SAPE   H6R17751   5.515   2.286   7.015 -0.0349  0.1301  2.0468
  159SAPE   C2717752   5.356   2.162   7.117 -0.3165  0.1977  0.0992
  159SAPE   H7R17753   5.398   2.069   7.160  2.0468  1.6313  0.9917
  159SAPE   H7S17754   5.251   2.140   7.088  0.3623 -1.6991 -1.0118
  159SAPE   C2817755   5.346   2.269   7.219 -0.8367 -0.4930 -0.7023
  159SAPE   H8R17756   5.371   2.368   7.179 -0.9888 -0.5169 -0.8570
  159SAPE   C2917757   5.316   2.264   7.346 -0.5740  0.0738  0.2947
  159SAPE   H9R17758   5.320   2.354   7.409 -3.5099  0.7949 -0.4626
  159SAPE  C21017759   5.274   2.141   7.429  0.1631  0.4771  0.3493
  159SAPE  H10R17760   5.249   2.049   7.372 -1.0902 -0.1206  1.8065
  159SAPE  H10S17761   5.181   2.164   7.485 -0.5441  0.2188 -0.7138
  159SAPE  C21117762   5.389   2.101   7.521 -0.0894 -0.0596 -0.4959
  159SAPE  H11R17763   5.484   2.092   7.465  1.4517  2.9123  1.5700
  159SAPE  C21217764   5.386   2.061   7.651  0.0085  0.5315 -0.3216
  159SAPE  H12R17765   5.481   2.035   7.700 -0.7020  1.1989  1.4558
  159SAPE  C21317766   5.266   2.058   7.749 -1.0593 -0.2359 -0.2700
  159SAPE  H13R17767   5.237   1.954   7.776 -0.5420 -0.2779  0.1153
  159SAPE  H13S17768   5.171   2.088   7.698 -1.8863 -0.0793  1.3330
  159SAPE  C21417769   5.299   2.141   7.868 -0.3683  0.8497 -0.7573
  159SAPE  H14R17770   5.286   2.248   7.844 -2.0668  1.0549  0.9843
  159SAPE  C21517771   5.337   2.097   7.992  0.4589  0.2333  0.1960
  159SAPE  H15R17772   5.354   2.172   8.071 -1.5833  1.6914 -0.7000
  159SAPE  C21617773   5.351   1.952   8.034 -0.1810  0.0699 -0.7709
  159SAPE  H16R17774   5.453   1.916   8.008  0.2466  3.0159 -3.3755
  159SAPE  H16S17775   5.282   1.891   7.972 -0.9576  0.1322  0.0175
  159SAPE  C21717776   5.332   1.926   8.186 -0.0276 -0.4368  0.4005
  159SAPE  H17R17777   5.245   1.987   8.217 -0.0291 -0.2282 -0.0100
  159SAPE  H17S17778   5.415   1.978   8.239 -0.5523 -1.5954  2.4269
  159SAPE  C21817779   5.345   1.774   8.212  0.2724  0.2340 -0.1039
  159SAPE  H18R17780   5.450   1.740   8.205 -0.0533 -1.6738  3.2237
  159SAPE  H18S17781   5.288   1.726   8.129 -2.1167 -0.8813  2.0953
  159SAPE  C21917782   5.274   1.740   8.346  0.1796 -0.0676 -0.1436
  159SAPE  H19R17783   5.174   1.789   8.342 -0.8565 -2.0442  0.9619
  159SAPE  H19S17784   5.332   1.783   8.430  1.4559 -1.9753 -0.0396
  159SAPE  C22017785   5.268   1.586   8.366  0.5545  0.3917  0.3407
  159SAPE  H20R17786   5.369   1.543   8.351  1.1420  2.3699 -1.6812
  159SAPE  H20S17787   5.197   1.542   8.293  0.3234 -0.8149  1.2791
  159SAPE  H20T17788   5.237   1.567   8.471 -1.2137  1.6453  0.0799
  159SAPE   C3317789   5.927   2.286   6.895 -0.0644  0.2158 -0.1102
  159SAPE   H3X17790   5.945   2.386   6.938  0.0080 -1.5360  4.1785
  159SAPE   H3Y17791   6.008   2.262   6.823  1.1991  0.4843  1.2041
  159SAPE   C3417792   5.959   2.186   7.013  0.4164  0.1069  0.3167
  159SAPE   H4X17793   6.038   2.241   7.070  0.1082  2.0910 -1.1016
  159SAPE   H4Y17794   6.002   2.091   6.976  0.3410  0.1601  0.0937
  159SAPE   C3517795   5.839   2.160   7.103 -0.3231 -0.4332 -0.0474
  159SAPE   H5X17796   5.753   2.107   7.056 -2.9733  2.4025  1.3161
  159SAPE   H5Y17797   5.798   2.256   7.141 -1.3943 -1.0700  0.4388
  159SAPE   C3617798   5.885   2.086   7.230  1.1841 -0.3591 -0.6826
  159SAPE   H6X17799   5.985   2.123   7.259  0.3083 -0.1823  2.4065
  159SAPE   H6Y17800   5.889   1.976   7.215  1.3091 -0.2594 -1.3559
  159SAPE   C3717801   5.783   2.105   7.355  0.5484  0.4617  0.3415
  159SAPE   H7X17802   5.682   2.104   7.307  1.7795 -1.4001 -2.3057
  159SAPE   H7Y17803   5.785   2.212   7.385 -0.3286  0.1233  1.6116
  159SAPE   C3817804   5.801   2.015   7.476 -0.1646  0.6193  0.5068
  159SAPE   H8X17805   5.876   1.934   7.466 -0.5823  0.1478  1.1507
  159SAPE   H8Y17806   5.706   1.957   7.468  0.5901 -0.6538  0.7364
  159SAPE   C3917807   5.811   2.089   7.619  0.7452  0.5480  0.1054
  159SAPE   H9X17808   5.729   2.163   7.627 -1.4897 -1.6366 -1.7437
  159SAPE   H9Y17809   5.904   2.147   7.639 -0.1367  1.4511  1.6697
  159SAPE  C31017810   5.805   1.986   7.726 -0.0871  0.1523 -0.8115
  159SAPE  H10X17811   5.871   1.905   7.688 -2.6742 -2.7604  0.6776
  159SAPE  H10Y17812   5.708   1.933   7.737  1.3493 -2.4356  0.0253
  159SAPE  C31117813   5.847   2.044   7.867  0.2493  0.1310  0.5161
  159SAPE  H11X17814   5.806   2.147   7.873  0.5726  0.3538 -0.9051
  159SAPE  H11Y17815   5.958   2.054   7.876  0.4802  0.9165 -2.7085
  159SAPE  C31217816   5.795   1.964   7.990  0.1469  0.7251 -1.0649
  159SAPE  H12X17817   5.690   1.933   7.969  0.2761 -0.2049 -0.3853
  159SAPE  H12Y17818   5.808   2.035   8.074  2.2678 -0.0146 -0.7456
  159SAPE  C31317819   5.881   1.846   8.019  0.6166  0.1363  0.2102
  159SAPE  H13X17820   5.986   1.883   8.018  0.0998  1.6015 -0.4194
  159SAPE  H13Y17821   5.878   1.770   7.938  0.2619 -0.5628  0.8741
  159SAPE  C31417822   5.855   1.791   8.158  0.5703 -0.5964  0.5207
  159SAPE  H14X17823   5.758   1.737   8.153  0.7488 -0.9451  0.8651
  159SAPE  H14Y17824   5.858   1.872   8.233 -2.7449 -1.4417  1.6563
  159SAPE  C31517825   5.946   1.670   8.186  0.6336 -0.2467 -0.0863
  159SAPE  H15X17826   6.049   1.710   8.179 -0.0867  1.6580  0.0174
  159SAPE  H15Y17827   5.951   1.579   8.121 -0.3807  0.8436 -1.7127
  159SAPE  C31617828   5.914   1.611   8.329  0.0254  0.3017  0.0073
  159SAPE  H16X17829   5.898   1.693   8.402 -2.5453  0.4481 -0.6449
  159SAPE  H16Y17830   6.004   1.552   8.354 -1.2103 -0.4409  2.9554
  159SAPE  C31717831   5.791   1.521   8.328  0.2577 -0.8830  0.0783
  159SAPE  H17X17832   5.798   1.442   8.251  1.4424  0.3663 -1.1271
  159SAPE  H17Y17833   5.706   1.584   8.295  2.8511  3.1862  0.7696
  159SAPE  C31817834   5.760   1.455   8.458 -0.3876  0.2457 -0.9884
  159SAPE  H18X17835   5.776   1.534   8.535 -2.3045  0.5293 -0.8693
  159SAPE  H18Y17836   5.822   1.363   8.467  1.3213  1.3640 -1.1641
  159SAPE  H18Z17837   5.655   1.419   8.460 -1.0722  2.2296 -0.2307
  160SAPE     N17838   6.534   0.108   6.560 -0.0085  0.4375  0.4886
  160SAPE   HN117839   6.585   0.113   6.650  2.6918 -2.9676 -0.7294
  160SAPE   HN217840   6.547   0.011   6.523  0.6145  0.4289  0.7191
  160SAPE   HN317841   6.582   0.172   6.494 -1.1594 -0.5889 -1.4066
  160SAPE   C1217842   6.397   0.158   6.606  0.5315  0.2746 -0.1605
  160SAPE  H12A17843   6.348   0.071   6.655  1.1135 -0.7329 -1.3187
  160SAPE  H12B17844   6.344   0.183   6.511 -0.6862  1.0097  0.7059
  160SAPE   C1117845   6.398   0.293   6.681  0.7702  0.3010  0.2815
  160SAPE  H11A17846   6.420   0.262   6.786  1.6289  1.8987  0.5909
  160SAPE  H11B17847   6.295   0.332   6.696 -0.1610 -2.0391  0.1865
  160SAPE     P17848   6.429   0.507   6.548 -0.0140  0.1922 -0.4741
  160SAPE   O1317849   6.538   0.589   6.484  0.6096 -0.0689  0.3387
  160SAPE   O1417850   6.323   0.452   6.461 -0.3529 -0.0348  0.1277
  160SAPE   O1217851   6.494   0.385   6.628  0.0723  0.0540  0.0953
  160SAPE   O1117852   6.370   0.599   6.667 -0.5433 -0.3942 -0.4897
  160SAPE    C117853   6.432   0.642   6.784  0.3329  0.2154 -0.0907
  160SAPE    HA17854   6.540   0.654   6.763  0.0044  0.5764 -1.6237
  160SAPE    HB17855   6.398   0.744   6.812  3.2843  0.6347  2.1359
  160SAPE    C217856   6.420   0.553   6.909  0.3545 -0.8752  0.1901
  160SAPE    HS17857   6.465   0.452   6.900  0.1894 -0.8080 -1.5963
  160SAPE   O2117858   6.275   0.565   6.939  0.3456  0.0037 -0.1014
  160SAPE   C2117859   6.224   0.445   6.973 -0.3505  0.4703  0.1802
  160SAPE   O2217860   6.286   0.343   6.994 -0.1438 -0.1935 -0.5471
  160SAPE   C2217861   6.080   0.464   7.003 -0.8465  0.3823 -0.1361
  160SAPE   H2R17862   6.034   0.526   6.923 -0.5633 -0.3109 -0.8471
  160SAPE   H2S17863   6.032   0.364   7.006 -2.0069  0.9582  1.9100
  160SAPE    C317864   6.514   0.617   7.020  0.9000 -0.1300  0.4768
  160SAPE    HX17865   6.484   0.723   7.031  0.5359 -0.1733 -0.0964
  160SAPE    HY17866   6.615   0.617   6.972  0.2110  0.1288 -1.0101
  160SAPE   O3117867   6.506   0.559   7.152  0.6594 -0.1522 -0.1861
  160SAPE   C3117868   6.613   0.489   7.193  0.3791 -0.3917  0.1024
  160SAPE   O3217869   6.719   0.483   7.131  0.4071  0.1460 -0.2420
  160SAPE   C3217870   6.582   0.423   7.320  0.6074 -0.2469  0.5189
  160SAPE   H2X17871   6.474   0.399   7.305  1.2278 -2.0735 -1.2810
  160SAPE   H2Y17872   6.584   0.497   7.403  1.1840 -0.4063  0.6461
  160SAPE   C2317873   6.048   0.534   7.140  0.3763 -0.0688 -0.2296
  160SAPE   H3R17874   5.954   0.593   7.133 -0.4038 -1.5855 -3.1728
  160SAPE   H3S17875   6.131   0.601   7.172  0.4175 -0.1082 -0.2548
  160SAPE   C2417876   6.042   0.435   7.258 -0.7375  0.3562  0.1135
  160SAPE   H4R17877   6.126   0.364   7.245  0.4770  2.0093 -1.1772
  160SAPE   H4S17878   5.945   0.380   7.264 -0.5352  0.2046  2.7788
  160SAPE   C2517879   6.046   0.522   7.380 -0.0266 -0.2030  0.0455
  160SAPE   H5R17880   6.009   0.626   7.379  1.8395  0.4827 -0.5273
  160SAPE   C2617881   6.113   0.485   7.498  0.3725 -0.2694  0.3978
  160SAPE   H6R17882   6.107   0.559   7.579 -0.6194  0.6225 -0.4780
  160SAPE   C2717883   6.199   0.364   7.529  0.2152 -0.5452  0.4435
  160SAPE   H7R17884   6.233   0.316   7.435 -0.2478  2.2065 -1.1673
  160SAPE   H7S17885   6.137   0.296   7.592  1.9497 -2.0729  0.5556
  160SAPE   C2817886   6.314   0.403   7.621 -0.0428 -0.3323 -0.1680
  160SAPE   H8R17887   6.416   0.416   7.581  0.9346  1.5481  2.7351
  160SAPE   C2917888   6.308   0.422   7.756  0.0530  0.6206  0.7439
  160SAPE   H9R17889   6.399   0.458   7.806 -0.4331  0.5697  1.6906
  160SAPE  C21017890   6.189   0.403   7.851  0.4742 -0.0684 -0.0944
  160SAPE  H10R17891   6.140   0.304   7.842 -0.4795  0.3694  0.1673
  160SAPE  H10S17892   6.106   0.475   7.834 -1.0521 -2.2021 -1.8739
  160SAPE  C21117893   6.217   0.427   7.998  0.1040 -0.4322  0.2162
  160SAPE  H11R17894   6.317   0.461   8.028 -1.9042  3.1322  3.3532
  160SAPE  C21217895   6.120   0.422   8.088  1.2066  0.0224  0.0748
  160SAPE  H12R17896   6.143   0.442   8.194  2.1966  1.6280 -0.4271
  160SAPE  C21317897   5.966   0.400   8.060  0.0637  0.5052 -0.1107
  160SAPE  H13R17898   5.951   0.381   7.952  0.7011  0.1781 -0.1439
  160SAPE  H13S17899   5.912   0.496   8.071  2.1105  1.4961  1.7718
  160SAPE  C21417900   5.919   0.286   8.150  0.6347  0.0990  0.4159
  160SAPE  H14R17901   5.991   0.219   8.198 -0.6492 -0.6700  1.2845
  160SAPE  C21517902   5.787   0.256   8.178 -0.2008 -0.1918  0.7276
  160SAPE  H15R17903   5.774   0.181   8.257  0.1443 -2.0769 -0.9625
  160SAPE  C21617904   5.668   0.329   8.120 -0.3847 -0.5943  0.6036
  160SAPE  H16R17905   5.696   0.435   8.101  0.8956 -1.0830 -0.3737
  160SAPE  H16S17906   5.589   0.337   8.197 -0.7761  0.4868  0.0956
  160SAPE  C21717907   5.607   0.269   7.997 -0.3125 -0.1579  0.7196
  160SAPE  H17R17908   5.689   0.238   7.929  0.0528  1.4562  0.4105
  160SAPE  H17S17909   5.545   0.347   7.948 -1.1596 -0.7105  0.8843
  160SAPE  C21817910   5.535   0.136   8.034 -0.1479 -1.2296 -0.3765
  160SAPE  H18R17911   5.439   0.164   8.083  0.6553 -0.6849  0.9059
  160SAPE  H18S17912   5.598   0.084   8.109  1.7159  2.4038  0.7055
  160SAPE  C21917913   5.530   0.045   7.910  0.3045 -0.1935 -0.6313
  160SAPE  H19R17914   5.480  -0.048   7.943  0.5671  0.9775  3.3144
  160SAPE  H19S17915   5.631   0.017   7.873  0.9488  1.1189  0.0985
  160SAPE  C22017916   5.455   0.112   7.788 -0.5431 -0.1976 -0.6666
  160SAPE  H20R17917   5.358   0.149   7.829  0.3117  1.3552 -0.0031
  160SAPE  H20S17918   5.435   0.037   7.708  1.8528 -0.4544 -1.0701
  160SAPE  H20T17919   5.520   0.193   7.749  0.9835 -0.2383  1.7148
  160SAPE   C3317920   6.671   0.299   7.350  0.6579 -0.1360 -0.6394
  160SAPE   H3X17921   6.776   0.317   7.317  0.8165  0.1133 -0.0149
  160SAPE   H3Y17922   6.646   0.218   7.278 -1.1661  0.2732 -0.5008
  160SAPE   C3417923   6.666   0.253   7.494 -0.0551 -0.1602  0.0822
  160SAPE   H4X17924   6.736   0.167   7.501  0.6380  0.3084 -0.9833
  160SAPE   H4Y17925   6.564   0.224   7.528  0.3551  1.0695  2.4666
  160SAPE   C3517926   6.728   0.347   7.601 -0.5301 -0.3252  0.4694
  160SAPE   H5X17927   6.641   0.413   7.616 -1.1028 -0.2054 -2.9882
  160SAPE   H5Y17928   6.819   0.400   7.565  2.0483 -3.4910  2.0450
  160SAPE   C3617929   6.776   0.296   7.742  0.2710 -0.4353  0.1629
  160SAPE   H6X17930   6.855   0.218   7.732  0.4443 -0.0621 -1.5167
  160SAPE   H6Y17931   6.692   0.239   7.788 -0.7365  0.2958 -0.7491
  160SAPE   C3717932   6.821   0.407   7.839 -0.0685  0.3027  0.1744
  160SAPE   H7X17933   6.729   0.468   7.853 -0.3707  0.0996 -0.9404
  160SAPE   H7Y17934   6.905   0.463   7.794  0.0317  0.5999  0.7180
  160SAPE   C3817935   6.880   0.353   7.970 -0.1756 -0.2432 -0.6318
  160SAPE   H8X17936   6.979   0.307   7.950 -0.0726 -0.9586  1.4563
  160SAPE   H8Y17937   6.813   0.277   8.015  0.4065 -0.4847 -0.1756
  160SAPE   C3917938   6.901   0.465   8.070  0.0350 -0.2208  0.1805
  160SAPE   H9X17939   6.809   0.526   8.070 -0.8209 -1.4996 -0.8169
  160SAPE   H9Y17940   6.979   0.536   8.034  2.0771 -0.5397  3.7308
  160SAPE  C31017941   6.918   0.398   8.206 -0.6464 -0.6022  0.2043
  160SAPE  H10X17942   7.010   0.337   8.221 -0.0107  0.2646 -0.1330
  160SAPE  H10Y17943   6.833   0.333   8.235  0.2576 -1.7321  0.3720
  160SAPE  C31117944   6.919   0.510   8.315  0.1231  0.1623  0.9849
  160SAPE  H11X17945   6.824   0.565   8.328  0.9702  1.8881  0.0348
  160SAPE  H11Y17946   6.993   0.589   8.293 -0.5159  0.7243  0.8377
  160SAPE  C31217947   6.965   0.444   8.445 -0.8717 -0.4507  0.3466
  160SAPE  H12X17948   7.060   0.389   8.432 -1.1814 -1.2167  1.2803
  160SAPE  H12Y17949   6.897   0.362   8.476 -0.9905 -1.3345 -2.1710
  160SAPE  C31317950   6.975   0.550   8.562 -0.4519  0.2811 -0.1980
  160SAPE  H13X17951   6.892   0.625   8.553 -0.1724  0.9264  2.1158
  160SAPE  H13Y17952   7.073   0.600   8.550 -0.9340  1.2106 -0.3626
  160SAPE  C31417953   6.970   0.496   8.707 -0.1293  0.3455  0.1948
  160SAPE  H14X17954   7.063   0.437   8.720  1.2269  2.0598 -1.2743
  160SAPE  H14Y17955   6.878   0.436   8.719  0.6574 -1.2726 -1.5625
  160SAPE  C31517956   6.969   0.603   8.820  0.0678  0.9733  0.8748
  160SAPE  H15X17957   6.893   0.680   8.796  0.2130  0.7583 -0.3089
  160SAPE  H15Y17958   7.071   0.645   8.828  0.6996 -0.3506  0.0168
  160SAPE  C31617959   6.937   0.536   8.958  0.6376  0.1393 -0.0459
  160SAPE  H16X17960   7.016   0.459   8.972  0.4617 -0.2542 -1.1677
  160SAPE  H16Y17961   6.841   0.481   8.945  0.8595 -0.2497 -0.0500
  160SAPE  C31717962   6.932   0.634   9.075  0.2173  0.4319 -0.2272
  160SAPE  H17X17963   6.863   0.715   9.044 -0.2002 -0.0199 -0.4708
  160SAPE  H17Y17964   7.026   0.688   9.102 -0.9355  2.0322  0.6973
  160SAPE  C31817965   6.890   0.567   9.207  0.3134  0.1022  0.5257
  160SAPE  H18X17966   6.781   0.543   9.200  0.1779  1.1765 -1.3451
  160SAPE  H18Y17967   6.912   0.626   9.298 -1.5030  0.2402  0.8989
  160SAPE  H18Z17968   6.944   0.470   9.211  1.2726  0.6209  0.1331
  161SOPE     N17969   6.086   2.936  10.431 -0.1410  0.0319  0.6068
  161SOPE   HN117970   6.037   2.947  10.522 -2.2688  0.2920 -0.5292
  161SOPE   HN217971   6.188   2.944  10.451 -0.0475  1.5082 -0.4122
  161SOPE   HN317972   6.080   3.025  10.378  0.3631 -1.1354 -1.4815
  161SOPE   C1217973   6.058   2.807  10.360 -0.4264  0.1776  0.5063
  161SOPE  H12A17974   6.122   2.804  10.270 -0.9976 -0.8711  0.1274
  161SOPE  H12B17975   5.955   2.826  10.323  0.9512  4.0703 -1.6543
  161SOPE   C1117976   6.083   2.682  10.443 -0.4064 -0.7946 -0.1380
  161SOPE  H11A17977   6.193   2.680  10.454 -0.3778  2.6009  0.6129
  161SOPE  H11B17978   6.053   2.595  10.380  2.0319 -1.9582  0.2693
  161SOPE     P17979   5.867   2.653  10.579  0.2796  0.0141  0.0959
  161SOPE   O1317980   5.789   2.769  10.632  0.1450  0.4685  0.3537
  161SOPE   O1417981   5.865   2.534  10.663 -0.2682 -0.0994 -0.9428
  161SOPE   O1217982   6.016   2.695  10.567  0.4156  0.2304 -0.4797
  161SOPE   O1117983   5.829   2.623  10.429  0.0057  0.1131 -0.3728
  161SOPE    C117984   5.768   2.492  10.400 -0.5777  0.4662 -0.0975
  161SOPE    HA17985   5.665   2.471  10.437 -0.6963  1.2648  0.0218
  161SOPE    HB17986   5.833   2.410  10.438  0.1415  0.4971 -1.2388
  161SOPE    C217987   5.769   2.458  10.245  0.6832 -0.1207  0.1261
  161SOPE    HS17988   5.867   2.490  10.204  0.1119 -0.2609 -1.3543
  161SOPE   O2117989   5.660   2.520  10.178  0.1209 -0.4495 -0.0823
  161SOPE   C2117990   5.695   2.641  10.122 -0.1852 -0.1523 -0.4262
  161SOPE   O2217991   5.807   2.693  10.129  0.1410 -0.6909 -0.4697
  161SOPE   C2217992   5.568   2.694  10.063  0.0835 -0.3243  0.2204
  161SOPE   H2R17993   5.494   2.731  10.137  0.5772 -1.9119  1.5402
  161SOPE   H2S17994   5.519   2.617  10.001 -1.1892  1.0622 -0.5233
  161SOPE    C317995   5.759   2.306  10.216 -0.2179  0.1061 -0.1047
  161SOPE    HX17996   5.654   2.276  10.232 -0.4748 -0.1168 -2.0881
  161SOPE    HY17997   5.819   2.260  10.298 -1.1212  0.7749  0.9308
  161SOPE   O3117998   5.799   2.265  10.088  0.0334  0.1925  0.2302
  161SOPE   C3117999   5.846   2.141  10.080 -0.6968  0.0995 -1.0459
  161SOPE   O3218000   5.862   2.064  10.178  0.0295 -0.3577  0.3418
  161SOPE   C3218001   5.898   2.123   9.939 -0.8395  0.7540  0.1469
  161SOPE   H2X18002   5.991   2.182   9.923  0.6435 -1.2499  1.0090
  161SOPE   H2Y18003   5.817   2.141   9.866 -0.2484  1.3752 -0.3663
  161SOPE   C2318004   5.597   2.815   9.961 -0.2972  0.0034 -0.7427
  161SOPE   H3R18005   5.635   2.886  10.038 -1.1613 -0.3711  0.0388
  161SOPE   H3S18006   5.507   2.863   9.916  0.6616  1.8681 -0.7182
  161SOPE   C2418007   5.693   2.786   9.853 -0.2130  0.9478  0.0807
  161SOPE   H4R18008   5.794   2.754   9.886 -0.0597 -0.1653 -1.3575
  161SOPE   H4S18009   5.663   2.705   9.783  2.6069  0.5911 -0.8024
  161SOPE   C2518010   5.712   2.914   9.779  0.7187 -0.1405  0.6278
  161SOPE   H5R18011   5.621   2.928   9.717  0.5888  0.0981  0.8730
  161SOPE   H5S18012   5.718   2.999   9.850 -1.8517  0.1571  0.5311
  161SOPE   C2618013   5.834   2.906   9.678  0.6940  0.8517 -0.4031
  161SOPE   H6R18014   5.868   3.012   9.677 -1.9907  1.7516 -0.6010
  161SOPE   H6S18015   5.913   2.837   9.715  1.7987  1.1201 -2.1962
  161SOPE   C2718016   5.815   2.863   9.533  0.3779 -0.0286  0.4895
  161SOPE   H7R18017   5.775   2.759   9.530 -2.0592  0.8725  0.1219
  161SOPE   H7S18018   5.741   2.930   9.483  1.4925  1.5289  0.9072
  161SOPE   C2818019   5.943   2.876   9.449  0.0769  0.3046  0.0766
  161SOPE   H8R18020   5.989   2.970   9.484 -0.8093  0.6357  0.3710
  161SOPE   H8S18021   6.010   2.790   9.469  0.0550  0.1118 -0.6297
  161SOPE   C2918022   5.911   2.873   9.301  0.5785  0.3625  0.2814
  161SOPE   H9118023   5.807   2.896   9.276  0.3920  0.8524  1.4834
  161SOPE  C21018024   5.993   2.819   9.203  0.0302  0.5541 -0.3980
  161SOPE  H10118025   5.958   2.821   9.099  2.6870 -1.0597 -1.3937
  161SOPE  C21118026   6.130   2.746   9.209  1.0709 -0.2728  0.4926
  161SOPE  H11R18027   6.129   2.652   9.149  3.2731 -1.0662  1.6304
  161SOPE  H11S18028   6.145   2.719   9.316  0.1920  0.6068  0.8407
  161SOPE  C21218029   6.246   2.845   9.166 -0.3593  0.3300 -0.4493
  161SOPE  H12R18030   6.342   2.790   9.177 -1.9850 -2.6954 -0.7938
  161SOPE  H12S18031   6.247   2.931   9.237  1.5333 -0.2051  0.2081
  161SOPE  C21318032   6.240   2.915   9.034 -0.1007 -0.1858 -0.5356
  161SOPE  H13R18033   6.335   2.965   9.002 -0.0555  0.6917  0.8832
  161SOPE  H13S18034   6.168   2.999   9.037 -3.0480 -2.7124  1.7465
  161SOPE  C21418035   6.193   2.829   8.915  1.0128 -0.3538 -0.2448
  161SOPE  H14R18036   6.082   2.823   8.921  0.8783  1.4498 -0.6343
  161SOPE  H14S18037   6.234   2.727   8.932 -0.5581 -1.2014 -1.2733
  161SOPE  C21518038   6.240   2.880   8.780  0.3399  0.4663 -0.1689
  161SOPE  H15R18039   6.349   2.891   8.765  0.2470  1.0733 -0.4157
  161SOPE  H15S18040   6.196   2.981   8.771 -0.3007  0.3450  1.5631
  161SOPE  C21618041   6.182   2.791   8.670  0.4550 -0.7910 -0.2392
  161SOPE  H16R18042   6.169   2.835   8.569 -2.2942 -1.8459 -0.3841
  161SOPE  H16S18043   6.085   2.750   8.707 -0.1359  1.1803  0.4637
  161SOPE  C21718044   6.259   2.664   8.638  0.1371  0.0240 -1.0025
  161SOPE  H17R18045   6.240   2.601   8.727  3.6830 -1.1291 -0.9692
  161SOPE  H17S18046   6.367   2.682   8.616  0.6147 -1.6227 -0.0903
  161SOPE  C21818047   6.215   2.587   8.510  0.1201  0.6148 -0.1451
  161SOPE  H18R18048   6.285   2.502   8.498 -1.4914 -0.7146 -0.4159
  161SOPE  H18S18049   6.221   2.654   8.422  0.7934 -2.7017 -2.7238
  161SOPE  H18T18050   6.108   2.556   8.517  0.8194 -1.8763  0.2157
  161SOPE   C3318051   5.935   1.969   9.921  0.6061  0.1151  0.5653
  161SOPE   H3X18052   5.852   1.913   9.968  2.6022  0.5354  4.8769
  161SOPE   H3Y18053   6.020   1.928   9.980  0.4632 -0.8881  0.0821
  161SOPE   C3418054   5.966   1.952   9.771  0.5780 -0.7043 -0.2310
  161SOPE   H4X18055   5.877   1.980   9.711  0.9922  1.0994 -0.0375
  161SOPE   H4Y18056   5.982   1.844   9.749 -0.7467 -0.9456 -0.0451
  161SOPE   C3518057   6.085   2.037   9.719  0.2397  0.3430 -1.2163
  161SOPE   H5X18058   6.162   2.019   9.798 -2.3181  0.5693  1.4047
  161SOPE   H5Y18059   6.057   2.144   9.722 -0.2681  0.2038 -0.9661
  161SOPE   C3618060   6.132   2.015   9.581 -0.3535  0.0509 -0.2284
  161SOPE   H6X18061   6.157   1.908   9.565  2.3356  0.2277  2.4573
  161SOPE   H6Y18062   6.231   2.065   9.572 -1.3002  2.0134 -0.0963
  161SOPE   C3718063   6.038   2.087   9.480 -0.4366 -0.1161 -0.3245
  161SOPE   H7X18064   6.033   2.196   9.500  1.5247 -0.2352  0.9374
  161SOPE   H7Y18065   5.939   2.043   9.506 -0.6229  0.4692 -0.0229
  161SOPE   C3818066   6.063   2.070   9.322 -0.1631 -0.0051 -0.3549
  161SOPE   H8X18067   6.164   2.109   9.296 -0.0388  0.0881  0.2451
  161SOPE   H8Y18068   5.994   2.134   9.263  1.1786  1.5021 -0.3150
  161SOPE   C3918069   6.070   1.919   9.286  0.4986 -0.4732  0.3409
  161SOPE   H9X18070   5.998   1.857   9.344  0.4597 -1.2865 -0.5741
  161SOPE   H9Y18071   6.171   1.888   9.321  0.5473  0.1952  0.8115
  161SOPE  C31018072   6.054   1.902   9.128 -0.2782  0.1139 -0.7021
  161SOPE  H10X18073   6.087   1.801   9.096  1.6152  0.9191 -1.3583
  161SOPE  H10Y18074   6.121   1.973   9.075 -1.8888  0.3659 -2.4682
  161SOPE  C31118075   5.903   1.919   9.093  0.0699 -0.4401  0.4920
  161SOPE  H11X18076   5.871   2.023   9.112  0.9972 -0.3170  1.4203
  161SOPE  H11Y18077   5.830   1.856   9.149 -0.3126  0.4544  0.9969
  161SOPE  C31218078   5.885   1.890   8.938 -0.3183 -0.1835  0.6421
  161SOPE  H12X18079   5.936   1.797   8.906 -1.4562  0.5505 -3.5530
  161SOPE  H12Y18080   5.933   1.970   8.877  0.1206 -1.2894 -0.4813
  161SOPE  C31318081   5.735   1.868   8.907 -0.0288  0.5574 -0.5945
  161SOPE  H13X18082   5.690   1.969   8.918 -0.5058  0.6200 -2.8294
  161SOPE  H13Y18083   5.690   1.792   8.974  1.6599 -0.3546 -0.4698
  161SOPE  C31418084   5.701   1.812   8.771 -0.1219 -0.1590  0.4063
  161SOPE  H14X18085   5.746   1.711   8.763 -0.8150 -0.4410  0.0236
  161SOPE  H14Y18086   5.752   1.878   8.697  0.4195 -0.3539  0.6046
  161SOPE  C31518087   5.545   1.790   8.747 -0.2932 -0.0869  0.1917
  161SOPE  H15X18088   5.503   1.746   8.840  1.8124  1.7561  2.0926
  161SOPE  H15Y18089   5.531   1.736   8.651  0.3205  3.1693 -1.8211
  161SOPE  C31618090   5.473   1.924   8.718 -0.7936  0.0802  0.5023
  161SOPE  H16X18091   5.493   1.996   8.799 -1.1017 -0.5067  1.1038
  161SOPE  H16Y18092   5.364   1.902   8.719 -0.7781  0.0449  1.7478
  161SOPE  C31718093   5.500   1.986   8.586  0.2853 -0.3551 -0.8952
  161SOPE  H17X18094   5.488   1.909   8.507 -3.6569 -0.5045 -0.2102
  161SOPE  H17Y18095   5.604   2.025   8.573  0.2998 -0.5609 -1.4234
  161SOPE  C31818096   5.402   2.103   8.557  0.3839  0.1513  0.5151
  161SOPE  H18X18097   5.425   2.149   8.459 -0.1842  0.1075  0.3604
  161SOPE  H18Y18098   5.393   2.183   8.633  0.7539  1.5200 -0.8561
  161SOPE  H18Z18099   5.299   2.062   8.546  1.5421 -2.2870 -1.7956
  162SOPE     N18100   4.934   1.907  10.867  0.2740 -0.4498 -0.1604
  162SOPE   HN118101   4.879   1.876  10.949 -1.5038 -1.4314 -1.6804
  162SOPE   HN218102   5.010   1.838  10.851  0.8426  0.2821 -0.6527
  162SOPE   HN318103   4.977   2.000  10.888  1.0714 -0.7212 -0.5730
  162SOPE   C1218104   4.844   1.894  10.755 -0.2766 -0.9608 -0.4385
  162SOPE  H12A18105   4.876   1.797  10.711 -1.5527 -0.9281 -1.4580
  162SOPE  H12B18106   4.879   1.950  10.666 -1.2173 -1.4732 -1.1450
  162SOPE   C1118107   4.700   1.898  10.812  0.0553  0.4029  0.3148
  162SOPE  H11A18108   4.634   1.865  10.729  0.1164 -0.7339  0.7078
  162SOPE  H11B18109   4.682   2.007  10.826 -0.0868  0.3755  0.3474
  162SOPE     P18110   4.551   1.833  11.010 -0.2061 -0.1281 -0.6379
  162SOPE   O1318111   4.544   1.965  11.079  0.5676  0.4188 -0.4323
  162SOPE   O1418112   4.525   1.712  11.092 -0.4836  0.0550 -0.1875
  162SOPE   O1218113   4.681   1.814  10.926 -0.0862  0.7430 -0.2767
  162SOPE   O1118114   4.445   1.838  10.893  0.0973 -0.1265 -0.0087
  162SOPE    C118115   4.416   1.730  10.807 -0.3416 -0.0004  0.9057
  162SOPE    HA18116   4.380   1.640  10.862 -1.1305 -0.6439 -0.6203
  162SOPE    HB18117   4.510   1.697  10.758 -1.3995 -1.2343 -0.3508
  162SOPE    C218118   4.307   1.760  10.704 -0.0500  0.0452  0.9383
  162SOPE    HS18119   4.292   1.666  10.646  1.4485 -0.3708  1.1999
  162SOPE   O2118120   4.339   1.871  10.622  0.0607  0.4418  0.5879
  162SOPE   C2118121   4.438   1.854  10.540  0.2689 -0.8640  0.1747
  162SOPE   O2218122   4.493   1.746  10.513  0.0898  0.0801 -0.3302
  162SOPE   C2218123   4.459   1.986  10.458 -0.2224 -0.1565 -0.2010
  162SOPE   H2R18124   4.529   2.052  10.514  1.3161 -0.3119 -1.8712
  162SOPE   H2S18125   4.356   2.024  10.440 -1.6651 -1.3058  4.6949
  162SOPE    C318126   4.165   1.769  10.764 -0.2023  0.4429 -0.3041
  162SOPE    HX18127   4.178   1.854  10.834 -1.5458  0.5224 -0.1510
  162SOPE    HY18128   4.138   1.676  10.819  0.4088  1.0683  1.0726
  162SOPE   O3118129   4.073   1.802  10.670 -0.4251 -0.3881 -0.5778
  162SOPE   C3118130   4.033   1.710  10.584  0.4194  0.1583 -0.8391
  162SOPE   O3218131   4.072   1.595  10.568 -1.0837  0.1327 -0.1786
  162SOPE   C3218132   3.912   1.756  10.499  0.6851 -0.7728  0.5844
  162SOPE   H2X18133   3.867   1.842  10.552  1.6124  0.8888 -1.2292
  162SOPE   H2Y18134   3.850   1.664  10.492 -1.2214  0.4831  0.5155
  162SOPE   C2318135   4.523   1.967  10.316  0.3996  0.2871  0.5546
  162SOPE   H3R18136   4.480   1.890  10.249  0.3703  0.4678  0.3649
  162SOPE   H3S18137   4.632   1.945  10.326  0.6569  1.0863 -0.3782
  162SOPE   C2418138   4.527   2.093  10.237  0.0909  0.2778 -0.4159
  162SOPE   H4R18139   4.428   2.132  10.206 -0.8872 -2.4213 -0.7670
  162SOPE   H4S18140   4.570   2.179  10.294 -0.7930 -0.7431  1.8313
  162SOPE   C2518141   4.614   2.077  10.123  0.9820 -0.4926 -0.1397
  162SOPE   H5R18142   4.611   2.179  10.080  2.4344  0.2415  1.4452
  162SOPE   H5S18143   4.722   2.057  10.144  0.8112 -0.0211  1.1955
  162SOPE   C2618144   4.576   1.975  10.018 -0.1900 -0.1171 -0.4257
  162SOPE   H6R18145   4.584   1.873  10.062  2.1741 -0.5044 -1.6723
  162SOPE   H6S18146   4.469   1.975   9.989  0.1435 -1.7791 -1.7484
  162SOPE   C2718147   4.677   1.984   9.899 -0.1737  0.2221 -1.1683
  162SOPE   H7R18148   4.670   2.085   9.853 -1.0216  0.7609  0.1205
  162SOPE   H7S18149   4.783   1.976   9.933 -0.6531  0.2164  0.3699
  162SOPE   C2818150   4.650   1.870   9.791  0.9299 -0.2465 -0.4219
  162SOPE   H8R18151   4.609   1.783   9.846  0.0604  1.0470  0.9940
  162SOPE   H8S18152   4.566   1.918   9.736  0.7707  1.6927  1.4566
  162SOPE   C2918153   4.762   1.834   9.696  0.2575  0.0787  0.3352
  162SOPE   H9118154   4.831   1.760   9.740 -0.0115  0.5157  1.5313
  162SOPE  C21018155   4.782   1.880   9.572 -0.0598  0.0305  0.3591
  162SOPE  H10118156   4.862   1.836   9.510 -0.3343 -0.7800  0.5757
  162SOPE  C21118157   4.692   1.958   9.485 -0.5395  0.2194 -0.2109
  162SOPE  H11R18158   4.697   2.068   9.500 -0.5835  0.4276 -1.5869
  162SOPE  H11S18159   4.588   1.926   9.505 -0.2928 -0.5969 -0.1964
  162SOPE  C21218160   4.720   1.938   9.329 -0.0351  0.1409 -0.3430
  162SOPE  H12R18161   4.725   1.832   9.298  0.6521  0.2499 -0.5994
  162SOPE  H12S18162   4.822   1.980   9.319  0.4995 -1.5580 -2.3550
  162SOPE  C21318163   4.621   2.024   9.246 -0.1884 -0.6701  0.3345
  162SOPE  H13R18164   4.677   2.061   9.157 -2.3580 -1.1734 -1.3136
  162SOPE  H13S18165   4.579   2.108   9.304 -0.3350  0.0357 -0.7683
  162SOPE  C21418166   4.499   1.947   9.197 -0.3472 -1.0088 -0.0772
  162SOPE  H14R18167   4.447   1.906   9.286  1.9517 -0.3445  1.6224
  162SOPE  H14S18168   4.514   1.857   9.133  1.5762 -0.1438 -0.8897
  162SOPE  C21518169   4.401   2.042   9.124  0.0383 -0.5737 -0.5061
  162SOPE  H15R18170   4.429   2.150   9.117 -1.1030 -0.1405  1.1947
  162SOPE  H15S18171   4.312   2.033   9.190 -0.5504  1.7312 -0.9141
  162SOPE  C21618172   4.352   1.986   8.991  0.1187  0.4327 -1.2878
  162SOPE  H16R18173   4.333   1.877   8.997 -0.2745  0.5152 -0.9930
  162SOPE  H16S18174   4.431   1.993   8.913  0.4180 -0.2318 -1.0464
  162SOPE  C21718175   4.233   2.065   8.948 -0.1913  0.1700 -0.1976
  162SOPE  H17R18176   4.259   2.173   8.949  1.6604 -0.2411 -0.7572
  162SOPE  H17S18177   4.154   2.046   9.023 -1.6113  1.5255 -1.3126
  162SOPE  C21818178   4.160   2.028   8.813 -0.6081 -0.1822 -0.1727
  162SOPE  H18R18179   4.139   1.919   8.812 -0.5283 -0.2015  0.1240
  162SOPE  H18S18180   4.238   2.044   8.735  0.7622 -1.9307  0.7957
  162SOPE  H18T18181   4.069   2.090   8.803  0.0468  1.0094  1.1039
  162SOPE   C3318182   3.951   1.799  10.352 -0.4491  0.3521 -0.4582
  162SOPE   H3X18183   3.853   1.818  10.304 -0.4530  0.5390 -0.3786
  162SOPE   H3Y18184   4.013   1.716  10.311  0.6314  1.0894 -0.3469
  162SOPE   C3418185   4.038   1.919  10.345 -0.3391 -0.2259  0.0654
  162SOPE   H4X18186   4.145   1.897  10.364  0.2005  1.7834 -0.5221
  162SOPE   H4Y18187   4.004   2.005  10.406  0.1280  0.3185 -0.4341
  162SOPE   C3518188   4.036   1.977  10.203  0.0030 -0.0199  0.8765
  162SOPE   H5X18189   4.107   2.062  10.194  0.1197 -0.2832 -0.8130
  162SOPE   H5Y18190   3.934   2.020  10.190 -0.4552 -1.5624 -0.6966
  162SOPE   C3618191   4.051   1.880  10.088 -0.6910 -0.4269 -0.7590
  162SOPE   H6X18192   3.954   1.827  10.077 -0.4120 -1.1722  0.2322
  162SOPE   H6Y18193   4.133   1.809  10.113  0.1027  0.9503  0.6826
  162SOPE   C3718194   4.105   1.943   9.956  0.1107  0.2148  0.2752
  162SOPE   H7X18195   4.211   1.968   9.980 -0.1239  0.5115  1.0211
  162SOPE   H7Y18196   4.066   2.046   9.939 -2.0315 -0.8225 -1.3163
  162SOPE   C3818197   4.097   1.864   9.830 -0.0389 -0.1905 -0.1756
  162SOPE   H8X18198   3.993   1.856   9.792 -0.5120  0.4775  0.9605
  162SOPE   H8Y18199   4.127   1.760   9.855  0.9147  0.2185  0.3973
  162SOPE   C3918200   4.196   1.901   9.721  0.1003  0.2946  0.4715
  162SOPE   H9X18201   4.296   1.854   9.733 -0.7838 -1.2649  1.9627
  162SOPE   H9Y18202   4.195   2.011   9.738 -1.2894  0.2233  0.9486
  162SOPE  C31018203   4.135   1.865   9.582  0.0353 -0.0007  0.5173
  162SOPE  H10X18204   4.027   1.844   9.597  0.0243  0.8626  1.7221
  162SOPE  H10Y18205   4.183   1.777   9.533  1.8225  2.4765 -2.3730
  162SOPE  C31118206   4.168   1.977   9.477 -0.0827 -0.1740 -0.1459
  162SOPE  H11X18207   4.266   1.956   9.428 -0.0034  1.4983 -0.7315
  162SOPE  H11Y18208   4.184   2.069   9.537 -2.8604  0.3809 -0.2092
  162SOPE  C31218209   4.058   2.010   9.371  0.4603  0.4187 -0.1936
  162SOPE  H12X18210   4.073   2.102   9.311  0.7634  0.1958 -0.4547
  162SOPE  H12Y18211   3.968   2.042   9.430  0.3595 -2.0711  1.0402
  162SOPE  C31318212   4.034   1.893   9.279  0.2259  0.3757  0.3515
  162SOPE  H13X18213   4.008   1.801   9.337 -0.7164  0.4172 -0.0059
  162SOPE  H13Y18214   4.132   1.879   9.227 -0.0984 -0.0134 -0.1653
  162SOPE  C31418215   3.933   1.928   9.167  0.3838 -0.6261  0.9661
  162SOPE  H14X18216   3.955   2.016   9.102  0.0334 -2.7972 -2.1825
  162SOPE  H14Y18217   3.841   1.964   9.217 -0.4087 -0.9263 -0.2539
  162SOPE  C31518218   3.904   1.806   9.087 -0.2446 -0.6426 -0.2943
  162SOPE  H15X18219   3.873   1.723   9.154 -1.0446  0.4559  0.7159
  162SOPE  H15Y18220   3.997   1.783   9.032  0.9750  2.2939  0.4348
  162SOPE  C31618221   3.796   1.825   8.973 -0.5148 -0.5173  0.0519
  162SOPE  H16X18222   3.809   1.930   8.942 -1.1775 -0.2694  0.5960
  162SOPE  H16Y18223   3.699   1.824   9.028  0.2716  0.6828  1.4987
  162SOPE  C31718224   3.787   1.719   8.867 -0.5989 -0.7518  0.2263
  162SOPE  H17X18225   3.864   1.739   8.790 -3.2846  2.9606 -1.6992
  162SOPE  H17Y18226   3.695   1.745   8.811  0.2234  2.2729  0.1771
  162SOPE  C31818227   3.801   1.576   8.917  0.6637  0.1423 -0.4805
  162SOPE  H18X18228   3.782   1.502   8.836 -3.4108 -0.0744  0.5536
  162SOPE  H18Y18229   3.715   1.551   8.984 -0.6795  0.7700 -1.9485
  162SOPE  H18Z18230   3.899   1.552   8.964  2.0003  2.0852 -2.2400
  163SOPE     N18231   3.942   5.782  10.925 -0.0500 -0.0786  0.4699
  163SOPE   HN118232   3.998   5.697  10.945 -0.3748 -0.0393  1.5657
  163SOPE   HN218233   3.982   5.860  10.980 -0.9724  0.0925  0.9062
  163SOPE   HN318234   3.844   5.769  10.956 -0.0729 -2.2102 -0.3717
  163SOPE   C1218235   3.955   5.828  10.781  0.3698 -0.3260  0.9535
  163SOPE  H12A18236   3.893   5.768  10.711 -0.0733  1.7495 -0.4478
  163SOPE  H12B18237   4.057   5.814  10.740  0.1867  2.2366 -0.4364
  163SOPE   C1118238   3.924   5.981  10.775 -0.3688  0.4724 -0.6643
  163SOPE  H11A18239   3.820   6.008  10.803 -0.9179 -0.9670 -1.2278
  163SOPE  H11B18240   3.935   6.001  10.666 -1.4059 -1.8081 -1.2255
  163SOPE     P18241   4.010   6.202  10.883  0.2201 -0.1101 -0.0002
  163SOPE   O1318242   4.127   6.245  10.964 -0.7961 -0.0327  0.0430
  163SOPE   O1418243   3.879   6.233  10.944 -0.7913 -0.2228 -0.1280
  163SOPE   O1218244   4.015   6.048  10.859  0.4112  0.6716 -0.3231
  163SOPE   O1118245   4.037   6.263  10.739  0.0696  0.5911 -0.2400
  163SOPE    C118246   4.166   6.264  10.680 -0.4332  0.0513 -1.0092
  163SOPE    HA18247   4.246   6.218  10.743 -0.2021 -0.3917 -1.6171
  163SOPE    HB18248   4.199   6.367  10.655  1.4135 -0.5622 -1.2020
  163SOPE    C218249   4.173   6.171  10.552  0.1189  0.0202  0.1168
  163SOPE    HS18250   4.178   6.066  10.586  3.5061  0.3302  0.7360
  163SOPE   O2118251   4.284   6.206  10.480 -0.0303 -0.1533  0.0521
  163SOPE   C2118252   4.349   6.108  10.420  0.6087 -0.0054 -0.0981
  163SOPE   O2218253   4.314   5.994  10.418  0.5216  0.2352  0.3882
  163SOPE   C2218254   4.479   6.160  10.360  0.1236 -0.8384  0.0838
  163SOPE   H2R18255   4.567   6.144  10.425  0.8514  4.0125  0.5298
  163SOPE   H2S18256   4.482   6.271  10.351  0.4220 -0.9276 -0.9407
  163SOPE    C318257   4.050   6.197  10.464  0.4078  0.3604 -0.1691
  163SOPE    HX18258   4.039   6.307  10.456 -1.0185  0.4538  2.4713
  163SOPE    HY18259   3.965   6.171  10.532  1.1410  0.7953  0.9293
  163SOPE   O3118260   4.061   6.134  10.342  0.1359 -0.0572  0.6563
  163SOPE   C3118261   4.023   6.012  10.345 -0.6919  0.2287  0.1024
  163SOPE   O3218262   3.979   5.942  10.436  0.1059  0.2683  0.0525
  163SOPE   C3218263   4.042   5.953  10.204  0.3438  0.5177  0.7223
  163SOPE   H2X18264   4.149   5.926  10.203  0.3820  0.6895 -0.4567
  163SOPE   H2Y18265   4.028   6.024  10.119  1.9617 -1.6120 -1.3809
  163SOPE   C2318266   4.497   6.101  10.218 -0.2346  0.3847 -0.8205
  163SOPE   H3R18267   4.496   5.990  10.216 -1.5592  0.3737 -0.0544
  163SOPE   H3S18268   4.597   6.130  10.179  0.9833 -1.0585  1.1027
  163SOPE   C2418269   4.402   6.159  10.113 -0.0388  0.4964 -0.3177
  163SOPE   H4R18270   4.298   6.174  10.148  0.5561  2.3314  0.7415
  163SOPE   H4S18271   4.427   6.261  10.077  0.8504  0.3056 -0.2429
  163SOPE   C2518272   4.405   6.054   9.991 -0.1164 -0.8734  0.7387
  163SOPE   H5R18273   4.511   6.022   9.983  0.5883  1.5763 -0.2013
  163SOPE   H5S18274   4.348   5.968  10.031  0.0419 -0.2289  2.3731
  163SOPE   C2618275   4.348   6.119   9.869 -0.9014  0.7263 -0.1025
  163SOPE   H6R18276   4.248   6.163   9.892 -0.9024 -0.8237  3.0394
  163SOPE   H6S18277   4.416   6.201   9.837  0.3435 -0.3255 -0.1665
  163SOPE   C2718278   4.342   6.008   9.764  0.5665 -0.0284  0.3964
  163SOPE   H7R18279   4.444   5.967   9.748 -0.0790 -1.0344 -1.2951
  163SOPE   H7S18280   4.287   5.919   9.802 -1.0887  0.8847  0.1922
  163SOPE   C2818281   4.300   6.069   9.632  0.3595  0.7544 -0.4914
  163SOPE   H8R18282   4.345   6.167   9.608 -0.2577  1.1107 -0.2172
  163SOPE   H8S18283   4.343   5.997   9.560 -1.3307 -1.4692  0.6464
  163SOPE   C2918284   4.149   6.072   9.614  0.9162  0.1313 -0.1039
  163SOPE   H9118285   4.097   6.111   9.703  0.9940  3.3340 -1.4055
  163SOPE  C21018286   4.075   6.047   9.500 -0.0161  0.5133 -0.4562
  163SOPE  H10118287   3.967   6.069   9.499 -0.0341  0.5575  1.1946
  163SOPE  C21118288   4.119   5.999   9.366 -0.2504 -0.6343 -0.0266
  163SOPE  H11R18289   4.043   5.954   9.299 -0.0022  1.5321 -1.8523
  163SOPE  H11S18290   4.205   5.930   9.379  1.0950  1.2321  1.3226
  163SOPE  C21218291   4.177   6.115   9.283  0.7234 -0.5814 -0.3075
  163SOPE  H12R18292   4.257   6.162   9.344 -0.0734 -1.2338  1.2595
  163SOPE  H12S18293   4.115   6.206   9.270  2.9189  1.3873  2.3586
  163SOPE  C21318294   4.253   6.060   9.159 -0.3078  1.1711  0.0552
  163SOPE  H13R18295   4.189   5.997   9.092  1.7799 -0.6755 -0.2719
  163SOPE  H13S18296   4.329   5.987   9.196 -1.8437 -0.5792 -0.1290
  163SOPE  C21418297   4.322   6.166   9.065 -0.1021  0.7318  0.3633
  163SOPE  H14R18298   4.391   6.229   9.124  0.1377 -0.7125  1.6724
  163SOPE  H14S18299   4.248   6.242   9.032  0.5779  1.1601 -0.1887
  163SOPE  C21518300   4.418   6.100   8.960  0.2261 -0.0466 -0.4879
  163SOPE  H15R18301   4.350   6.047   8.890  3.0547 -1.2290 -2.4321
  163SOPE  H15S18302   4.471   6.018   9.013  0.4213  1.3825  1.5696
  163SOPE  C21618303   4.511   6.191   8.884  0.7857  0.6522  0.6266
  163SOPE  H16R18304   4.584   6.251   8.944  1.1636  0.9018 -0.0761
  163SOPE  H16S18305   4.441   6.258   8.831 -0.3087 -1.0299 -0.0750
  163SOPE  C21718306   4.585   6.116   8.770  0.3413 -0.3667 -0.1368
  163SOPE  H17R18307   4.509   6.059   8.714  0.0899 -1.6721  1.4950
  163SOPE  H17S18308   4.661   6.050   8.817  0.7134 -0.0288 -0.2505
  163SOPE  C21818309   4.652   6.209   8.669 -0.5260 -0.0259 -0.5495
  163SOPE  H18R18310   4.714   6.289   8.716 -2.4088  0.5956  0.9183
  163SOPE  H18S18311   4.580   6.255   8.598 -2.0020 -0.1455  0.8524
  163SOPE  H18T18312   4.710   6.144   8.599  1.5545 -0.2411  1.3117
  163SOPE   C3318313   3.954   5.832  10.167  0.0826  0.0524  0.1718
  163SOPE   H3X18314   3.846   5.856  10.164 -0.4381 -2.1742 -0.0965
  163SOPE   H3Y18315   3.964   5.754  10.246 -2.5500 -0.4582  0.0453
  163SOPE   C3418316   4.005   5.763  10.035  0.1812 -0.2140  0.6320
  163SOPE   H4X18317   3.936   5.679  10.011  2.4109 -1.5393 -1.4658
  163SOPE   H4Y18318   4.109   5.727  10.054  0.9281  1.0341 -1.0414
  163SOPE   C3518319   3.984   5.860   9.914 -0.1948  0.1195  0.4319
  163SOPE   H5X18320   4.057   5.943   9.904  0.0342  0.1561  2.2602
  163SOPE   H5Y18321   3.888   5.916   9.923 -2.1486 -2.8498 -1.1319
  163SOPE   C3618322   3.967   5.789   9.782 -0.5297  0.0103  0.0438
  163SOPE   H6X18323   3.934   5.863   9.706  1.7967 -0.2100 -1.2120
  163SOPE   H6Y18324   3.879   5.722   9.791 -0.4930 -0.2191 -1.1796
  163SOPE   C3718325   4.081   5.701   9.722 -0.6453  0.4038 -0.4986
  163SOPE   H7X18326   4.122   5.634   9.800  1.0474  3.9418  1.8149
  163SOPE   H7Y18327   4.170   5.761   9.691 -0.8542 -0.4622 -2.8307
  163SOPE   C3818328   4.029   5.618   9.606  0.2610  0.0878 -0.2826
  163SOPE   H8X18329   3.926   5.584   9.633 -0.9977  3.0738 -1.0997
  163SOPE   H8Y18330   4.099   5.534   9.588 -0.5642 -0.5578 -0.4969
  163SOPE   C3918331   4.017   5.695   9.476  0.1063  0.4209  0.3705
  163SOPE   H9X18332   4.121   5.725   9.453  0.7912 -1.2732  1.2514
  163SOPE   H9Y18333   3.947   5.781   9.486 -0.2390  0.1576  0.2357
  163SOPE  C31018334   3.967   5.610   9.352  0.4326 -0.4646  0.2182
  163SOPE  H10X18335   3.863   5.586   9.382  0.4233 -0.5370  0.1262
  163SOPE  H10Y18336   4.037   5.524   9.345  1.8509  0.7352 -0.7427
  163SOPE  C31118337   3.979   5.690   9.222  0.7979  0.5591 -0.4502
  163SOPE  H11X18338   3.951   5.797   9.225 -3.9722 -0.6414  1.2713
  163SOPE  H11Y18339   3.905   5.659   9.145  2.9022 -0.1774 -2.2387
  163SOPE  C31218340   4.111   5.672   9.144 -0.3958 -0.4883  0.3782
  163SOPE  H12X18341   4.139   5.565   9.137  4.5744  0.7323 -0.0122
  163SOPE  H12Y18342   4.192   5.714   9.208 -3.3090  2.8590  2.0491
  163SOPE  C31318343   4.122   5.751   9.014 -1.1781 -0.3077 -0.2655
  163SOPE  H13X18344   4.231   5.770   9.023 -1.4654  0.9921  0.5807
  163SOPE  H13Y18345   4.069   5.848   9.021  3.0366  2.2444 -1.9595
  163SOPE  C31418346   4.089   5.677   8.885 -0.1497  0.2195 -0.7908
  163SOPE  H14X18347   3.981   5.665   8.862 -0.2874  1.6734 -0.9607
  163SOPE  H14Y18348   4.129   5.575   8.900 -1.2611 -0.0350  0.5918
  163SOPE  C31518349   4.139   5.742   8.760  0.7502 -0.0369  0.1516
  163SOPE  H15X18350   4.125   5.853   8.763  0.8348 -0.0486  1.0763
  163SOPE  H15Y18351   4.080   5.705   8.674  1.0768  0.0015 -0.0905
  163SOPE  C31618352   4.289   5.714   8.725 -0.5991  0.0018 -0.2819
  163SOPE  H16X18353   4.333   5.619   8.763  1.1712  0.7038 -0.5780
  163SOPE  H16Y18354   4.342   5.795   8.779 -0.1123 -1.2130  1.0908
  163SOPE  C31718355   4.329   5.744   8.578 -0.9628  0.2649  0.4603
  163SOPE  H17X18356   4.324   5.852   8.551 -0.9025 -0.1187 -1.1138
  163SOPE  H17Y18357   4.258   5.693   8.509  0.0934  1.1925 -1.3408
  163SOPE  C31818358   4.475   5.699   8.566 -0.0458  0.4514  0.5339
  163SOPE  H18X18359   4.512   5.739   8.469 -0.1565  0.1848  0.3809
  163SOPE  H18Y18360   4.489   5.589   8.574 -2.7430 -0.1061 -1.4247
  163SOPE  H18Z18361   4.550   5.744   8.634  1.3449 -0.1164 -0.5914
  164SOPE     N18362   1.218   4.422  10.783  0.1907  0.0963  0.1281
  164SOPE   HN118363   1.190   4.337  10.732  0.7877  0.4418 -0.7787
  164SOPE   HN218364   1.154   4.500  10.756  0.5946  0.7809  1.1138
  164SOPE   HN318365   1.315   4.451  10.761 -0.3317  1.3650 -0.6083
  164SOPE   C1218366   1.182   4.408  10.932 -0.1993 -0.1181 -0.3854
  164SOPE  H12A18367   1.215   4.506  10.973  1.2678 -1.2371  1.1532
  164SOPE  H12B18368   1.241   4.324  10.975 -1.5543  0.1216  1.9945
  164SOPE   C1118369   1.028   4.381  10.950 -0.4599 -0.1888 -0.4089
  164SOPE  H11A18370   1.016   4.350  11.056  0.6817  0.9734  0.0678
  164SOPE  H11B18371   0.997   4.294  10.888  0.3264 -0.3786 -0.5415
  164SOPE     P18372   0.805   4.506  10.975 -0.3533  0.5399 -0.0385
  164SOPE   O1318373   0.798   4.573  11.114  0.4621 -0.3028 -0.1377
  164SOPE   O1418374   0.731   4.378  10.963  0.2588  0.6565 -0.4980
  164SOPE   O1218375   0.958   4.497  10.921 -0.3285  0.1409 -0.6931
  164SOPE   O1118376   0.747   4.611  10.872 -0.1853 -0.8424  0.0190
  164SOPE    C118377   0.825   4.682  10.770 -0.2282 -0.6148  0.4892
  164SOPE    HA18378   0.925   4.711  10.811  0.5470 -0.2595 -1.5711
  164SOPE    HB18379   0.772   4.773  10.734  2.2581 -0.3426 -2.7206
  164SOPE    C218380   0.841   4.589  10.648 -0.7722  0.4776  1.0173
  164SOPE    HS18381   0.890   4.499  10.690 -1.7029 -2.1598 -3.2369
  164SOPE   O2118382   0.920   4.655  10.544 -0.2392  0.4831 -1.0980
  164SOPE   C2118383   1.030   4.591  10.508  0.3258  0.1821 -0.1834
  164SOPE   O2218384   1.069   4.484  10.542  0.9721  0.0964  0.3711
  164SOPE   C2218385   1.100   4.665  10.393 -0.4552  0.0312 -0.1040
  164SOPE   H2R18386   1.101   4.774  10.415  1.0300 -0.1577  0.8111
  164SOPE   H2S18387   1.028   4.648  10.310 -1.0293  1.4887  0.0776
  164SOPE    C318388   0.704   4.543  10.595  0.0819  0.0654 -0.5489
  164SOPE    HX18389   0.647   4.636  10.574 -1.6182 -0.8575 -0.1648
  164SOPE    HY18390   0.650   4.495  10.679  0.1562 -0.5614 -0.8497
  164SOPE   O3118391   0.723   4.442  10.488 -0.0282  0.2856  0.3528
  164SOPE   C3118392   0.733   4.498  10.373  0.0975 -0.0779 -0.7007
  164SOPE   O3218393   0.714   4.613  10.344  0.2554  0.1840 -0.0639
  164SOPE   C3218394   0.767   4.387  10.273 -0.4170 -0.1762  0.3333
  164SOPE   H2X18395   0.674   4.328  10.289 -0.7213  0.6152  1.5061
  164SOPE   H2Y18396   0.855   4.329  10.309 -0.2822 -0.4549 -0.4356
  164SOPE   C2318397   1.240   4.605  10.362 -0.2337  0.2720 -0.8499
  164SOPE   H3R18398   1.280   4.569  10.460 -2.7971  0.8313  0.4482
  164SOPE   H3S18399   1.309   4.687  10.332 -1.6139  1.4322 -0.9242
  164SOPE   C2418400   1.238   4.489  10.263  0.9949  0.1394  0.5802
  164SOPE   H4R18401   1.317   4.415  10.284 -0.8103 -1.4664  1.8418
  164SOPE   H4S18402   1.145   4.429  10.258 -2.3857  5.1516 -0.2233
  164SOPE   C2518403   1.256   4.536  10.121  0.2026  0.2395  0.0753
  164SOPE   H5R18404   1.161   4.587  10.092  0.0435 -0.8967 -1.4422
  164SOPE   H5S18405   1.336   4.608  10.093  1.4812 -0.8561  0.8396
  164SOPE   C2618406   1.274   4.410  10.038  0.8495 -0.1961  0.4205
  164SOPE   H6R18407   1.357   4.347  10.075  1.8185  1.6263  1.4213
  164SOPE   H6S18408   1.180   4.354  10.057  0.6405  0.3746  1.1018
  164SOPE   C2718409   1.297   4.435   9.888 -0.1718 -0.4540 -0.6539
  164SOPE   H7R18410   1.222   4.508   9.849  0.6557  1.3263  1.0088
  164SOPE   H7S18411   1.392   4.487   9.862 -1.1995  0.6653 -2.2605
  164SOPE   C2818412   1.308   4.302   9.814  0.1213 -0.3832 -0.0094
  164SOPE   H8R18413   1.341   4.326   9.711  0.0523 -0.9281 -0.1624
  164SOPE   H8S18414   1.397   4.252   9.857  1.0800  0.5495 -0.8898
  164SOPE   C2918415   1.179   4.224   9.815 -0.0813  0.0545  0.0504
  164SOPE   H9118416   1.118   4.235   9.906  0.9126  0.1313  0.7188
  164SOPE  C21018417   1.142   4.144   9.719 -0.4841  0.9380  0.2032
  164SOPE  H10118418   1.047   4.087   9.717 -0.2171  0.3221 -5.9685
  164SOPE  C21118419   1.229   4.107   9.593  0.5022  0.3969 -0.0023
  164SOPE  H11R18420   1.257   3.999   9.595 -0.1445  0.2323  0.4094
  164SOPE  H11S18421   1.325   4.163   9.594  1.6678 -1.5121 -1.1617
  164SOPE  C21218422   1.158   4.129   9.463  0.1863 -0.5449  0.2007
  164SOPE  H12R18423   1.112   4.229   9.452 -0.6182 -0.8989  0.3694
  164SOPE  H12S18424   1.083   4.047   9.460  1.4242 -1.6553 -2.6729
  164SOPE  C21318425   1.239   4.097   9.339  0.5982  0.1540  0.7459
  164SOPE  H13R18426   1.291   4.000   9.358  1.1607  0.5938  1.4831
  164SOPE  H13S18427   1.311   4.179   9.318 -0.3758  0.4905 -1.4968
  164SOPE  C21418428   1.143   4.056   9.219 -0.1769 -0.0806  0.0589
  164SOPE  H14R18429   1.101   4.145   9.168 -1.8624 -0.9703 -0.1420
  164SOPE  H14S18430   1.063   3.986   9.250 -0.4893  1.3310  2.5356
  164SOPE  C21518431   1.235   3.992   9.115  0.5650  0.2047  0.2454
  164SOPE  H15R18432   1.254   3.886   9.143 -1.1450  0.3167  1.9096
  164SOPE  H15S18433   1.336   4.036   9.123  0.8930 -0.8665  2.4234
  164SOPE  C21618434   1.173   4.011   8.978 -0.6257  0.1475 -0.0161
  164SOPE  H16R18435   1.157   4.117   8.949  0.2508  0.3038  0.0846
  164SOPE  H16S18436   1.079   3.951   8.979  0.3346 -1.4520 -1.6568
  164SOPE  C21718437   1.253   3.952   8.863  0.7017  0.0299  0.3509
  164SOPE  H17R18438   1.243   3.842   8.861 -2.1828  0.2361  0.2684
  164SOPE  H17S18439   1.362   3.972   8.867  0.6795  0.1746  0.2698
  164SOPE  C21818440   1.196   4.007   8.731 -1.0348 -0.1069 -0.0523
  164SOPE  H18R18441   1.281   4.040   8.668  1.0301 -0.3455  2.5261
  164SOPE  H18S18442   1.138   4.101   8.740 -0.4796  0.4925 -2.4189
  164SOPE  H18T18443   1.132   3.928   8.685 -0.6186  1.6023 -3.7931
  164SOPE   C3318444   0.777   4.423  10.124 -0.3826 -0.4979 -0.0804
  164SOPE   H3X18445   0.877   4.469  10.109  0.7018 -2.5909  0.5329
  164SOPE   H3Y18446   0.688   4.487  10.109 -0.1981 -0.1987  0.0909
  164SOPE   C3418447   0.774   4.298  10.033 -0.3032 -0.4139 -0.4185
  164SOPE   H4X18448   0.701   4.228  10.078 -1.2098 -0.0190 -1.2695
  164SOPE   H4Y18449   0.869   4.247  10.058 -0.2439  0.3834  1.1071
  164SOPE   C3518450   0.769   4.326   9.885  0.3120 -0.7131 -0.4819
  164SOPE   H5X18451   0.857   4.388   9.857 -0.0226  0.5218  1.0841
  164SOPE   H5Y18452   0.682   4.388   9.855 -0.7077 -1.0018  1.7835
  164SOPE   C3618453   0.780   4.206   9.791 -0.2165  0.2345 -0.2599
  164SOPE   H6X18454   0.690   4.143   9.802  1.0154 -2.3270 -4.0821
  164SOPE   H6Y18455   0.861   4.134   9.810  0.8610  1.4035 -0.3499
  164SOPE   C3718456   0.779   4.259   9.644  0.0667 -0.4188  0.4030
  164SOPE   H7X18457   0.855   4.338   9.631 -1.8070  1.6747  1.9379
  164SOPE   H7Y18458   0.682   4.314   9.643  0.0529 -0.3888  1.9553
  164SOPE   C3818459   0.780   4.140   9.551  0.4296  0.1399 -0.2819
  164SOPE   H8X18460   0.703   4.069   9.590  1.1310 -0.6443 -0.3128
  164SOPE   H8Y18461   0.875   4.082   9.555 -0.0653 -0.6971 -0.4418
  164SOPE   C3918462   0.760   4.181   9.402  0.3297 -0.8817  0.6786
  164SOPE   H9X18463   0.847   4.244   9.373 -0.4122 -1.2718 -2.6521
  164SOPE   H9Y18464   0.683   4.260   9.414  1.1822  0.1199 -0.2869
  164SOPE  C31018465   0.719   4.071   9.307  0.1239  0.0079 -0.6089
  164SOPE  H10X18466   0.613   4.049   9.334  0.5517 -0.3643  0.8632
  164SOPE  H10Y18467   0.787   3.987   9.332  0.0278  0.4655  1.2758
  164SOPE  C31118468   0.728   4.104   9.160  0.2325 -0.3100 -0.4347
  164SOPE  H11X18469   0.826   4.147   9.130  0.0632  0.9916  0.7910
  164SOPE  H11Y18470   0.656   4.187   9.139  1.4943  0.4696 -1.8189
  164SOPE  C31218471   0.682   3.992   9.068 -0.2040 -0.5353  0.5875
  164SOPE  H12X18472   0.588   3.946   9.107 -1.2924  0.2273 -1.0892
  164SOPE  H12Y18473   0.752   3.908   9.081  0.9873  0.3532  0.0120
  164SOPE  C31318474   0.675   4.040   8.920 -0.3856  0.0995  0.5663
  164SOPE  H13X18475   0.607   4.128   8.915 -0.1608  0.1804 -1.9299
  164SOPE  H13Y18476   0.649   3.958   8.849 -1.3575  2.1678 -1.5589
  164SOPE  C31418477   0.811   4.095   8.879 -0.5586 -0.4268  0.2558
  164SOPE  H14X18478   0.888   4.028   8.924  0.1978  0.4714  0.3075
  164SOPE  H14Y18479   0.829   4.196   8.922  0.4264 -0.6625  0.3943
  164SOPE  C31518480   0.856   4.099   8.736  0.1047  0.5806 -0.3359
  164SOPE  H15X18481   0.871   3.995   8.699 -2.7076 -0.6587  1.7970
  164SOPE  H15Y18482   0.943   4.167   8.726  0.5850  0.0359  0.0985
  164SOPE  C31618483   0.757   4.163   8.640 -0.5437 -0.1654  0.4869
  164SOPE  H16X18484   0.748   4.274   8.648 -0.9319 -0.4249  4.5215
  164SOPE  H16Y18485   0.662   4.113   8.665  0.2389 -2.3679 -0.8153
  164SOPE  C31718486   0.788   4.127   8.495  0.0764  0.6298  0.1860
  164SOPE  H17X18487   0.716   4.179   8.428  2.1711  1.5245 -1.4098
  164SOPE  H17Y18488   0.777   4.019   8.469  1.7385  0.4745  0.0550
  164SOPE  C31818489   0.927   4.169   8.450 -0.0206 -0.1767  0.4785
  164SOPE  H18X18490   0.944   4.134   8.345 -0.9504 -2.0564  0.9403
  164SOPE  H18Y18491   1.008   4.118   8.505 -1.9293 -1.8733  1.7640
  164SOPE  H18Z18492   0.939   4.280   8.449 -1.7055  0.0458 -2.0700
  165SOPE     N18493   5.490   5.291  10.748  0.1233  0.3749 -0.0896
  165SOPE   HN118494   5.404   5.346  10.726 -1.6616 -1.2526  2.5217
  165SOPE   HN218495   5.576   5.311  10.693 -1.1876 -1.1397 -2.8281
  165SOPE   HN318496   5.463   5.192  10.727 -0.6395  1.0779 -2.6436
  165SOPE   C1218497   5.528   5.303  10.896 -0.0543 -0.3948  0.0888
  165SOPE  H12A18498   5.431   5.290  10.948 -0.7743 -0.4359 -1.2367
  165SOPE  H12B18499   5.577   5.402  10.913  0.3587 -0.7824  1.1408
  165SOPE   C1118500   5.624   5.193  10.935  0.2447  0.0607 -0.0271
  165SOPE  H11A18501   5.573   5.099  10.907 -0.8448  0.9118 -0.9570
  165SOPE  H11B18502   5.642   5.177  11.044 -0.6446 -2.3098 -0.2225
  165SOPE     P18503   5.892   5.199  10.925 -0.0980  0.1082  0.0195
  165SOPE   O1318504   5.879   5.160  11.071 -0.1254 -0.3606 -0.4349
  165SOPE   O1418505   5.960   5.330  10.897 -0.6586  0.2279 -1.5354
  165SOPE   O1218506   5.748   5.204  10.857  0.1017  0.0544  0.0271
  165SOPE   O1118507   5.970   5.084  10.852  0.7046  0.5615 -0.0361
  165SOPE    C118508   5.959   5.075  10.708 -0.6723  0.0494  0.0449
  165SOPE    HA18509   5.862   5.107  10.665 -0.8232  0.3340  0.5937
  165SOPE    HB18510   5.971   4.968  10.681 -0.1588 -0.5795  2.5990
  165SOPE    C218511   6.074   5.146  10.634 -0.0023 -0.0213  0.7386
  165SOPE    HS18512   6.046   5.253  10.625  1.7287  0.2836 -1.7012
  165SOPE   O2118513   6.090   5.088  10.499  0.7337  0.2945 -0.1982
  165SOPE   C2118514   6.006   5.134  10.411 -0.0774 -0.0236  0.0962
  165SOPE   O2218515   5.916   5.214  10.425  0.4389  0.4980 -0.4486
  165SOPE   C2218516   6.036   5.066  10.276  0.2086 -0.1195  0.4658
  165SOPE   H2R18517   6.075   4.964  10.298  0.1425 -0.0480  0.9249
  165SOPE   H2S18518   6.120   5.128  10.238 -0.9023  0.3172 -1.3393
  165SOPE    C318519   6.202   5.132  10.716 -0.4051 -0.9458  0.0169
  165SOPE    HX18520   6.233   5.026  10.733  0.9768 -0.6786 -0.7521
  165SOPE    HY18521   6.183   5.180  10.814  2.7954 -0.0108  0.2312
  165SOPE   O3118522   6.307   5.191  10.647 -0.0691  0.4424  0.7432
  165SOPE   C3118523   6.309   5.316  10.630 -0.7252 -0.2313  0.4506
  165SOPE   O3218524   6.234   5.394  10.684  0.0162 -0.2119 -0.1830
  165SOPE   C3218525   6.421   5.351  10.525 -0.0115  0.3705  0.2372
  165SOPE   H2X18526   6.463   5.253  10.495 -1.3303  0.9578 -3.8920
  165SOPE   H2Y18527   6.508   5.410  10.562 -0.0154 -1.2447  2.9662
  165SOPE   C2318528   5.920   5.079  10.176 -0.0654  0.4758  0.9785
  165SOPE   H3R18529   5.883   5.183  10.167  2.3085  1.0904 -3.1250
  165SOPE   H3S18530   5.836   5.010  10.199 -0.7357  0.0494 -2.4005
  165SOPE   C2418531   5.964   5.022  10.042  0.5016  0.3214  0.3126
  165SOPE   H4R18532   6.054   5.066   9.994  1.0198  0.5609  1.4987
  165SOPE   H4S18533   5.976   4.912  10.041 -0.4401  0.2143 -0.7199
  165SOPE   C2518534   5.845   5.047   9.939 -0.0013  0.1829  0.5846
  165SOPE   H5R18535   5.746   5.010   9.973  0.4573 -0.2502  1.4733
  165SOPE   H5S18536   5.830   5.156   9.927 -0.3866  0.2018  1.1823
  165SOPE   C2618537   5.872   4.992   9.800 -0.0837 -0.3539 -0.2028
  165SOPE   H6R18538   5.961   5.040   9.754 -1.2320  0.9837 -1.0690
  165SOPE   H6S18539   5.900   4.885   9.805 -1.8003 -0.8313 -0.6423
  165SOPE   C2718540   5.756   4.998   9.702  0.2093  0.1749  0.4710
  165SOPE   H7R18541   5.662   4.949   9.732 -0.2981  0.9081  0.0986
  165SOPE   H7S18542   5.714   5.099   9.683  0.5971  0.2720  0.0979
  165SOPE   C2818543   5.800   4.945   9.557  0.3431 -0.2677 -0.0186
  165SOPE   H8R18544   5.850   4.846   9.563 -0.2846 -0.5097  1.3479
  165SOPE   H8S18545   5.705   4.922   9.505 -0.1920  0.7566  0.4829
  165SOPE   C2918546   5.886   5.040   9.480  0.0931 -0.3385 -0.1660
  165SOPE   H9118547   5.991   5.019   9.506  0.4861 -0.9110 -2.0974
  165SOPE  C21018548   5.854   5.133   9.388  0.3983  0.3514  0.1406
  165SOPE  H10118549   5.937   5.186   9.338  0.4354  1.2866  1.1936
  165SOPE  C21118550   5.715   5.167   9.339 -0.4844  0.1457 -0.0636
  165SOPE  H11R18551   5.668   5.260   9.377 -1.9657 -0.8324  0.5150
  165SOPE  H11S18552   5.643   5.086   9.366 -1.4078  1.1673  0.5836
  165SOPE  C21218553   5.731   5.171   9.183 -0.4383 -0.1841  0.3009
  165SOPE  H12R18554   5.789   5.087   9.138 -0.3383 -0.4904  0.9813
  165SOPE  H12S18555   5.782   5.266   9.157 -1.0265 -0.0028 -0.1869
  165SOPE  C21318556   5.606   5.172   9.101  0.4127  0.5721  0.2127
  165SOPE  H13R18557   5.533   5.249   9.133  1.5137  1.1120  1.4792
  165SOPE  H13S18558   5.547   5.077   9.102 -1.0116  1.4433  2.1425
  165SOPE  C21418559   5.630   5.198   8.948  0.0138 -0.0232 -0.3886
  165SOPE  H14R18560   5.688   5.115   8.902 -1.7128  0.4026 -3.4761
  165SOPE  H14S18561   5.699   5.282   8.926  0.3043 -0.5279 -1.4305
  165SOPE  C21518562   5.509   5.213   8.854 -0.4135 -0.0945  0.7154
  165SOPE  H15R18563   5.457   5.305   8.889  1.0771  1.1408 -0.2109
  165SOPE  H15S18564   5.437   5.129   8.866 -0.7542  0.1889  0.6686
  165SOPE  C21618565   5.551   5.215   8.709 -0.1475 -0.2352  0.6185
  165SOPE  H16R18566   5.606   5.122   8.683  0.1486 -0.0978  0.7453
  165SOPE  H16S18567   5.621   5.301   8.698 -1.9302  1.1379 -0.1921
  165SOPE  C21718568   5.441   5.232   8.601 -0.3908 -0.2523 -0.6458
  165SOPE  H17R18569   5.480   5.239   8.498  1.2794  1.4160  0.0614
  165SOPE  H17S18570   5.384   5.326   8.611 -1.1905 -0.6924 -1.0452
  165SOPE  C21818571   5.328   5.124   8.618 -0.5214 -0.1703  0.1634
  165SOPE  H18R18572   5.282   5.117   8.719 -1.0998  1.0178 -0.0068
  165SOPE  H18S18573   5.354   5.023   8.581  0.4988 -0.6315  2.0840
  165SOPE  H18T18574   5.247   5.164   8.553  0.9113  0.7800 -1.0624
  165SOPE   C3318575   6.359   5.445  10.426  0.2241  0.0856  0.3213
  165SOPE   H3X18576   6.445   5.466  10.359 -0.5199 -2.8955 -1.6399
  165SOPE   H3Y18577   6.307   5.539  10.455  0.9790 -0.1645  2.5719
  165SOPE   C3418578   6.271   5.366  10.332  0.0231 -0.9961  0.1754
  165SOPE   H4X18579   6.167   5.352  10.367 -0.3355 -0.4093 -0.6353
  165SOPE   H4Y18580   6.321   5.268  10.321 -0.5486 -1.2609 -0.0620
  165SOPE   C3518581   6.269   5.430  10.193 -0.4821 -0.0996  0.2001
  165SOPE   H5X18582   6.372   5.458  10.163  0.0348  0.1079  2.1175
  165SOPE   H5Y18583   6.206   5.521  10.184  0.4195  0.5627  0.4361
  165SOPE   C3618584   6.205   5.340  10.091  0.6727 -0.4385  0.0706
  165SOPE   H6X18585   6.100   5.314  10.115  0.4657  0.6683  0.4006
  165SOPE   H6Y18586   6.256   5.242  10.078 -1.6144 -1.4680 -1.3659
  165SOPE   C3718587   6.192   5.406   9.941  0.8751  0.0535  0.3118
  165SOPE   H7X18588   6.295   5.396   9.902  0.4925 -0.7780 -0.4922
  165SOPE   H7Y18589   6.168   5.512   9.963 -0.0119 -0.1494  0.3458
  165SOPE   C3818590   6.087   5.329   9.852  0.0608  0.8708 -0.3844
  165SOPE   H8X18591   5.981   5.341   9.886 -0.2154  0.4887 -1.1148
  165SOPE   H8Y18592   6.116   5.223   9.840  0.2447  0.7610  0.8909
  165SOPE   C3918593   6.086   5.375   9.708  0.2613  0.7508 -0.0885
  165SOPE   H9X18594   6.042   5.477   9.708 -1.0731  0.1883 -1.1509
  165SOPE   H9Y18595   6.007   5.309   9.665  1.0191 -0.3736  0.2052
  165SOPE  C31018596   6.221   5.351   9.637 -0.2938  0.2131 -0.5760
  165SOPE  H10X18597   6.263   5.262   9.688 -3.2287 -1.0955 -0.3117
  165SOPE  H10Y18598   6.290   5.438   9.636 -1.1829  0.9457  0.2099
  165SOPE  C31118599   6.209   5.303   9.489 -0.5998  0.0715  0.1810
  165SOPE  H11X18600   6.127   5.231   9.469 -0.4165 -0.0246 -0.2245
  165SOPE  H11Y18601   6.309   5.259   9.470  0.8124  2.5882  1.4810
  165SOPE  C31218602   6.192   5.416   9.393  0.2976 -0.0328  0.2492
  165SOPE  H12X18603   6.289   5.470   9.384  0.9061 -1.1927 -0.2414
  165SOPE  H12Y18604   6.108   5.479   9.429 -1.2012 -1.9386  0.1529
  165SOPE  C31318605   6.159   5.378   9.244 -0.4283 -0.2360  0.7792
  165SOPE  H13X18606   6.069   5.312   9.241  0.3884 -1.3499  0.8574
  165SOPE  H13Y18607   6.245   5.336   9.188 -0.4119  1.6965 -0.7388
  165SOPE  C31418608   6.108   5.495   9.163 -0.1170  0.3979  0.0974
  165SOPE  H14X18609   6.199   5.559   9.160 -0.8236  1.4213  0.3801
  165SOPE  H14Y18610   6.028   5.542   9.225 -0.5378  0.4764 -0.4986
  165SOPE  C31518611   6.067   5.453   9.022  0.2020 -0.1740  0.1318
  165SOPE  H15X18612   5.974   5.392   9.024 -0.3664  0.6892 -0.0321
  165SOPE  H15Y18613   6.148   5.402   8.966  0.2191 -2.1668  1.9202
  165SOPE  C31618614   6.040   5.583   8.938  0.2749 -0.0854  0.6354
  165SOPE  H16X18615   6.126   5.652   8.946  0.4461 -0.2626  0.3287
  165SOPE  H16Y18616   5.949   5.628   8.983  1.9310  3.4447  0.5541
  165SOPE  C31718617   6.009   5.546   8.791  0.4310  0.9083  0.7699
  165SOPE  H17X18618   6.099   5.496   8.750  0.8704  1.8438  0.5834
  165SOPE  H17Y18619   5.977   5.640   8.741 -1.1969  0.0750  0.2053
  165SOPE  C31818620   5.889   5.451   8.781 -0.4441 -0.3926 -0.3291
  165SOPE  H18X18621   5.859   5.451   8.674 -0.1688  0.2988 -0.4131
  165SOPE  H18Y18622   5.810   5.493   8.847  1.2154  2.9379 -0.3445
  165SOPE  H18Z18623   5.931   5.351   8.804 -2.3145 -0.5705  2.5622
  166SOPE     N18624   2.475   5.414  10.939 -0.1695  0.2771  0.3260
  166SOPE   HN118625   2.395   5.351  10.959 -0.0043  0.1005  0.4378
  166SOPE   HN218626   2.531   5.370  10.862  1.2288  1.7680  0.4694
  166SOPE   HN318627   2.533   5.413  11.025  0.0575  2.2881  0.2273
  166SOPE   C1218628   2.423   5.547  10.905 -0.2106 -0.6747 -0.2491
  166SOPE  H12A18629   2.427   5.573  10.797 -0.0660 -1.4936 -0.4400
  166SOPE  H12B18630   2.485   5.623  10.958  2.4506  0.4218 -4.7400
  166SOPE   C1118631   2.277   5.554  10.943  0.5236 -0.3091 -0.2009
  166SOPE  H11A18632   2.234   5.653  10.915  2.5093  0.5253 -0.3396
  166SOPE  H11B18633   2.266   5.553  11.054  2.3727  0.0527  0.0025
  166SOPE     P18634   2.056   5.419  10.880 -0.0390 -0.0729 -0.4728
  166SOPE   O1318635   1.989   5.518  10.965 -0.1163  0.3404 -0.5031
  166SOPE   O1418636   2.048   5.269  10.911 -0.2533 -0.1835 -0.0466
  166SOPE   O1218637   2.213   5.440  10.880 -0.1632 -0.1339 -0.5508
  166SOPE   O1118638   2.008   5.442  10.732  0.0777  0.3329  0.2934
  166SOPE    C118639   2.034   5.551  10.644 -0.0614  0.2114 -0.1233
  166SOPE    HA18640   2.049   5.644  10.704  1.7568  0.8802 -1.5705
  166SOPE    HB18641   1.952   5.563  10.570  2.2746  0.2193 -2.7545
  166SOPE    C218642   2.174   5.531  10.564 -0.7029 -0.6008  0.4646
  166SOPE    HS18643   2.250   5.510  10.643 -0.4419 -1.1727  0.0631
  166SOPE   O2118644   2.217   5.655  10.507 -0.9583 -0.5838 -0.6366
  166SOPE   C2118645   2.344   5.663  10.467 -0.1985 -0.7757  0.1896
  166SOPE   O2218646   2.423   5.574  10.474 -0.7240  0.2433  0.1496
  166SOPE   C2218647   2.372   5.808  10.437  0.0373  0.2981 -0.6976
  166SOPE   H2R18648   2.476   5.826  10.400 -0.0319  0.1320 -0.9761
  166SOPE   H2S18649   2.349   5.868  10.527 -0.9081  1.2538 -1.5602
  166SOPE    C318650   2.162   5.412  10.463 -0.1820 -0.2951 -0.3782
  166SOPE    HX18651   2.120   5.323  10.514 -0.5340 -0.6832 -1.3340
  166SOPE    HY18652   2.266   5.385  10.434 -0.9880 -0.2737 -3.4394
  166SOPE   O3118653   2.081   5.453  10.351  0.2427 -0.1887 -0.2880
  166SOPE   C3118654   2.136   5.461  10.233 -0.3622 -0.0920  0.0593
  166SOPE   O3218655   2.251   5.431  10.205  0.0636 -0.1214  0.0931
  166SOPE   C3218656   2.024   5.510  10.139  0.3269  0.6251  0.0996
  166SOPE   H2X18657   1.989   5.611  10.170  1.0377  0.9598 -0.1890
  166SOPE   H2Y18658   1.940   5.438  10.145  1.4911 -0.6898  0.8419
  166SOPE   C2318659   2.287   5.847  10.311 -0.5725 -0.2752 -0.7527
  166SOPE   H3R18660   2.291   5.958  10.313 -2.1677 -0.2079 -0.2502
  166SOPE   H3S18661   2.184   5.808  10.325 -0.9586  1.1752  0.7346
  166SOPE   C2418662   2.333   5.816  10.167 -0.8209 -0.2945  0.0910
  166SOPE   H4R18663   2.438   5.852  10.155  0.5660 -3.2596  2.5037
  166SOPE   H4S18664   2.346   5.707  10.155 -1.4811 -0.5079  1.1847
  166SOPE   C2518665   2.239   5.884  10.071 -0.0680  0.8297  0.8378
  166SOPE   H5R18666   2.133   5.856  10.088  0.2356 -1.5897 -1.0266
  166SOPE   H5S18667   2.261   5.992  10.079 -1.0126  1.0773  0.2441
  166SOPE   C2618668   2.260   5.858   9.921  0.2939  0.7473  0.4845
  166SOPE   H6R18669   2.368   5.868   9.897  0.1731 -0.0590 -0.4343
  166SOPE   H6S18670   2.233   5.753   9.899 -3.4134  1.4568  1.2219
  166SOPE   C2718671   2.181   5.952   9.835  0.0178  0.1306 -0.5761
  166SOPE   H7R18672   2.072   5.931   9.831 -0.3185  1.4831  0.8981
  166SOPE   H7S18673   2.192   6.059   9.864 -0.4261  0.0132  0.0447
  166SOPE   C2818674   2.232   5.950   9.686  0.2995  0.8426 -0.5397
  166SOPE   H8R18675   2.179   6.033   9.635 -1.2288  0.7214  0.8244
  166SOPE   H8S18676   2.338   5.981   9.688  0.8141 -0.7797 -1.4601
  166SOPE   C2918677   2.237   5.819   9.617  0.5848  0.5235 -1.1902
  166SOPE   H9118678   2.301   5.742   9.663  0.3905 -1.0575 -3.4781
  166SOPE  C21018679   2.167   5.792   9.503 -0.5520 -0.4923  0.6759
  166SOPE  H10118680   2.171   5.691   9.460  2.4660  0.2583 -0.9073
  166SOPE  C21118681   2.067   5.887   9.435  0.2689 -0.5004  1.2431
  166SOPE  H11R18682   2.048   5.973   9.503 -2.7516 -2.2252  2.6511
  166SOPE  H11S18683   1.965   5.845   9.432  0.1881 -0.1988 -1.2471
  166SOPE  C21218684   2.115   5.943   9.304  0.2072  0.5095 -0.4008
  166SOPE  H12R18685   2.213   5.993   9.320  1.1348 -1.1520 -0.7111
  166SOPE  H12S18686   2.040   6.021   9.281 -0.8244 -0.5911 -0.8560
  166SOPE  C21318687   2.125   5.845   9.184  0.0255 -0.2496  0.6064
  166SOPE  H13R18688   2.026   5.796   9.182  0.2959 -0.8497  1.5606
  166SOPE  H13S18689   2.194   5.762   9.209  0.9558  1.0207  2.4268
  166SOPE  C21418690   2.140   5.916   9.052 -0.1806  0.3888  0.1273
  166SOPE  H14R18691   2.233   5.976   9.050  0.0088  0.1822  2.1011
  166SOPE  H14S18692   2.064   5.997   9.061  0.1682  0.5546  1.5619
  166SOPE  C21518693   2.119   5.834   8.918 -0.7342  0.4914 -0.5858
  166SOPE  H15R18694   2.103   5.730   8.954 -0.3435  0.6735  0.1297
  166SOPE  H15S18695   2.208   5.832   8.852 -0.6755  0.4543 -0.5070
  166SOPE  C21618696   2.004   5.890   8.833  0.1735 -0.0617  0.4571
  166SOPE  H16R18697   2.032   5.990   8.795  1.3951 -0.9322 -0.9897
  166SOPE  H16S18698   1.915   5.898   8.899 -0.5544  0.2873 -0.5571
  166SOPE  C21718699   1.969   5.791   8.720 -0.4451  0.1922 -1.0837
  166SOPE  H17R18700   1.931   5.697   8.766  2.3423 -0.7641 -0.6323
  166SOPE  H17S18701   2.072   5.771   8.681  0.2825  1.3002  0.2123
  166SOPE  C21818702   1.888   5.851   8.610 -0.2748 -0.3744  0.2393
  166SOPE  H18R18703   1.859   5.778   8.531  0.7960 -1.3762  0.7610
  166SOPE  H18S18704   1.936   5.939   8.562  1.1899 -1.9179 -1.1783
  166SOPE  H18T18705   1.788   5.885   8.645 -0.8156 -2.5095  0.8308
  166SOPE   C3318706   2.077   5.514   9.992 -0.1089  0.0218 -0.0390
  166SOPE   H3X18707   2.108   5.409   9.971 -0.8187  0.4843 -3.7352
  166SOPE   H3Y18708   2.168   5.578   9.990  1.1172 -1.7196 -2.3106
  166SOPE   C3418709   1.976   5.558   9.894  0.0708 -0.0192  1.3115
  166SOPE   H4X18710   1.953   5.666   9.896  0.5155  0.1674 -1.3919
  166SOPE   H4Y18711   1.877   5.511   9.913  0.9333 -1.2182  2.9579
  166SOPE   C3518712   2.013   5.530   9.748  0.1769 -0.5509  0.7884
  166SOPE   H5X18713   2.034   5.420   9.743  1.3371 -0.4208  2.4047
  166SOPE   H5Y18714   2.107   5.581   9.718 -0.6537  0.1612 -0.6254
  166SOPE   C3618715   1.906   5.574   9.648  0.4878  0.2734  0.1038
  166SOPE   H6X18716   1.913   5.684   9.630 -0.4759 -0.0488 -2.5275
  166SOPE   H6Y18717   1.809   5.541   9.689  0.9250 -1.4936 -0.2367
  166SOPE   C3718718   1.923   5.507   9.512 -0.4878  0.0174 -0.4539
  166SOPE   H7X18719   1.921   5.396   9.507 -0.7271 -0.0195  0.3302
  166SOPE   H7Y18720   2.029   5.531   9.488  0.4211 -3.0258  0.3834
  166SOPE   C3818721   1.839   5.562   9.397  0.0538 -0.0331  0.0371
  166SOPE   H8X18722   1.852   5.672   9.407  0.7602 -0.1081 -0.0586
  166SOPE   H8Y18723   1.735   5.532   9.426  0.0704 -0.6738 -0.5582
  166SOPE   C3918724   1.880   5.525   9.255 -0.1748 -0.2137 -0.2928
  166SOPE   H9X18725   1.864   5.415   9.248 -2.7449  0.0836  0.1635
  166SOPE   H9Y18726   1.986   5.552   9.242 -0.5585  2.2752  1.4806
  166SOPE  C31018727   1.805   5.605   9.149  0.0104  0.6611  0.2577
  166SOPE  H10X18728   1.862   5.582   9.056  1.9289 -1.0100  1.8097
  166SOPE  H10Y18729   1.813   5.709   9.187 -0.2103  1.0470 -0.7417
  166SOPE  C31118730   1.666   5.558   9.122  0.8676 -0.7902  0.1774
  166SOPE  H11X18731   1.608   5.569   9.216  3.4589  1.0924  1.6262
  166SOPE  H11Y18732   1.664   5.450   9.095  0.8367 -1.2925  2.1181
  166SOPE  C31218733   1.591   5.640   9.013 -0.3966  0.5817 -1.1187
  166SOPE  H12X18734   1.651   5.733   9.006 -0.4976  0.7183 -0.2552
  166SOPE  H12Y18735   1.488   5.670   9.041  0.0119 -0.1206  1.2900
  166SOPE  C31318736   1.587   5.565   8.880 -0.0031 -0.4725  0.4428
  166SOPE  H13X18737   1.540   5.464   8.888  1.4560 -1.2757 -0.7425
  166SOPE  H13Y18738   1.684   5.563   8.825 -0.5327  2.4198 -0.6563
  166SOPE  C31418739   1.510   5.648   8.774 -0.1513 -0.1731  0.3911
  166SOPE  H14X18740   1.555   5.747   8.796 -0.2560 -0.3833  1.5887
  166SOPE  H14Y18741   1.403   5.676   8.784 -0.4564 -1.3616  0.5192
  166SOPE  C31518742   1.531   5.603   8.626 -0.0235 -0.1702  0.1811
  166SOPE  H15X18743   1.459   5.519   8.609 -0.0861 -0.1944  0.5636
  166SOPE  H15Y18744   1.637   5.571   8.614  0.0121 -0.4410  1.1437
  166SOPE  C31618745   1.495   5.715   8.532 -0.3505  0.0196  0.0429
  166SOPE  H16X18746   1.574   5.792   8.543  1.6041 -1.6948 -1.5182
  166SOPE  H16Y18747   1.411   5.768   8.583 -0.6211  0.5323 -0.9262
  166SOPE  C31718748   1.467   5.674   8.386 -0.1876  0.1588 -0.4978
  166SOPE  H17X18749   1.425   5.764   8.337 -0.7648 -0.0338 -0.3560
  166SOPE  H17Y18750   1.395   5.590   8.385 -1.3723  1.1657 -0.7656
  166SOPE  C31818751   1.595   5.636   8.311 -1.2422  0.4171  0.2139
  166SOPE  H18X18752   1.652   5.732   8.307  0.9028 -0.8116  0.3549
  166SOPE  H18Y18753   1.569   5.600   8.209  0.1730  1.5049 -0.5653
  166SOPE  H18Z18754   1.663   5.556   8.348  0.4999  0.1712 -3.2874
  167SOPE     N18755   3.394   3.424   6.218  0.1366 -0.6210 -0.4754
  167SOPE   HN118756   3.471   3.354   6.226  0.2228 -0.6097 -1.2078
  167SOPE   HN218757   3.311   3.364   6.198 -0.5031  0.6457 -1.6448
  167SOPE   HN318758   3.411   3.479   6.132  2.2365 -1.8340 -0.8874
  167SOPE   C1218759   3.379   3.519   6.338 -0.1407 -0.8540 -0.6492
  167SOPE  H12A18760   3.479   3.542   6.379 -1.4527  1.7173  1.2502
  167SOPE  H12B18761   3.328   3.464   6.420 -1.6969  1.9480  0.3471
  167SOPE   C1118762   3.294   3.648   6.308 -0.8721  0.1976  0.0608
  167SOPE  H11A18763   3.275   3.700   6.404  0.6792  1.1046 -0.0972
  167SOPE  H11B18764   3.194   3.608   6.279 -0.5688 -1.1167  0.7984
  167SOPE     P18765   3.287   3.865   6.160 -0.3259 -0.3426  0.0330
  167SOPE   O1318766   3.143   3.868   6.186  0.1106 -0.3721 -0.2825
  167SOPE   O1418767   3.336   3.895   6.026 -0.6284 -0.5309  0.9136
  167SOPE   O1218768   3.354   3.726   6.204  0.7532  0.4966 -0.3603
  167SOPE   O1118769   3.360   3.964   6.263 -0.0746  0.3437  0.3539
  167SOPE    C118770   3.502   3.983   6.256  0.7783  0.7301  0.2686
  167SOPE    HA18771   3.530   4.089   6.275  1.6478 -0.1036  3.9756
  167SOPE    HB18772   3.537   3.953   6.154  2.2141  0.4307  0.8425
  167SOPE    C218773   3.585   3.897   6.355 -0.0425 -0.5098  0.0071
  167SOPE    HS18774   3.564   3.790   6.334  2.0671 -0.8501 -0.5185
  167SOPE   O2118775   3.550   3.944   6.482 -0.4363  0.3635 -0.0515
  167SOPE   C2118776   3.545   3.850   6.585  0.1370  0.0474 -0.0109
  167SOPE   O2218777   3.564   3.733   6.574 -0.4831  0.0552  0.3704
  167SOPE   C2218778   3.494   3.920   6.714  0.2599 -0.1104 -0.0078
  167SOPE   H2R18779   3.386   3.946   6.710  0.4929  0.6123 -2.2292
  167SOPE   H2S18780   3.555   4.011   6.730 -1.4054  1.8652 -4.2694
  167SOPE    C318781   3.736   3.912   6.340 -0.5858 -0.5010  0.1504
  167SOPE    HX18782   3.749   4.022   6.346  1.8203 -0.7980  0.9596
  167SOPE    HY18783   3.766   3.879   6.239  1.4798  3.0271 -0.4848
  167SOPE   O3118784   3.807   3.855   6.447 -0.7833 -0.1691 -0.1057
  167SOPE   C3118785   3.851   3.734   6.436 -0.1722 -0.6424 -0.1560
  167SOPE   O3218786   3.818   3.655   6.347 -0.5913 -0.1962  0.5817
  167SOPE   C3218787   3.924   3.697   6.566  0.1035  0.1397  0.1102
  167SOPE   H2X18788   3.844   3.692   6.643 -0.4235 -0.3989 -0.4765
  167SOPE   H2Y18789   3.986   3.787   6.590  0.5035 -0.3476  0.9217
  167SOPE   C2318790   3.514   3.821   6.834  0.4582 -0.3708  0.1782
  167SOPE   H3R18791   3.620   3.787   6.829  1.7988  3.3878  0.8030
  167SOPE   H3S18792   3.450   3.731   6.823  1.1465 -0.5736 -2.6417
  167SOPE   C2418793   3.502   3.898   6.960  0.0726  0.3613 -0.2373
  167SOPE   H4R18794   3.570   3.985   6.947  0.7205 -0.4384 -2.5656
  167SOPE   H4S18795   3.399   3.936   6.972 -0.9691 -2.0619 -1.0421
  167SOPE   C2518796   3.539   3.815   7.088 -0.6091 -0.3626 -1.0070
  167SOPE   H5R18797   3.514   3.707   7.080 -0.1252 -0.5051 -0.6269
  167SOPE   H5S18798   3.648   3.804   7.110 -0.7613 -1.9244 -1.0335
  167SOPE   C2618799   3.478   3.872   7.217  0.5550 -0.1303  0.1160
  167SOPE   H6R18800   3.543   3.960   7.235 -0.2262  0.5855 -0.5315
  167SOPE   H6S18801   3.380   3.904   7.175  1.1682  2.1657  0.3746
  167SOPE   C2718802   3.469   3.775   7.334  0.4461  0.3286  0.1518
  167SOPE   H7R18803   3.407   3.686   7.311  1.2110  0.0539 -0.8714
  167SOPE   H7S18804   3.571   3.736   7.355  1.5565  2.8189 -0.4025
  167SOPE   C2818805   3.417   3.840   7.464  0.3183 -0.1937  0.2498
  167SOPE   H8R18806   3.313   3.878   7.456  0.3931 -0.0761 -0.1648
  167SOPE   H8S18807   3.420   3.763   7.544  2.2652 -0.8598 -0.4289
  167SOPE   C2918808   3.503   3.958   7.506  0.0075 -0.3153 -0.1472
  167SOPE   H9118809   3.467   4.053   7.463 -1.1372  0.3300  2.1708
  167SOPE  C21018810   3.593   3.947   7.600  0.6223 -0.6730  0.5567
  167SOPE  H10118811   3.655   4.037   7.617  0.8300 -0.2315 -2.2405
  167SOPE  C21118812   3.643   3.822   7.663  0.1414  0.1710 -0.5092
  167SOPE  H11R18813   3.754   3.829   7.663  0.0741  1.5647 -1.8526
  167SOPE  H11S18814   3.615   3.736   7.600  2.4949 -0.0704 -1.2585
  167SOPE  C21218815   3.581   3.777   7.801  0.0276 -0.3341 -0.1732
  167SOPE  H12R18816   3.620   3.676   7.826  0.0884 -0.1423  0.5132
  167SOPE  H12S18817   3.472   3.761   7.789  0.0319  0.5408 -1.4920
  167SOPE  C21318818   3.620   3.866   7.922 -0.0397 -0.5860 -0.7229
  167SOPE  H13R18819   3.567   3.962   7.906  1.4222  0.4154  0.3319
  167SOPE  H13S18820   3.729   3.888   7.917  0.3781 -1.2611  3.4246
  167SOPE  C21418821   3.583   3.808   8.058  1.0581 -0.4119  0.6644
  167SOPE  H14R18822   3.619   3.703   8.062 -1.0136 -1.1937 -0.3818
  167SOPE  H14S18823   3.472   3.809   8.060  0.9030  1.1217 -3.6778
  167SOPE  C21518824   3.632   3.884   8.180 -0.2258 -0.0832 -0.2926
  167SOPE  H15R18825   3.571   3.876   8.272  0.7849 -0.2601  0.3717
  167SOPE  H15S18826   3.620   3.990   8.147 -0.0616  0.2513  0.7122
  167SOPE  C21618827   3.782   3.872   8.213 -0.8341  0.1853 -0.6182
  167SOPE  H16R18828   3.834   3.934   8.136 -0.1935 -1.9234 -1.9075
  167SOPE  H16S18829   3.828   3.772   8.202  1.2342  1.4663 -5.2969
  167SOPE  C21718830   3.812   3.937   8.346 -0.2049  0.6213 -0.0879
  167SOPE  H17R18831   3.794   4.047   8.345  1.2802  0.8774 -0.4545
  167SOPE  H17S18832   3.922   3.928   8.361 -0.3242 -2.3781 -0.7403
  167SOPE  C21818833   3.749   3.888   8.476  0.0761 -0.2277  0.3205
  167SOPE  H18R18834   3.728   3.779   8.472  1.6646 -0.5976  1.7382
  167SOPE  H18S18835   3.656   3.949   8.489  1.4063  2.1319 -0.9539
  167SOPE  H18T18836   3.812   3.912   8.564 -1.2878  1.4520  0.8872
  167SOPE   C3318837   4.007   3.572   6.566  1.2947 -0.0113  0.2529
  167SOPE   H3X18838   4.078   3.566   6.481 -0.6061 -0.2890 -1.3593
  167SOPE   H3Y18839   3.947   3.478   6.558  0.9271  0.0641  1.9152
  167SOPE   C3418840   4.084   3.550   6.697 -0.4465  0.0877  0.4859
  167SOPE   H4X18841   4.077   3.442   6.718  0.0385 -0.4772 -2.0402
  167SOPE   H4Y18842   4.042   3.614   6.777 -2.5046  0.4829 -0.8641
  167SOPE   C3518843   4.230   3.586   6.678  1.0258  0.5306 -0.1047
  167SOPE   H5X18844   4.235   3.696   6.658 -0.2267  0.4325 -1.0309
  167SOPE   H5Y18845   4.265   3.539   6.584  0.3930  0.4923 -0.3225
  167SOPE   C3618846   4.312   3.546   6.799  0.2237 -0.2157  0.5373
  167SOPE   H6X18847   4.421   3.548   6.779  0.0800  0.4449 -0.1837
  167SOPE   H6Y18848   4.295   3.439   6.823  0.0311  0.0575  1.6657
  167SOPE   C3718849   4.279   3.616   6.927  0.4964  1.0733  0.0194
  167SOPE   H7X18850   4.168   3.611   6.929  0.5643 -0.9666 -0.7653
  167SOPE   H7Y18851   4.323   3.718   6.927 -0.0139  1.3085  2.0677
  167SOPE   C3818852   4.331   3.553   7.054  0.3552 -0.0496 -0.0002
  167SOPE   H8X18853   4.303   3.446   7.054  1.0747 -0.2354  0.4392
  167SOPE   H8Y18854   4.308   3.610   7.147  0.1255 -0.8431  0.4260
  167SOPE   C3918855   4.482   3.542   7.060 -0.1118  0.3588 -0.2049
  167SOPE   H9X18856   4.521   3.643   7.084 -4.0271  1.8242  0.3293
  167SOPE   H9Y18857   4.519   3.508   6.961 -1.3666 -0.1847 -0.5023
  167SOPE  C31018858   4.545   3.447   7.164 -0.0012 -0.5039 -0.1092
  167SOPE  H10X18859   4.655   3.450   7.149 -0.1793 -0.1531 -1.3732
  167SOPE  H10Y18860   4.505   3.346   7.140 -2.1660  0.7761 -2.0641
  167SOPE  C31118861   4.512   3.489   7.308 -0.3862 -0.1741  0.0722
  167SOPE  H11X18862   4.407   3.459   7.329  0.2106 -0.5287  2.7408
  167SOPE  H11Y18863   4.514   3.599   7.327  0.4822 -0.3529  1.0519
  167SOPE  C31218864   4.605   3.424   7.403  0.0491 -0.3662 -0.3963
  167SOPE  H12X18865   4.704   3.473   7.393  0.1101 -0.6765 -1.3082
  167SOPE  H12Y18866   4.612   3.315   7.383 -0.4230 -0.3490 -0.6572
  167SOPE  C31318867   4.554   3.445   7.548 -0.0085 -0.4655  0.1864
  167SOPE  H13X18868   4.618   3.371   7.602 -0.0469  0.5997  1.7432
  167SOPE  H13Y18869   4.452   3.403   7.560  0.5964 -2.0898 -0.2677
  167SOPE  C31418870   4.572   3.590   7.601  0.0555  0.6105 -0.0482
  167SOPE  H14X18871   4.537   3.667   7.529  0.6086  2.0402  1.1805
  167SOPE  H14Y18872   4.681   3.605   7.613  0.3212 -2.0492  1.2200
  167SOPE  C31518873   4.503   3.595   7.739  0.3407  0.0131  0.7020
  167SOPE  H15X18874   4.544   3.512   7.801  0.3103 -0.8935 -0.4716
  167SOPE  H15Y18875   4.394   3.582   7.724  0.3806  1.3837 -0.9416
  167SOPE  C31618876   4.531   3.721   7.818  0.3629  0.2729 -0.4982
  167SOPE  H16X18877   4.481   3.801   7.760 -1.0531 -0.6046 -0.4916
  167SOPE  H16Y18878   4.639   3.750   7.815  0.2165  0.9981  1.0590
  167SOPE  C31718879   4.484   3.720   7.961  0.2401 -0.2293  0.2674
  167SOPE  H17X18880   4.505   3.622   8.010 -0.9211  0.9016  3.1273
  167SOPE  H17Y18881   4.374   3.715   7.972  0.2085  0.6331  0.3650
  167SOPE  C31818882   4.544   3.829   8.044 -0.4183  0.4176 -0.4532
  167SOPE  H18X18883   4.550   3.936   8.013 -0.5884 -0.0265 -2.0788
  167SOPE  H18Y18884   4.644   3.789   8.071 -2.3809 -4.2568  0.4116
  167SOPE  H18Z18885   4.495   3.841   8.143 -0.6564  1.2023 -0.6604
  168SOPE     N18886   3.560   1.506   6.479  0.0922 -0.2864 -0.2197
  168SOPE   HN118887   3.521   1.440   6.409  0.9947  0.1733 -1.1708
  168SOPE   HN218888   3.486   1.563   6.524  0.5076  1.1719 -1.3324
  168SOPE   HN318889   3.622   1.572   6.428  0.3192  1.7429  2.5333
  168SOPE   C1218890   3.643   1.419   6.573 -0.3838 -0.1144  1.0212
  168SOPE  H12A18891   3.672   1.481   6.661  1.4800 -1.1229  1.1460
  168SOPE  H12B18892   3.743   1.398   6.528 -1.4128 -1.8127 -0.5204
  168SOPE   C1118893   3.566   1.288   6.613 -0.1659 -0.3877  0.5037
  168SOPE  H11A18894   3.464   1.314   6.650 -0.4553 -0.4368 -0.2414
  168SOPE  H11B18895   3.627   1.241   6.693 -1.0376  0.6074  1.7795
  168SOPE     P18896   3.436   1.178   6.412 -0.7206 -0.0536 -0.8497
  168SOPE   O1318897   3.474   1.086   6.308  0.5978 -0.1070  0.2512
  168SOPE   O1418898   3.399   1.308   6.352  0.1762 -0.5908  0.3221
  168SOPE   O1218899   3.559   1.201   6.499 -0.6848  0.1079  0.1333
  168SOPE   O1118900   3.324   1.116   6.506 -0.2666 -0.1984 -0.3196
  168SOPE    C118901   3.185   1.136   6.470 -0.1212 -0.1502  0.0500
  168SOPE    HA18902   3.158   1.064   6.390  0.6534 -1.4257  0.8967
  168SOPE    HB18903   3.164   1.235   6.424 -3.5467 -0.1057  1.5544
  168SOPE    C218904   3.087   1.118   6.591  0.0986 -0.8163 -0.5587
  168SOPE    HS18905   3.119   1.203   6.655 -2.7444 -0.0854 -0.0721
  168SOPE   O2118906   3.123   0.993   6.641 -0.3658  0.3515  0.0363
  168SOPE   C2118907   3.135   0.975   6.772 -0.3850 -0.0145 -0.5075
  168SOPE   O2218908   3.139   1.067   6.852 -0.6096 -0.2952  0.3208
  168SOPE   C2218909   3.147   0.821   6.804  0.1870 -0.3013 -0.3746
  168SOPE   H2R18910   3.224   0.772   6.741  1.8398 -2.1334  2.9756
  168SOPE   H2S18911   3.047   0.774   6.787  0.1445  0.1002 -1.2831
  168SOPE    C318912   2.934   1.123   6.548 -0.2758  0.2869  0.6277
  168SOPE    HX18913   2.918   1.032   6.487 -0.0116 -0.7396  2.0640
  168SOPE    HY18914   2.910   1.212   6.486 -2.9960 -0.2713  0.7963
  168SOPE   O3118915   2.847   1.117   6.662  0.6369  0.1276 -0.4312
  168SOPE   C3118916   2.827   1.231   6.722  0.6778  0.4270 -0.5046
  168SOPE   O3218917   2.875   1.337   6.684 -0.0626  0.6951  0.2876
  168SOPE   C3218918   2.754   1.204   6.853  0.8734 -0.2855 -0.1350
  168SOPE   H2X18919   2.811   1.125   6.905  0.3679 -0.7954 -0.3511
  168SOPE   H2Y18920   2.655   1.163   6.822  1.1402 -0.0510 -1.3294
  168SOPE   C2318921   3.180   0.774   6.951  0.4827  0.0022 -0.3566
  168SOPE   H3R18922   3.094   0.817   7.006  2.0505 -2.1538  4.0332
  168SOPE   H3S18923   3.269   0.819   7.001  1.0523  1.0434 -2.2533
  168SOPE   C2418924   3.175   0.623   6.974 -0.2071  0.5363  0.2229
  168SOPE   H4R18925   3.098   0.579   6.907 -2.2098  0.3548  2.5676
  168SOPE   H4S18926   3.273   0.577   6.950 -1.0921 -2.8315  2.6715
  168SOPE   C2518927   3.137   0.575   7.115 -0.5626  0.6697  0.8288
  168SOPE   H5R18928   3.026   0.585   7.118 -0.6286  0.3844 -0.3435
  168SOPE   H5S18929   3.169   0.470   7.131  1.9344  1.6109  2.3400
  168SOPE   C2618930   3.208   0.663   7.220  0.2430 -0.1092 -0.1105
  168SOPE   H6R18931   3.316   0.660   7.194  0.0008 -3.3864 -0.9392
  168SOPE   H6S18932   3.178   0.770   7.215 -0.7865 -0.4416 -1.0939
  168SOPE   C2718933   3.171   0.623   7.359  0.1780 -0.2562  0.6412
  168SOPE   H7R18934   3.062   0.641   7.367  0.0175 -1.2802  0.8679
  168SOPE   H7S18935   3.185   0.513   7.361 -0.9423 -0.3989  1.4345
  168SOPE   C2818936   3.260   0.691   7.461 -0.5723  0.4574  0.0053
  168SOPE   H8R18937   3.368   0.669   7.444 -0.4320  1.0540  0.1098
  168SOPE   H8S18938   3.242   0.801   7.459  2.2765  0.9435 -2.5947
  168SOPE   C2918939   3.220   0.657   7.605  0.1452  0.0145 -0.2782
  168SOPE   H9118940   3.118   0.692   7.628  0.6722  1.1830  0.3284
  168SOPE  C21018941   3.282   0.586   7.705  0.0630 -0.7230 -0.1379
  168SOPE  H10118942   3.233   0.559   7.800  1.1853  0.1069  0.6844
  168SOPE  C21118943   3.422   0.527   7.687 -0.1756 -0.4451  0.2019
  168SOPE  H11R18944   3.479   0.605   7.631  0.7443 -1.7577 -0.7141
  168SOPE  H11S18945   3.425   0.442   7.615  0.7930  1.5373 -2.1780
  168SOPE  C21218946   3.492   0.479   7.812  0.2196 -0.5305  0.4821
  168SOPE  H12R18947   3.576   0.419   7.773 -0.1492 -1.1318  0.5983
  168SOPE  H12S18948   3.423   0.424   7.880  0.6494  2.4256  3.4398
  168SOPE  C21318949   3.556   0.584   7.907  0.4496  0.7437 -0.1082
  168SOPE  H13R18950   3.478   0.652   7.946 -1.6816 -1.7390  0.0477
  168SOPE  H13S18951   3.629   0.647   7.850 -0.5610  1.4734 -0.6051
  168SOPE  C21418952   3.649   0.519   8.014  0.2298  0.1071 -0.3466
  168SOPE  H14R18953   3.738   0.476   7.962 -0.9823 -0.7938 -1.6991
  168SOPE  H14S18954   3.594   0.432   8.055  1.8544 -0.3011  1.0570
  168SOPE  C21518955   3.672   0.617   8.130 -0.4412  0.3950  0.7233
  168SOPE  H15R18956   3.578   0.664   8.165 -0.2647  0.2082  1.4475
  168SOPE  H15S18957   3.721   0.704   8.082 -1.5791 -0.2590 -1.7107
  168SOPE  C21618958   3.765   0.560   8.234 -0.6605 -0.0697  0.3064
  168SOPE  H16R18959   3.852   0.514   8.183 -1.2765 -0.3733 -0.4801
  168SOPE  H16S18960   3.713   0.480   8.291 -1.1795 -1.2604 -1.7824
  168SOPE  C21718961   3.813   0.653   8.351 -0.1943  0.3507  0.6349
  168SOPE  H17R18962   3.727   0.695   8.408 -0.7385  0.1656 -0.0332
  168SOPE  H17S18963   3.863   0.743   8.309 -0.4940  0.6096  0.8274
  168SOPE  C21818964   3.898   0.581   8.457 -0.6076  0.2117 -0.2191
  168SOPE  H18R18965   3.843   0.493   8.496  0.7152 -0.0892  1.0107
  168SOPE  H18S18966   3.933   0.647   8.539  2.3262 -1.9383  0.3641
  168SOPE  H18T18967   3.992   0.556   8.402  0.6390  0.6698  1.6681
  168SOPE   C3318968   2.733   1.331   6.943 -0.7303  0.1648 -0.4668
  168SOPE   H3X18969   2.654   1.313   7.019  0.4704 -1.9118  0.3345
  168SOPE   H3Y18970   2.701   1.421   6.887 -0.8233 -0.6446 -1.7395
  168SOPE   C3418971   2.858   1.370   7.023  0.1779  0.9049 -0.0134
  168SOPE   H4X18972   2.824   1.465   7.069 -0.4541 -0.3430  2.1718
  168SOPE   H4Y18973   2.943   1.406   6.961  0.8051  1.4283  1.1510
  168SOPE   C3518974   2.895   1.279   7.144  0.0147  0.2527  0.5958
  168SOPE   H5X18975   3.004   1.299   7.157  0.0550  0.9793 -0.7989
  168SOPE   H5Y18976   2.872   1.171   7.127  1.2569 -0.5818  3.8490
  168SOPE   C3618977   2.846   1.337   7.280 -0.4818 -0.4635  0.3806
  168SOPE   H6X18978   2.865   1.446   7.276  0.8885 -0.7265 -0.8844
  168SOPE   H6Y18979   2.906   1.295   7.364 -2.3733  0.3190  2.1514
  168SOPE   C3718980   2.696   1.310   7.300  0.6975  0.1989 -0.4995
  168SOPE   H7X18981   2.670   1.204   7.280  2.2091  0.1961 -2.6363
  168SOPE   H7Y18982   2.650   1.368   7.217  0.2217 -2.9786 -2.5124
  168SOPE   C3818983   2.641   1.356   7.435 -0.3924  0.1863 -0.5079
  168SOPE   H8X18984   2.532   1.370   7.415 -0.6771 -2.1638 -0.6776
  168SOPE   H8Y18985   2.689   1.454   7.455  2.8929 -1.2726 -0.9144
  168SOPE   C3918986   2.656   1.261   7.548  0.3411  0.0364 -0.0636
  168SOPE   H9X18987   2.764   1.236   7.539  0.3618 -0.1844  0.7836
  168SOPE   H9Y18988   2.598   1.168   7.532  0.2160 -0.0319  0.7983
  168SOPE  C31018989   2.625   1.308   7.695  0.2266 -0.6750 -0.1858
  168SOPE  H10X18990   2.533   1.370   7.701 -0.0592 -1.0386 -0.7631
  168SOPE  H10Y18991   2.705   1.369   7.742  2.2526 -1.8010 -2.0973
  168SOPE  C31118992   2.613   1.182   7.793  0.0515  0.5009  0.2545
  168SOPE  H11X18993   2.711   1.129   7.790 -0.5389 -0.5746 -0.2626
  168SOPE  H11Y18994   2.527   1.119   7.761 -1.0352  1.0077  2.1394
  168SOPE  C31218995   2.594   1.226   7.944 -0.2524  0.3048 -0.2900
  168SOPE  H12X18996   2.506   1.294   7.942 -0.5850 -0.1430 -1.8022
  168SOPE  H12Y18997   2.675   1.287   7.987 -0.7914  0.8605 -0.0544
  168SOPE  C31318998   2.574   1.104   8.041 -0.3234  0.5454 -0.0459
  168SOPE  H13X18999   2.664   1.040   8.027 -1.8296 -1.7697  0.4863
  168SOPE  H13Y19000   2.487   1.047   8.002  0.5052 -1.7816  1.3949
  168SOPE  C31419001   2.536   1.129   8.183  0.4604 -0.5503 -0.1087
  168SOPE  H14X19002   2.493   1.037   8.228 -1.8594  1.2352  1.4168
  168SOPE  H14Y19003   2.457   1.207   8.182  1.0189  0.0431  1.2382
  168SOPE  C31519004   2.658   1.181   8.256 -0.1913 -0.4193  0.2512
  168SOPE  H15X19005   2.697   1.273   8.206  0.3694 -1.0132 -0.4204
  168SOPE  H15Y19006   2.744   1.110   8.258  0.1158 -0.0409  0.8020
  168SOPE  C31619007   2.623   1.216   8.402 -0.0946  0.7629  0.3307
  168SOPE  H16X19008   2.568   1.127   8.439  0.9677 -0.9178 -2.0135
  168SOPE  H16Y19009   2.550   1.301   8.401 -0.2115  0.6662 -1.4794
  168SOPE  C31719010   2.749   1.258   8.479 -0.0781  0.7771 -0.7246
  168SOPE  H17X19011   2.820   1.304   8.406 -0.9447  2.6824 -0.3971
  168SOPE  H17Y19012   2.793   1.174   8.537  0.1853  0.4040 -1.4512
  168SOPE  C31819013   2.712   1.366   8.576 -0.1698 -0.2310  0.0218
  168SOPE  H18X19014   2.649   1.326   8.658 -0.3864  0.2538  0.0927
  168SOPE  H18Y19015   2.663   1.457   8.535  1.4055  0.3834 -0.5658
  168SOPE  H18Z19016   2.798   1.424   8.616 -0.6601  0.6970 -0.2560
  169SOPE     N19017   6.113   2.795   6.675 -0.5279  0.7560 -0.3879
  169SOPE   HN119018   6.014   2.770   6.692 -0.2905  0.0161 -0.1053
  169SOPE   HN219019   6.165   2.705   6.671  0.3630  1.2830 -0.8680
  169SOPE   HN319020   6.148   2.860   6.748  1.6964 -0.0215 -0.7444
  169SOPE   C1219021   6.120   2.849   6.533 -0.0462 -0.4538 -0.3107
  169SOPE  H12A19022   6.228   2.841   6.506  0.3285  1.9240  0.3618
  169SOPE  H12B19023   6.095   2.957   6.544  0.0660 -0.5172  0.6590
  169SOPE   C1119024   6.012   2.785   6.448 -0.3888  0.3319 -0.4401
  169SOPE  H11A19025   6.027   2.676   6.468 -1.9407  0.3274  0.8163
  169SOPE  H11B19026   6.044   2.810   6.345  0.0041  0.2628 -0.3375
  169SOPE     P19027   5.788   2.885   6.368  0.1543  0.2510 -0.2386
  169SOPE   O1319028   5.745   2.772   6.279 -0.1960  0.3535 -0.4813
  169SOPE   O1419029   5.856   2.999   6.309  0.3121  0.2982 -0.0259
  169SOPE   O1219030   5.877   2.827   6.484  0.4490  0.0764  0.5104
  169SOPE   O1119031   5.670   2.926   6.464 -0.4322  0.1197  0.2536
  169SOPE    C119032   5.680   3.050   6.531 -0.2677  0.3643 -0.3003
  169SOPE    HA19033   5.578   3.093   6.546 -1.1869 -1.8929  0.1112
  169SOPE    HB19034   5.737   3.131   6.480  1.7038 -0.6261  0.3026
  169SOPE    C219035   5.742   3.036   6.673 -0.4817 -0.0463  0.2312
  169SOPE    HS19036   5.851   3.016   6.667  0.2294  3.3366  1.2097
  169SOPE   O2119037   5.668   2.938   6.738  0.0308  0.2601 -0.0228
  169SOPE   C2119038   5.737   2.833   6.790  0.1695  0.2530  0.2449
  169SOPE   O2219039   5.857   2.828   6.804 -0.0884  0.3927  0.5764
  169SOPE   C2219040   5.626   2.734   6.835  0.7003  0.1281 -0.0999
  169SOPE   H2R19041   5.585   2.674   6.750  1.1620  0.2092 -0.3808
  169SOPE   H2S19042   5.540   2.793   6.874 -1.5247 -1.4133 -2.4474
  169SOPE    C319043   5.736   3.172   6.744  0.2027 -0.6497  0.2379
  169SOPE    HX19044   5.629   3.202   6.747  0.8420  1.7790 -0.6083
  169SOPE    HY19045   5.775   3.249   6.676 -2.4635  0.7534  0.2208
  169SOPE   O3119046   5.795   3.175   6.876 -0.2079 -0.3375 -0.6255
  169SOPE   C3119047   5.918   3.228   6.891 -0.3828  1.0042 -0.1125
  169SOPE   O3219048   5.980   3.287   6.805  0.4823  0.0842  0.2275
  169SOPE   C3219049   5.972   3.173   7.025 -0.9737  0.3357  0.2606
  169SOPE   H2X19050   6.080   3.201   7.024 -1.0367  0.5655 -0.7085
  169SOPE   H2Y19051   5.968   3.062   7.021 -0.3309  0.2980  0.5751
  169SOPE   C2319052   5.672   2.643   6.951 -0.5817  1.3294  0.3430
  169SOPE   H3R19053   5.757   2.581   6.915 -0.0574  3.7703 -2.9463
  169SOPE   H3S19054   5.596   2.570   6.988  1.2225 -0.1912  1.1431
  169SOPE   C2419055   5.724   2.710   7.080  0.2473 -0.3841  0.1039
  169SOPE   H4R19056   5.817   2.769   7.066 -0.2519  0.6805  1.1849
  169SOPE   H4S19057   5.645   2.776   7.121 -0.3754 -2.2748  2.0110
  169SOPE   C2519058   5.764   2.599   7.177  0.3945 -0.1289 -0.4853
  169SOPE   H5R19059   5.749   2.501   7.128 -0.9132  0.1635 -0.6794
  169SOPE   H5S19060   5.871   2.584   7.202 -0.3090 -1.4831  1.8658
  169SOPE   C2619061   5.678   2.594   7.304 -0.1213  0.4990  0.1106
  169SOPE   H6R19062   5.682   2.686   7.367 -0.6677 -0.0302  0.9232
  169SOPE   H6S19063   5.570   2.580   7.282 -0.1523 -1.0316  1.1682
  169SOPE   C2719064   5.710   2.480   7.393  0.8383  0.8618  0.1131
  169SOPE   H7R19065   5.684   2.386   7.339 -0.7724  1.8023 -0.7909
  169SOPE   H7S19066   5.819   2.467   7.407  0.4976 -2.5190  0.1562
  169SOPE   C2819067   5.611   2.471   7.524 -0.2734  0.0203  0.3424
  169SOPE   H8R19068   5.506   2.482   7.490 -0.5319 -0.5158  0.9663
  169SOPE   H8S19069   5.618   2.369   7.569  3.0473  0.0033 -0.0964
  169SOPE   C2919070   5.642   2.575   7.622  0.5379  0.4343  0.8689
  169SOPE   H9119071   5.652   2.674   7.576  0.0218  0.3424  0.5527
  169SOPE  C21019072   5.677   2.561   7.751  0.1828  0.0018  0.6490
  169SOPE  H10119073   5.705   2.649   7.812  0.5095  0.5798 -0.3191
  169SOPE  C21119074   5.660   2.436   7.828 -0.0416  0.0498 -0.5640
  169SOPE  H11R19075   5.751   2.373   7.815  1.2456  1.8518 -0.3653
  169SOPE  H11S19076   5.586   2.372   7.775 -0.1931 -0.3831  0.1579
  169SOPE  C21219077   5.624   2.444   7.980 -0.0592  0.1229  0.2617
  169SOPE  H12R19078   5.714   2.494   8.023  0.4817  0.2230 -0.9743
  169SOPE  H12S19079   5.612   2.341   8.020 -0.8199  0.2344  0.3103
  169SOPE  C21319080   5.487   2.511   8.008 -0.1990  0.1860  0.1448
  169SOPE  H13R19081   5.415   2.437   7.969  0.4823 -1.1561  1.3453
  169SOPE  H13S19082   5.490   2.611   7.960  1.3038  1.0717  1.9699
  169SOPE  C21419083   5.460   2.531   8.162 -0.1389  0.5182 -0.9401
  169SOPE  H14R19084   5.535   2.590   8.219 -0.3356 -0.3265  0.2130
  169SOPE  H14S19085   5.466   2.429   8.204  1.7418  1.3573  0.9307
  169SOPE  C21519086   5.333   2.605   8.196 -0.2467 -0.5683 -0.2490
  169SOPE  H15R19087   5.242   2.561   8.149  0.1644 -1.0650 -0.5845
  169SOPE  H15S19088   5.337   2.709   8.155 -0.0144 -0.5747 -0.2464
  169SOPE  C21619089   5.312   2.633   8.349 -0.5577 -0.2442  0.9051
  169SOPE  H16R19090   5.226   2.702   8.362  1.2864  2.0836  1.0179
  169SOPE  H16S19091   5.403   2.694   8.367 -0.4589 -0.0494 -0.1689
  169SOPE  C21719092   5.316   2.502   8.436  0.3080 -0.2480  0.0155
  169SOPE  H17R19093   5.408   2.444   8.412 -0.8364 -2.2335  0.3375
  169SOPE  H17S19094   5.222   2.444   8.425 -0.6185  1.2281 -0.1158
  169SOPE  C21819095   5.322   2.543   8.584 -0.5052  0.5548  0.9698
  169SOPE  H18R19096   5.347   2.460   8.653  0.9516  0.4562  0.3266
  169SOPE  H18S19097   5.220   2.583   8.603 -2.2473 -2.9183 -0.5409
  169SOPE  H18T19098   5.404   2.614   8.604  3.0892 -2.5705 -1.9366
  169SOPE   C3319099   5.892   3.244   7.133 -0.0369  0.0395  0.1953
  169SOPE   H3X19100   5.781   3.236   7.129 -0.0309 -2.4663  3.2274
  169SOPE   H3Y19101   5.924   3.350   7.129 -0.1129  0.0362 -0.6503
  169SOPE   C3419102   5.904   3.182   7.276 -0.9893  0.7277  0.2216
  169SOPE   H4X19103   6.011   3.164   7.301 -1.0731 -0.1848 -0.0657
  169SOPE   H4Y19104   5.848   3.086   7.280  1.3702 -0.6593  0.7306
  169SOPE   C3519105   5.830   3.283   7.372 -0.0374 -0.1209 -0.3983
  169SOPE   H5X19106   5.723   3.294   7.345 -0.1934  0.3266  0.3826
  169SOPE   H5Y19107   5.873   3.385   7.378  1.5230 -0.7885 -0.0286
  169SOPE   C3619108   5.827   3.223   7.516  0.4933  0.5362 -0.3021
  169SOPE   H6X19109   5.780   3.123   7.509  2.9500 -0.5946 -0.8365
  169SOPE   H6Y19110   5.767   3.289   7.583  0.4589 -0.7122  0.9183
  169SOPE   C3719111   5.966   3.209   7.582  0.5015 -0.2323 -0.4332
  169SOPE   H7X19112   6.017   3.307   7.583  1.7231 -0.8448 -1.4064
  169SOPE   H7Y19113   6.021   3.136   7.520  0.8793  0.4723 -0.9273
  169SOPE   C3819114   5.967   3.131   7.720  0.3157 -0.7958 -0.5506
  169SOPE   H8X19115   5.899   3.183   7.791  0.6954  0.1981 -0.9133
  169SOPE   H8Y19116   5.921   3.030   7.712  0.5419 -0.8578 -1.0547
  169SOPE   C3919117   6.105   3.100   7.767 -0.5920  0.0230  0.0047
  169SOPE   H9X19118   6.171   3.189   7.756 -1.2165  0.4876 -0.0407
  169SOPE   H9Y19119   6.148   3.011   7.716  0.2474  0.1322  0.5050
  169SOPE  C31019120   6.125   3.056   7.914 -1.4494 -0.2995 -0.4465
  169SOPE  H10X19121   6.062   2.965   7.925 -1.1342 -0.4695 -0.0280
  169SOPE  H10Y19122   6.090   3.129   7.989 -0.3513 -2.6817  2.4994
  169SOPE  C31119123   6.273   3.023   7.930 -0.4178 -0.1335 -0.3267
  169SOPE  H11X19124   6.329   3.119   7.921  1.8438 -1.1914  1.8955
  169SOPE  H11Y19125   6.301   2.940   7.862 -0.9800  0.0409 -0.7716
  169SOPE  C31219126   6.307   2.955   8.062  0.2149  0.1105 -1.3132
  169SOPE  H12X19127   6.251   2.861   8.082 -0.5149  0.9642  0.8444
  169SOPE  H12Y19128   6.265   3.026   8.136 -2.2437 -0.8530 -1.7533
  169SOPE  C31319129   6.454   2.946   8.108  0.1199  0.1145  0.3099
  169SOPE  H13X19130   6.508   3.029   8.056 -1.3696  0.1959 -1.1469
  169SOPE  H13Y19131   6.491   2.849   8.066 -2.2331  0.1553 -1.9928
  169SOPE  C31419132   6.481   2.951   8.259 -0.0489 -0.2266 -0.1008
  169SOPE  H14X19133   6.434   2.861   8.303  2.3475 -1.9350 -0.9483
  169SOPE  H14Y19134   6.433   3.039   8.307  2.8533  1.9241 -0.9603
  169SOPE  C31519135   6.635   2.965   8.295  0.2250  0.0696 -0.4330
  169SOPE  H15X19136   6.676   3.042   8.226  1.2500 -0.0714  0.0117
  169SOPE  H15Y19137   6.688   2.869   8.275 -1.2051 -1.2651  1.9962
  169SOPE  C31619138   6.670   2.999   8.442  0.0649 -0.1485  0.6269
  169SOPE  H16X19139   6.616   3.091   8.474  0.5292  0.3084  0.0971
  169SOPE  H16Y19140   6.779   3.018   8.443 -0.6275  4.5129  3.1597
  169SOPE  C31719141   6.629   2.886   8.535  0.0454  0.1849 -0.2850
  169SOPE  H17X19142   6.686   2.794   8.508 -2.1513 -1.2969 -0.0372
  169SOPE  H17Y19143   6.522   2.857   8.529  0.2819 -1.3641  2.1267
  169SOPE  C31819144   6.647   2.926   8.682  0.4909 -0.1393  0.1018
  169SOPE  H18X19145   6.624   2.846   8.755  0.0116  1.7804  2.0733
  169SOPE  H18Y19146   6.566   2.996   8.711  0.5610  0.3429 -0.8556
  169SOPE  H18Z19147   6.746   2.974   8.697 -0.2741  1.2791  0.7105
  170SOPE     N19148   6.499   1.140   6.270  0.2333 -0.2216  0.3208
  170SOPE   HN119149   6.531   1.221   6.328  2.6905 -1.1047  0.2466
  170SOPE   HN219150   6.584   1.094   6.232 -1.1815 -1.7622 -1.0955
  170SOPE   HN319151   6.451   1.181   6.187  1.4401  1.4523  0.4180
  170SOPE   C1219152   6.403   1.057   6.341 -0.7844  0.7905  0.2242
  170SOPE  H12A19153   6.438   1.071   6.446  2.2149  2.8339 -0.9743
  170SOPE  H12B19154   6.412   0.948   6.324  0.5606  0.9025  0.2268
  170SOPE   C1119155   6.261   1.121   6.338 -0.9377  0.0343  0.5715
  170SOPE  H11A19156   6.210   1.064   6.419 -0.6606  0.0769  0.7785
  170SOPE  H11B19157   6.202   1.087   6.251 -0.6493  0.7780  0.0849
  170SOPE     P19158   6.174   1.355   6.278 -0.3544 -0.0102 -0.0425
  170SOPE   O1319159   6.033   1.329   6.277 -0.1069 -0.0215  0.2906
  170SOPE   O1419160   6.238   1.353   6.144  0.1981  0.1421  0.1057
  170SOPE   O1219161   6.254   1.259   6.376 -0.7528 -0.1636  0.2001
  170SOPE   O1119162   6.181   1.505   6.339  0.5066  0.0269  0.7801
  170SOPE    C119163   6.290   1.560   6.413  0.3480 -0.4644 -0.5222
  170SOPE    HA19164   6.297   1.669   6.390  1.5545 -0.0350  1.7364
  170SOPE    HB19165   6.384   1.508   6.383 -0.5759 -1.0334 -2.4960
  170SOPE    C219166   6.261   1.564   6.566  0.2121 -0.5699  0.2755
  170SOPE    HS19167   6.349   1.613   6.612  0.8666 -1.5283  0.0617
  170SOPE   O2119168   6.229   1.437   6.622 -0.0063  0.2834  0.5862
  170SOPE   C2119169   6.334   1.357   6.646 -0.0622 -0.0478  0.9913
  170SOPE   O2219170   6.449   1.386   6.616 -0.4337 -0.3433  0.3160
  170SOPE   C2219171   6.280   1.246   6.729  0.8345 -0.1778  0.3013
  170SOPE   H2R19172   6.206   1.186   6.672 -0.7240  0.2929  1.7767
  170SOPE   H2S19173   6.217   1.282   6.813 -0.1275 -2.6194  0.6814
  170SOPE    C319174   6.141   1.656   6.595  0.4325  0.5809  0.0111
  170SOPE    HX19175   6.051   1.607   6.551 -0.1767  2.6957 -1.1406
  170SOPE    HY19176   6.145   1.751   6.538  1.0145  1.1359  0.9737
  170SOPE   O3119177   6.115   1.674   6.734 -0.3442 -0.2947  0.3612
  170SOPE   C3119178   6.179   1.769   6.797 -0.4548  0.3709  0.6116
  170SOPE   O3219179   6.238   1.861   6.740  0.5076 -0.5593  0.6603
  170SOPE   C3219180   6.178   1.742   6.944  0.9253 -0.6405 -0.6769
  170SOPE   H2X19181   6.223   1.643   6.966  1.9870 -0.1171 -0.5026
  170SOPE   H2Y19182   6.071   1.736   6.972  1.3278 -1.9132  0.6329
  170SOPE   C2319183   6.388   1.155   6.798 -0.0661 -0.3815  0.7083
  170SOPE   H3R19184   6.474   1.224   6.812 -2.3661  2.4854  1.1808
  170SOPE   H3S19185   6.422   1.082   6.721 -0.6158  0.0099  0.0813
  170SOPE   C2419186   6.332   1.097   6.929  0.0441 -0.0330  0.2980
  170SOPE   H4R19187   6.411   1.034   6.975  0.6380 -0.3616 -1.1382
  170SOPE   H4S19188   6.315   1.181   6.999  0.8416  0.1110  0.3251
  170SOPE   C2519189   6.198   1.021   6.921  0.8320  0.3871  0.3077
  170SOPE   H5R19190   6.114   1.091   6.906  0.6127  0.2087  0.6685
  170SOPE   H5S19191   6.212   0.947   6.839  2.2263 -2.1603  2.7116
  170SOPE   C2619192   6.177   0.916   7.038 -0.3206 -0.3692  0.1214
  170SOPE   H6R19193   6.080   0.869   7.013  0.5908 -0.5993 -3.2758
  170SOPE   H6S19194   6.254   0.836   7.045 -0.4362 -0.2284  3.6353
  170SOPE   C2719195   6.180   0.982   7.178 -0.5755 -0.0486  0.9909
  170SOPE   H7R19196   6.284   1.014   7.199 -0.4782  1.0723 -1.0284
  170SOPE   H7S19197   6.119   1.074   7.186 -3.3169 -1.7445  0.1682
  170SOPE   C2819198   6.129   0.892   7.288 -0.4920 -0.0419  0.0940
  170SOPE   H8R19199   6.050   0.822   7.254  0.0082 -0.1759 -0.7939
  170SOPE   H8S19200   6.211   0.825   7.319 -0.2052  0.2108 -0.1109
  170SOPE   C2919201   6.087   0.983   7.403  0.1480 -0.4065  0.8487
  170SOPE   H9119202   5.981   1.008   7.392  0.5840  0.2704 -2.1880
  170SOPE  C21019203   6.152   1.031   7.511  0.5078  0.7758  0.2336
  170SOPE  H10119204   6.092   1.093   7.580  0.7390  0.0417  1.1062
  170SOPE  C21119205   6.293   1.006   7.552  0.4340 -0.4108 -0.2188
  170SOPE  H11R19206   6.345   1.092   7.600 -0.6741  0.4051 -0.4807
  170SOPE  H11S19207   6.351   0.992   7.459  1.6801 -0.7662  0.5945
  170SOPE  C21219208   6.306   0.886   7.653  0.1485 -0.1364  0.4019
  170SOPE  H12R19209   6.412   0.879   7.686 -0.4350 -0.1705  2.3144
  170SOPE  H12S19210   6.277   0.793   7.600  0.7049  0.7923 -1.5765
  170SOPE  C21319211   6.220   0.896   7.778 -0.6254  0.4355  0.3870
  170SOPE  H13R19212   6.114   0.872   7.755  0.2863 -2.7656 -0.8085
  170SOPE  H13S19213   6.232   1.001   7.813 -0.3928  0.9960 -1.3058
  170SOPE  C21419214   6.284   0.810   7.895 -0.2611 -0.1022  0.5244
  170SOPE  H14R19215   6.311   0.712   7.848 -1.6902  0.2604 -1.1087
  170SOPE  H14S19216   6.209   0.791   7.974  0.1626  0.3961  1.0431
  170SOPE  C21519217   6.402   0.863   7.949 -0.7451  0.0711 -0.8628
  170SOPE  H15R19218   6.396   0.974   7.958 -0.0199  0.1775 -1.6152
  170SOPE  H15S19219   6.490   0.847   7.883  1.4457 -1.2464  2.2624
  170SOPE  C21619220   6.435   0.814   8.098 -0.1097  0.6566 -0.9829
  170SOPE  H16R19221   6.434   0.703   8.100  3.9014  0.5458  0.1924
  170SOPE  H16S19222   6.359   0.867   8.159 -0.4197 -0.1525 -0.6574
  170SOPE  C21719223   6.576   0.861   8.150  0.4547  0.0765  0.6641
  170SOPE  H17R19224   6.572   0.971   8.160 -0.6910 -0.0317  1.5972
  170SOPE  H17S19225   6.642   0.835   8.064 -0.7413  0.2045 -0.3051
  170SOPE  C21819226   6.609   0.795   8.286 -0.0057  0.0572 -0.3452
  170SOPE  H18R19227   6.565   0.694   8.295 -1.0399  0.6029  0.9454
  170SOPE  H18S19228   6.572   0.871   8.359 -0.2714  0.6732 -1.1142
  170SOPE  H18T19229   6.718   0.781   8.300 -0.4200 -0.6196  2.5931
  170SOPE   C3319230   6.232   1.846   7.030  0.0323  0.4832 -1.3354
  170SOPE   H3X19231   6.184   1.946   7.020  2.4173  1.9328  1.0229
  170SOPE   H3Y19232   6.342   1.859   7.022  0.5483 -0.3334  3.3073
  170SOPE   C3419233   6.199   1.817   7.183  0.0050 -0.3858 -0.3587
  170SOPE   H4X19234   6.225   1.712   7.207 -1.5038 -0.5915  0.4369
  170SOPE   H4Y19235   6.089   1.830   7.195  0.0454 -0.3138 -0.0812
  170SOPE   C3519236   6.256   1.929   7.278  0.2622  0.5569 -0.3920
  170SOPE   H5X19237   6.224   2.032   7.255 -1.8324 -0.1575 -0.7660
  170SOPE   H5Y19238   6.367   1.927   7.284  0.4532  0.3345 -3.3903
  170SOPE   C3619239   6.201   1.897   7.417 -0.1427  0.1134  0.1039
  170SOPE   H6X19240   6.211   1.787   7.429 -0.4342  0.1890  1.0607
  170SOPE   H6Y19241   6.091   1.916   7.416 -0.2688 -0.6295 -0.0910
  170SOPE   C3719242   6.268   1.971   7.529  0.3266 -0.6048  0.6613
  170SOPE   H7X19243   6.252   2.080   7.514  0.1187 -0.3695  2.4042
  170SOPE   H7Y19244   6.377   1.949   7.537  0.3028 -1.5289 -1.4029
  170SOPE   C3819245   6.214   1.927   7.666  0.2492  0.0781  0.0503
  170SOPE   H8X19246   6.107   1.900   7.652 -0.2744  2.1305  0.0375
  170SOPE   H8Y19247   6.225   2.016   7.731  1.0984 -1.7139  2.4409
  170SOPE   C3919248   6.291   1.810   7.744  0.0060 -0.3989  0.7888
  170SOPE   H9X19249   6.400   1.831   7.736  0.4541 -3.5364 -2.8589
  170SOPE   H9Y19250   6.273   1.712   7.696 -0.6136 -0.1477  0.5100
  170SOPE  C31019251   6.253   1.822   7.887  0.3216 -0.0284  0.1258
  170SOPE  H10X19252   6.146   1.841   7.907  0.2906  1.5887 -1.4662
  170SOPE  H10Y19253   6.294   1.914   7.934  1.0437 -0.3657  0.1703
  170SOPE  C31119254   6.295   1.707   7.982 -0.3632  0.6602  0.1411
  170SOPE  H11X19255   6.326   1.620   7.921 -1.7082 -0.9549  1.7045
  170SOPE  H11Y19256   6.201   1.690   8.040 -0.2938  1.5743  0.5359
  170SOPE  C31219257   6.400   1.743   8.079 -0.0884 -0.1955  0.3683
  170SOPE  H12X19258   6.482   1.802   8.032  0.4760 -1.2678 -0.0026
  170SOPE  H12Y19259   6.440   1.646   8.116 -0.6975 -1.3804 -1.9783
  170SOPE  C31319260   6.349   1.820   8.201 -0.3747  0.1293 -0.3727
  170SOPE  H13X19261   6.311   1.748   8.277  1.6328 -1.2635 -0.6714
  170SOPE  H13Y19262   6.267   1.888   8.166  0.7821  1.3172 -0.8112
  170SOPE  C31419263   6.445   1.909   8.268  0.4065  0.1499 -0.2102
  170SOPE  H14X19264   6.382   1.974   8.332 -0.9759  0.5546 -1.9236
  170SOPE  H14Y19265   6.484   1.980   8.192  0.7598 -0.9690 -1.0916
  170SOPE  C31519266   6.565   1.835   8.339 -0.5040  0.6380  0.3226
  170SOPE  H15X19267   6.643   1.910   8.366  0.5205  0.2229 -1.3989
  170SOPE  H15Y19268   6.622   1.775   8.264  0.5170 -0.4076  1.9079
  170SOPE  C31619269   6.526   1.753   8.463  0.1756 -0.2644  0.1566
  170SOPE  H16X19270   6.451   1.676   8.434  0.3353  0.1496 -1.3823
  170SOPE  H16Y19271   6.474   1.824   8.530  0.1086 -0.5667  0.4257
  170SOPE  C31719272   6.643   1.695   8.536 -0.1458 -0.0178 -0.0757
  170SOPE  H17X19273   6.636   1.716   8.645 -0.6958 -0.2272 -0.0657
  170SOPE  H17Y19274   6.739   1.738   8.502 -0.3893 -0.0899 -0.8767
  170SOPE  C31819275   6.653   1.542   8.512 -0.3874 -0.1342  0.1954
  170SOPE  H18X19276   6.742   1.485   8.546 -0.4820 -0.6173 -0.3424
  170SOPE  H18Y19277   6.641   1.520   8.404 -0.4484 -2.3791  0.6236
  170SOPE  H18Z19278   6.568   1.492   8.564 -0.0055 -1.1349 -0.1202
  171SOPE     N19279   6.494   4.450   6.182  0.1174  0.0202 -0.2115
  171SOPE   HN119280   6.392   4.454   6.165  0.3003 -2.2703 -2.2958
  171SOPE   HN219281   6.536   4.480   6.092  0.8490 -0.4821 -0.0471
  171SOPE   HN319282   6.518   4.349   6.190 -1.8416 -0.3851  0.6139
  171SOPE   C1219283   6.529   4.545   6.300 -0.5981  0.3047  0.0705
  171SOPE  H12A19284   6.549   4.646   6.257 -1.2826  0.2771 -0.3154
  171SOPE  H12B19285   6.627   4.507   6.337 -0.6706  0.0290 -0.0261
  171SOPE   C1119286   6.423   4.544   6.410  0.5340  0.2320  0.3235
  171SOPE  H11A19287   6.468   4.592   6.500  2.0716  0.2483 -0.4286
  171SOPE  H11B19288   6.409   4.438   6.438 -2.1774  0.4937  0.0351
  171SOPE     P19289   6.175   4.602   6.458 -0.2245 -0.4529  0.3854
  171SOPE   O1319290   6.085   4.514   6.391 -0.1384 -0.5181 -0.5125
  171SOPE   O1419291   6.130   4.740   6.476  0.1121  0.0730 -0.1106
  171SOPE   O1219292   6.299   4.609   6.366  0.5263 -0.1872  0.3667
  171SOPE   O1119293   6.226   4.542   6.596  0.1999 -0.2645 -0.1430
  171SOPE    C119294   6.141   4.453   6.680 -0.3347 -0.2511  0.3135
  171SOPE    HA19295   6.154   4.346   6.656 -0.6245 -0.5676  1.5125
  171SOPE    HB19296   6.033   4.478   6.667 -0.4416  0.7426  2.7871
  171SOPE    C219297   6.188   4.483   6.823 -0.0111 -0.2641  0.1014
  171SOPE    HS19298   6.144   4.405   6.888 -1.3447 -1.6263 -2.3622
  171SOPE   O2119299   6.147   4.616   6.871  0.7289  0.1283 -0.1035
  171SOPE   C2119300   6.020   4.619   6.909 -0.1111 -0.5789 -0.6588
  171SOPE   O2219301   5.941   4.527   6.892  0.1160  0.0532 -0.4879
  171SOPE   C2219302   5.990   4.750   6.976 -0.2117  0.1508  0.3874
  171SOPE   H2R19303   5.880   4.764   6.987 -0.2484  0.9425 -0.8430
  171SOPE   H2S19304   6.021   4.832   6.907  0.1735  0.4880  0.9595
  171SOPE    C319305   6.347   4.488   6.832 -0.3513 -0.1069 -0.4684
  171SOPE    HX19306   6.370   4.578   6.771 -0.3981 -0.2149 -0.6462
  171SOPE    HY19307   6.386   4.397   6.782 -3.1489 -3.0419  2.4628
  171SOPE   O3119308   6.405   4.502   6.962 -0.2563  0.0729 -0.3401
  171SOPE   C3119309   6.366   4.423   7.064 -0.3235 -0.3366 -0.1515
  171SOPE   O3219310   6.296   4.324   7.048 -0.1367  0.2631 -0.5421
  171SOPE   C3219311   6.416   4.465   7.199  0.1286  0.1451 -0.7530
  171SOPE   H2X19312   6.362   4.554   7.237  0.3639 -0.9913  2.4141
  171SOPE   H2Y19313   6.515   4.513   7.184 -0.0630  0.0848 -2.2143
  171SOPE   C2319314   6.069   4.767   7.099  0.1718 -0.0581  0.7244
  171SOPE   H3R19315   6.031   4.861   7.144 -1.1887  0.2581 -1.0049
  171SOPE   H3S19316   6.174   4.778   7.067 -0.7184  0.3125 -2.2282
  171SOPE   C2419317   6.064   4.656   7.203 -0.1879  0.6544 -0.0936
  171SOPE   H4R19318   5.960   4.632   7.235  0.2601  0.0566  0.9398
  171SOPE   H4S19319   6.118   4.566   7.168 -0.8747  0.4958 -0.7745
  171SOPE   C2519320   6.133   4.698   7.331 -0.1765  0.6267  0.0231
  171SOPE   H5R19321   6.239   4.722   7.307 -0.3476  1.9135  0.5538
  171SOPE   H5S19322   6.088   4.789   7.375 -1.3325  0.9118 -1.7012
  171SOPE   C2619323   6.134   4.593   7.445 -0.2909  0.4215  0.6257
  171SOPE   H6R19324   6.028   4.567   7.466 -0.2770 -0.0159  0.1555
  171SOPE   H6S19325   6.193   4.507   7.406  0.5598  0.3554  2.0109
  171SOPE   C2719326   6.213   4.646   7.567  0.3012 -0.5119 -0.9212
  171SOPE   H7R19327   6.316   4.659   7.526 -0.2432 -0.6705 -2.3446
  171SOPE   H7S19328   6.171   4.742   7.603  1.4460 -1.6619  3.9580
  171SOPE   C2819329   6.210   4.559   7.696 -0.0301 -0.4047 -0.5739
  171SOPE   H8R19330   6.243   4.453   7.686 -1.0190 -0.7949  0.1756
  171SOPE   H8S19331   6.275   4.600   7.777 -0.6376 -2.1450  0.8341
  171SOPE   C2919332   6.071   4.562   7.760  0.2772  0.6872 -0.0414
  171SOPE   H9119333   5.985   4.527   7.701  0.4248  0.5134 -0.1568
  171SOPE  C21019334   6.032   4.610   7.881 -0.7910  0.7138 -0.5334
  171SOPE  H10119335   5.930   4.592   7.918  0.6057  0.5355  3.4901
  171SOPE  C21119336   6.118   4.675   7.989 -0.2001 -0.5975  0.5327
  171SOPE  H11R19337   6.082   4.768   8.039  2.3490 -1.0477  3.3892
  171SOPE  H11S19338   6.220   4.703   7.955  0.6011 -1.6729  1.9940
  171SOPE  C21219339   6.147   4.575   8.100  0.3804  0.4480 -0.0812
  171SOPE  H12R19340   6.054   4.520   8.124 -0.9599  2.1651 -1.2292
  171SOPE  H12S19341   6.172   4.638   8.189  0.2175  1.2801 -0.6216
  171SOPE  C21319342   6.252   4.469   8.083  0.3801  0.9732 -0.5319
  171SOPE  H13R19343   6.338   4.515   8.030 -0.1596  2.7666  0.0791
  171SOPE  H13S19344   6.205   4.401   8.009  0.9059 -1.1040  1.0009
  171SOPE  C21419345   6.308   4.400   8.205  0.2113 -0.0816 -0.3332
  171SOPE  H14R19346   6.358   4.465   8.280 -0.4356 -0.5836  0.5454
  171SOPE  H14S19347   6.385   4.324   8.179  0.0369 -0.3849  0.0211
  171SOPE  C21519348   6.204   4.323   8.291  0.4107 -0.1523  0.1496
  171SOPE  H15R19349   6.129   4.401   8.317  0.7977 -0.1126  1.1420
  171SOPE  H15S19350   6.251   4.286   8.384 -0.6127 -2.1151 -0.0621
  171SOPE  C21619351   6.150   4.196   8.225  0.1653 -0.3093 -0.5953
  171SOPE  H16R19352   6.223   4.122   8.185  0.1955 -0.4576 -0.2685
  171SOPE  H16S19353   6.092   4.226   8.135 -1.2423  1.5611  0.8818
  171SOPE  C21719354   6.056   4.131   8.324 -0.1037  0.7326 -0.1796
  171SOPE  H17R19355   5.991   4.205   8.376 -1.7282 -1.4395  0.9932
  171SOPE  H17S19356   6.107   4.081   8.409 -0.9235  0.8131  0.3612
  171SOPE  C21819357   5.958   4.030   8.268 -0.0861 -0.2350 -0.6761
  171SOPE  H18R19358   6.003   3.950   8.205 -0.5132 -0.0676 -1.1928
  171SOPE  H18S19359   5.892   4.086   8.199  1.0314  0.3237 -1.3102
  171SOPE  H18T19360   5.885   3.988   8.340  0.5411  0.4988  0.4043
  171SOPE   C3319361   6.422   4.349   7.298  0.2807  0.0435 -0.9176
  171SOPE   H3X19362   6.484   4.263   7.265 -0.2851 -0.2982 -1.0876
  171SOPE   H3Y19363   6.323   4.304   7.320 -0.2397  2.0419  0.9728
  171SOPE   C3419364   6.489   4.402   7.424  0.1009 -0.1212  0.2637
  171SOPE   H4X19365   6.442   4.496   7.461  1.5551 -0.2168  2.4211
  171SOPE   H4Y19366   6.597   4.419   7.404  0.8958 -2.7564  2.0983
  171SOPE   C3519367   6.485   4.296   7.538  0.1278 -0.0697 -0.1122
  171SOPE   H5X19368   6.525   4.199   7.501 -1.5015  0.2359 -2.8156
  171SOPE   H5Y19369   6.380   4.276   7.565  0.1787  0.5375  0.5683
  171SOPE   C3619370   6.564   4.333   7.665  0.2344 -0.6307 -0.0074
  171SOPE   H6X19371   6.512   4.417   7.716 -1.4281  0.7731 -3.8058
  171SOPE   H6Y19372   6.663   4.373   7.634 -0.3573  1.0306  0.2021
  171SOPE   C3719373   6.600   4.218   7.768  0.2068 -0.7955  0.1782
  171SOPE   H7X19374   6.666   4.256   7.848  0.7782 -1.7737  0.1766
  171SOPE   H7Y19375   6.658   4.138   7.718  0.2948  0.2668 -1.4687
  171SOPE   C3819376   6.476   4.163   7.828  0.4392 -0.9116 -0.8233
  171SOPE   H8X19377   6.428   4.102   7.748 -1.5822 -1.2584  0.6226
  171SOPE   H8Y19378   6.399   4.239   7.852  0.7827 -0.1485 -2.0684
  171SOPE   C3919379   6.502   4.053   7.936 -0.3295  0.2533  0.3077
  171SOPE   H9X19380   6.498   4.115   8.028 -2.2791 -0.1497  0.5124
  171SOPE   H9Y19381   6.600   4.006   7.910  0.2500  0.9564  1.1936
  171SOPE  C31019382   6.392   3.954   7.940 -0.6697 -0.6723  0.0856
  171SOPE  H10X19383   6.294   4.005   7.926 -0.7529 -0.8961 -0.1489
  171SOPE  H10Y19384   6.392   3.903   8.039  1.6879 -0.6576  0.1311
  171SOPE  C31119385   6.397   3.841   7.838  0.0147 -0.5057 -0.4473
  171SOPE  H11X19386   6.502   3.806   7.843  0.1080  0.0432  1.6583
  171SOPE  H11Y19387   6.384   3.882   7.735 -0.3440  1.1521  0.2458
  171SOPE  C31219388   6.292   3.736   7.869  0.4980  0.0520 -0.6519
  171SOPE  H12X19389   6.193   3.768   7.830 -0.1758 -1.6773 -0.3904
  171SOPE  H12Y19390   6.276   3.734   7.979  0.2931 -0.2554 -0.6877
  171SOPE  C31319391   6.326   3.587   7.822 -0.4918 -0.2462 -0.3510
  171SOPE  H13X19392   6.267   3.512   7.878  0.0523 -0.8980 -0.6486
  171SOPE  H13Y19393   6.428   3.564   7.858 -0.2704 -1.2067 -1.5237
  171SOPE  C31419394   6.300   3.582   7.671 -0.0932  0.1219  0.2534
  171SOPE  H14X19395   6.352   3.663   7.617  1.4188  0.5921  2.3679
  171SOPE  H14Y19396   6.192   3.609   7.663 -0.4864 -1.6348 -0.5871
  171SOPE  C31519397   6.335   3.441   7.621 -0.6526 -0.0048 -0.5124
  171SOPE  H15X19398   6.245   3.381   7.646 -1.7911  1.8109 -0.1320
  171SOPE  H15Y19399   6.427   3.404   7.671  0.3202  1.6958 -1.0231
  171SOPE  C31619400   6.340   3.424   7.472  0.8590  0.0993  0.7282
  171SOPE  H16X19401   6.420   3.486   7.426  1.0945 -0.6785  0.0760
  171SOPE  H16Y19402   6.239   3.462   7.444  0.5825 -0.8478  0.4266
  171SOPE  C31719403   6.361   3.279   7.418  0.0780  0.2157  0.2657
  171SOPE  H17X19404   6.278   3.212   7.449  1.1810 -1.4064 -0.2312
  171SOPE  H17Y19405   6.429   3.222   7.484  0.0351 -2.2238 -1.7150
  171SOPE  C31819406   6.375   3.265   7.271  0.0604  0.2837 -0.2305
  171SOPE  H18X19407   6.412   3.166   7.236 -0.1040  0.1526 -0.0338
  171SOPE  H18Y19408   6.441   3.344   7.229 -0.9817  0.9530 -0.6288
  171SOPE  H18Z19409   6.276   3.291   7.229 -0.6155 -0.4400  0.9029
  172SOPE     N19410   0.615   5.909   6.274  0.4901 -0.3773 -0.0868
  172SOPE   HN119411   0.674   5.851   6.211  0.2257  0.1640 -0.8418
  172SOPE   HN219412   0.691   5.941   6.338  1.4584 -1.7562 -0.5288
  172SOPE   HN319413   0.537   5.866   6.328  1.7095 -1.0958  1.1319
  172SOPE   C1219414   0.567   6.037   6.219  0.0594 -0.3976  0.0344
  172SOPE  H12A19415   0.520   6.020   6.119  0.5757 -1.3569 -0.0417
  172SOPE  H12B19416   0.649   6.111   6.208 -1.4371  1.4002  0.7231
  172SOPE   C1119417   0.464   6.103   6.322 -0.1626  0.5322  0.4887
  172SOPE  H11A19418   0.439   6.194   6.263  1.8923  0.9210  0.2109
  172SOPE  H11B19419   0.505   6.147   6.415 -1.7010 -2.5762  2.7518
  172SOPE     P19420   0.347   5.908   6.470 -0.0271 -0.2260  0.1270
  172SOPE   O1319421   0.451   5.809   6.440  0.5682  0.0841  0.3267
  172SOPE   O1419422   0.204   5.862   6.475 -0.3939 -0.3213  0.3289
  172SOPE   O1219423   0.352   6.020   6.358  0.0503 -0.1082  0.1428
  172SOPE   O1119424   0.393   5.994   6.601  0.5528 -0.5381 -0.0632
  172SOPE    C119425   0.299   6.106   6.630 -0.1000  0.3689  0.3537
  172SOPE    HA19426   0.198   6.077   6.666  0.7843 -1.1500  1.6549
  172SOPE    HB19427   0.293   6.180   6.547  1.7514 -1.7236 -1.7295
  172SOPE    C219428   0.357   6.186   6.750 -0.6199 -0.1700  0.2376
  172SOPE    HS19429   0.448   6.227   6.701 -1.4503  0.1328 -1.0763
  172SOPE   O2119430   0.401   6.100   6.857  0.0763 -0.6160  0.4955
  172SOPE   C2119431   0.314   6.028   6.927  0.6719 -1.0041 -0.0302
  172SOPE   O2219432   0.196   6.023   6.903 -0.4830  0.2078 -0.3256
  172SOPE   C2219433   0.374   5.959   7.039  0.4551  0.2881 -0.1214
  172SOPE   H2R19434   0.473   5.998   7.068  1.6133 -2.4505 -0.2578
  172SOPE   H2S19435   0.394   5.854   7.011  0.5027  0.2254  0.1488
  172SOPE    C319436   0.263   6.311   6.794 -0.3173  0.3273  0.5249
  172SOPE    HX19437   0.163   6.262   6.793 -0.4810  0.6700 -0.1997
  172SOPE    HY19438   0.277   6.389   6.717 -1.2506 -0.8908 -0.9071
  172SOPE   O3119439   0.284   6.355   6.934  0.5734 -0.4723 -0.4591
  172SOPE   C3119440   0.386   6.433   6.951  0.2972  0.6842  0.2323
  172SOPE   O3219441   0.453   6.473   6.859  0.2377  0.6422 -0.3447
  172SOPE   C3219442   0.409   6.458   7.100 -0.4600  0.5292  0.2252
  172SOPE   H2X19443   0.308   6.464   7.147  0.6495  1.4870  2.5557
  172SOPE   H2Y19444   0.465   6.553   7.116  2.3134 -1.2370  1.2763
  172SOPE   C2319445   0.281   5.951   7.161 -0.3016 -0.3582 -0.1869
  172SOPE   H3R19446   0.177   5.926   7.133 -1.6580  0.3797  3.8867
  172SOPE   H3S19447   0.273   6.059   7.188  1.4824 -0.6551  1.6426
  172SOPE   C2419448   0.339   5.871   7.272  0.3031  0.1599  0.7791
  172SOPE   H4R19449   0.370   5.771   7.235  1.7228  0.2844  1.5972
  172SOPE   H4S19450   0.433   5.917   7.309 -0.2657  1.3546  0.7754
  172SOPE   C2519451   0.249   5.864   7.398 -0.5685 -0.0442  0.3335
  172SOPE   H5R19452   0.226   5.966   7.436  1.0652  0.2509  0.5307
  172SOPE   H5S19453   0.150   5.819   7.372 -1.1725 -0.3046  2.9865
  172SOPE   C2619454   0.316   5.809   7.530  1.1739 -0.0249  0.2474
  172SOPE   H6R19455   0.318   5.698   7.519  0.8124 -0.2358  2.1915
  172SOPE   H6S19456   0.415   5.858   7.537 -0.0520  2.0999  4.3425
  172SOPE   C2719457   0.237   5.841   7.658 -0.4375  0.3402 -0.4096
  172SOPE   H7R19458   0.228   5.951   7.654 -0.9845  0.3378  0.6829
  172SOPE   H7S19459   0.129   5.814   7.663 -0.0380 -0.9467  1.7924
  172SOPE   C2819460   0.304   5.794   7.792  0.3234  0.2766  0.3391
  172SOPE   H8R19461   0.414   5.807   7.787  0.2295  0.9688 -0.0362
  172SOPE   H8S19462   0.281   5.863   7.876 -1.1620 -0.0015  0.1798
  172SOPE   C2919463   0.261   5.658   7.833 -0.5543 -0.4105  0.2610
  172SOPE   H9119464   0.325   5.579   7.789 -1.3442 -1.8734  1.6947
  172SOPE  C21019465   0.168   5.628   7.919  0.4759  0.5393 -0.6084
  172SOPE  H10119466   0.132   5.524   7.923 -0.1631  0.7770 -0.2181
  172SOPE  C21119467   0.090   5.730   7.993  0.3266 -0.6836 -0.2841
  172SOPE  H11R19468  -0.017   5.701   7.992  0.0136  0.4629 -1.4598
  172SOPE  H11S19469   0.097   5.832   7.948  2.1484 -0.6943 -0.0994
  172SOPE  C21219470   0.126   5.741   8.150 -0.3838  0.0417  0.6389
  172SOPE  H12R19471   0.134   5.641   8.198 -1.5033  0.4037  1.5816
  172SOPE  H12S19472   0.042   5.802   8.189 -2.6359 -1.5930 -1.5069
  172SOPE  C21319473   0.262   5.805   8.162  0.0338  0.3854 -0.0841
  172SOPE  H13R19474   0.258   5.899   8.104  1.2751  0.0133 -0.7770
  172SOPE  H13S19475   0.351   5.753   8.122  0.3043 -1.2425  2.4880
  172SOPE  C21419476   0.298   5.842   8.314 -0.3403  0.8720  0.2500
  172SOPE  H14R19477   0.263   5.762   8.382  1.5872 -0.3133 -0.1220
  172SOPE  H14S19478   0.234   5.931   8.330 -0.6796  0.6838 -0.0597
  172SOPE  C21519479   0.447   5.866   8.339 -0.1742  0.0740 -0.1126
  172SOPE  H15R19480   0.504   5.771   8.324 -3.7109 -1.9941 -0.9477
  172SOPE  H15S19481   0.457   5.899   8.444  1.1003  0.0064 -0.1975
  172SOPE  C21619482   0.502   5.979   8.242  0.6905  0.3145 -0.1333
  172SOPE  H16R19483   0.417   6.050   8.232  2.1729  2.2329  0.5571
  172SOPE  H16S19484   0.513   5.932   8.142 -0.2792  0.5371 -0.3591
  172SOPE  C21719485   0.626   6.033   8.297 -0.7570  0.2692  0.1739
  172SOPE  H17R19486   0.682   6.089   8.220  1.2331 -1.7173  0.1399
  172SOPE  H17S19487   0.689   5.950   8.336  0.1984  0.7151 -0.3944
  172SOPE  C21819488   0.609   6.129   8.410 -0.3036  1.0391  0.0491
  172SOPE  H18R19489   0.539   6.089   8.487 -0.6262  1.3812 -0.0661
  172SOPE  H18S19490   0.566   6.227   8.381 -2.0629  0.7349  1.5483
  172SOPE  H18T19491   0.710   6.147   8.453 -1.1426 -0.1731  2.6253
  172SOPE   C3319492   0.491   6.344   7.160  0.1090 -0.5001  0.2858
  172SOPE   H3X19493   0.602   6.345   7.153  0.1870  1.8928  1.6134
  172SOPE   H3Y19494   0.468   6.243   7.119  0.6239  0.1075 -1.5480
  172SOPE   C3419495   0.471   6.337   7.311  0.1472 -0.6443 -0.1342
  172SOPE   H4X19496   0.364   6.312   7.328  0.4427 -2.3854 -0.6667
  172SOPE   H4Y19497   0.488   6.437   7.354  1.0728 -0.5965 -0.5983
  172SOPE   C3519498   0.548   6.223   7.378  0.6156 -0.0689  0.5247
  172SOPE   H5X19499   0.654   6.253   7.395  0.9394 -0.7850 -0.1872
  172SOPE   H5Y19500   0.571   6.148   7.299  0.3743  0.1117  0.2823
  172SOPE   C3619501   0.497   6.160   7.511  0.1830  0.7153  0.5257
  172SOPE   H6X19502   0.577   6.092   7.548  0.4214  1.0088  0.5470
  172SOPE   H6Y19503   0.410   6.094   7.488  0.6614  0.1060  0.4502
  172SOPE   C3719504   0.488   6.268   7.620 -0.7972  0.2263 -0.5105
  172SOPE   H7X19505   0.389   6.318   7.621 -1.4033 -0.9449  1.5328
  172SOPE   H7Y19506   0.568   6.344   7.609 -1.5468  0.7772 -2.3501
  172SOPE   C3819507   0.496   6.221   7.769  0.3721 -0.1948 -0.0579
  172SOPE   H8X19508   0.592   6.169   7.789  0.4232  0.0929  0.4592
  172SOPE   H8Y19509   0.414   6.147   7.777  0.3938 -0.4396 -1.8588
  172SOPE   C3919510   0.475   6.346   7.867 -0.3821  0.3416  0.2979
  172SOPE   H9X19511   0.372   6.382   7.847 -1.2976 -1.3274  1.8996
  172SOPE   H9Y19512   0.549   6.422   7.832  0.6992 -1.2421 -0.9289
  172SOPE  C31019513   0.497   6.296   8.013  0.0505 -0.2548  0.2648
  172SOPE  H10X19514   0.586   6.230   8.014  0.8545  0.7896 -0.9178
  172SOPE  H10Y19515   0.400   6.250   8.042  0.1638 -1.4440 -1.1863
  172SOPE  C31119516   0.526   6.409   8.111 -0.2904  0.4960 -0.3075
  172SOPE  H11X19517   0.493   6.384   8.215  3.3468  0.3599  0.8907
  172SOPE  H11Y19518   0.482   6.507   8.082 -2.0948  0.3200  1.7055
  172SOPE  C31219519   0.681   6.423   8.120 -0.7681 -0.7054  0.2450
  172SOPE  H12X19520   0.724   6.413   8.018  0.7234 -0.7810  0.8676
  172SOPE  H12Y19521   0.714   6.340   8.187 -3.6072 -1.2551  1.0463
  172SOPE  C31319522   0.709   6.557   8.186 -0.5588  0.1751 -0.2575
  172SOPE  H13X19523   0.669   6.563   8.289  1.2658 -1.2377  0.5589
  172SOPE  H13Y19524   0.663   6.638   8.125  0.2648 -0.1448 -1.3284
  172SOPE  C31419525   0.854   6.587   8.215 -0.0569  0.7646  0.5134
  172SOPE  H14X19526   0.902   6.592   8.115  0.0883 -2.1899  0.3993
  172SOPE  H14Y19527   0.903   6.500   8.263  1.2069 -0.1586 -2.3510
  172SOPE  C31519528   0.885   6.718   8.286 -0.0977 -1.2154 -0.7848
  172SOPE  H15X19529   0.814   6.786   8.234  0.2395 -0.4133 -0.2214
  172SOPE  H15Y19530   0.988   6.754   8.265 -1.5185  2.7714 -1.3331
  172SOPE  C31619531   0.868   6.719   8.442 -0.3697 -0.3213  0.2665
  172SOPE  H16X19532   0.950   6.655   8.480 -1.4937 -1.4401  0.8280
  172SOPE  H16Y19533   0.771   6.677   8.474  1.0657 -3.0087  1.2270
  172SOPE  C31719534   0.872   6.853   8.512 -0.3250  0.1917 -0.0429
  172SOPE  H17X19535   0.773   6.903   8.506  0.7991  2.3020 -1.9178
  172SOPE  H17Y19536   0.949   6.913   8.460  0.9197  0.2919  1.8523
  172SOPE  C31819537   0.912   6.838   8.654 -0.2434 -0.2395 -0.0143
  172SOPE  H18X19538   0.844   6.766   8.704  1.8135 -1.7277  0.7190
  172SOPE  H18Y19539   0.915   6.933   8.710  0.7250 -0.2065 -0.1187
  172SOPE  H18Z19540   1.014   6.796   8.670 -0.0447 -0.7761 -2.5281
  173SAPI   C1219541   3.198   3.148  10.813  0.4987 -0.2386 -0.4880
  173SAPI    H219542   3.133   3.069  10.767  1.1293 -1.2892  0.4243
  173SAPI    O219543   3.251   3.076  10.927 -0.1419  0.2884  0.4791
  173SAPI   HO219544   3.188   3.009  10.952 -1.7778  0.1867 -3.5841
  173SAPI   C1319545   3.306   3.192  10.722 -0.3292  0.6838  0.1048
  173SAPI    H319546   3.267   3.239  10.629  0.9037 -0.3287 -0.9358
  173SAPI    O319547   3.370   3.073  10.664  0.7925 -0.1197  0.3931
  173SAPI   HO319548   3.392   3.015  10.737  1.7469  1.9309  1.8115
  173SAPI   C1419549   3.409   3.273  10.799  0.3014 -0.4230  0.4226
  173SAPI    H419550   3.455   3.217  10.883  1.6135  0.0221  0.0119
  173SAPI    O419551   3.517   3.320  10.715 -0.2318  0.2752  0.0848
  173SAPI   HO419552   3.482   3.372  10.642  0.3403 -1.9290 -1.7979
  173SAPI   C1519553   3.340   3.397  10.865 -0.3992 -0.1289  0.4990
  173SAPI    H519554   3.302   3.455  10.778  2.1634 -0.6818 -1.0446
  173SAPI    O519555   3.425   3.491  10.930 -0.1721 -0.6211 -0.1545
  173SAPI   HO519556   3.448   3.445  11.011  0.6749  0.1521  0.0467
  173SAPI   C1619557   3.216   3.365  10.944 -0.3108  0.1716  0.0208
  173SAPI    H619558   3.252   3.313  11.036  0.3387  0.5183 -0.0362
  173SAPI    O619559   3.149   3.477  10.990  0.1090  0.0592  0.4311
  173SAPI   HO619560   3.063   3.453  11.025 -0.3785  0.6038 -0.3782
  173SAPI   C1119561   3.123   3.273  10.858  0.1563 -0.7277  0.3390
  173SAPI    H119562   3.100   3.317  10.758 -1.0342 -0.5685  0.6729
  173SAPI     P19563   2.856   3.298  10.881 -0.1032  0.2073  0.0010
  173SAPI   O1319564   2.883   3.439  10.852  0.4811 -0.4835  0.5055
  173SAPI   O1419565   2.756   3.274  10.991  0.6869  0.0249 -0.1620
  173SAPI   O1219566   3.002   3.230  10.924  0.7652 -0.1458 -0.2189
  173SAPI   O1119567   2.809   3.211  10.753  0.1951 -0.5457 -0.2319
  173SAPI    C119568   2.821   3.070  10.734  0.1887 -0.2465 -0.0698
  173SAPI    HA19569   2.921   3.032  10.767 -0.5566 -0.4039  2.1130
  173SAPI    HB19570   2.746   3.026  10.802 -0.6119  2.1390  0.6258
  173SAPI    C219571   2.814   3.051  10.584 -0.0308 -0.0600 -0.7359
  173SAPI    HS19572   2.815   2.941  10.568  0.2168 -0.1008 -0.4458
  173SAPI   O2119573   2.909   3.121  10.517 -0.2562  0.7423  0.0717
  173SAPI   C2119574   3.022   3.069  10.481 -0.7819  0.2395 -0.4875
  173SAPI   O2219575   3.057   2.961  10.516  0.5587 -0.2155  0.2460
  173SAPI   C2219576   3.079   3.156  10.375 -0.8101  1.2153 -0.7585
  173SAPI   H2R19577   2.995   3.206  10.321 -1.4268  0.3410 -0.6269
  173SAPI   H2S19578   3.134   3.239  10.425 -0.4003  0.1130  0.6437
  173SAPI    C319579   2.668   3.100  10.534 -0.1496  0.2670  0.2621
  173SAPI    HX19580   2.673   3.208  10.560  0.4002 -0.0597  1.5449
  173SAPI    HY19581   2.584   3.054  10.589 -2.1146  1.2485 -1.8491
  173SAPI   O3119582   2.656   3.089  10.394 -0.0092  0.4547 -0.0001
  173SAPI   C3119583   2.637   2.964  10.350 -0.0266  0.5015  0.1941
  173SAPI   O3219584   2.646   2.868  10.424  0.2718 -0.1690 -0.1916
  173SAPI   C3219585   2.595   2.955  10.204  0.3978 -0.0234 -0.7203
  173SAPI   H2X19586   2.626   3.046  10.149  1.8641 -0.7276 -1.0957
  173SAPI   H2Y19587   2.484   2.960  10.202  0.3827 -0.3591 -0.7284
  173SAPI   C2319588   3.185   3.085  10.288  0.3293  0.2859 -0.2711
  173SAPI   H3R19589   3.277   3.058  10.345  0.1304 -0.9154 -0.5217
  173SAPI   H3S19590   3.222   3.150  10.205  0.2481  0.0372 -0.5011
  173SAPI   C2419591   3.135   2.961  10.210  0.2518 -0.6941 -0.1784
  173SAPI   H4R19592   3.100   2.882  10.279 -1.5029  0.3773  0.1751
  173SAPI   H4S19593   3.221   2.918  10.154 -0.1727 -0.9777 -0.6054
  173SAPI   C2519594   3.028   3.017  10.114 -0.0345  0.1953  0.6085
  173SAPI   H5R19595   2.935   3.037  10.169 -0.2367  1.6633 -0.2492
  173SAPI   C2619596   3.045   3.068   9.990  1.4689  0.3793 -0.5845
  173SAPI   H6R19597   2.957   3.087   9.926  0.0635  1.0600  1.5015
  173SAPI   C2719598   3.181   3.077   9.917 -0.1910 -0.1536 -0.7162
  173SAPI   H7R19599   3.195   2.995   9.843  0.6240 -1.1900  0.5710
  173SAPI   H7S19600   3.271   3.056   9.979  0.6103 -0.0855 -1.8335
  173SAPI   C2819601   3.189   3.208   9.831 -0.5587 -0.0189 -0.1841
  173SAPI   H8R19602   3.267   3.274   9.872  0.8267  0.0782 -2.8574
  173SAPI   C2919603   3.132   3.240   9.714 -0.5233  0.9601  0.4953
  173SAPI   H9R19604   3.150   3.340   9.673 -1.1821  1.1421  0.6406
  173SAPI  C21019605   3.045   3.154   9.630  0.3064  0.8068 -0.1459
  173SAPI  H10R19606   2.937   3.170   9.651 -0.1662  0.1981 -1.9945
  173SAPI  H10S19607   3.070   3.048   9.651 -0.2689  0.5226 -0.8352
  173SAPI  C21119608   3.052   3.184   9.480 -0.3765  0.6663 -0.4922
  173SAPI  H11R19609   2.976   3.256   9.445  1.2412  1.5534 -2.2931
  173SAPI  C21219610   3.153   3.156   9.396 -0.0180 -0.2384 -0.1843
  173SAPI  H12R19611   3.132   3.175   9.290  3.0590 -0.9829 -0.9767
  173SAPI  C21319612   3.282   3.085   9.419  0.2147 -0.0087  0.1781
  173SAPI  H13R19613   3.289   2.988   9.367  0.0618 -0.2192  0.5481
  173SAPI  H13S19614   3.304   3.070   9.527  1.3499  1.0051  0.1006
  173SAPI  C21419615   3.392   3.173   9.362 -0.5429  0.4190 -0.7391
  173SAPI  H14R19616   3.416   3.256   9.430  1.0372 -2.3522  2.2372
  173SAPI  C21519617   3.458   3.153   9.244  0.0359  0.3505  0.2301
  173SAPI  H15R19618   3.532   3.229   9.216  2.6347 -2.4718 -0.8818
  173SAPI  C21619619   3.428   3.046   9.138 -0.2697  0.2487  0.1529
  173SAPI  H16R19620   3.343   2.978   9.161  0.2300  0.5167  3.0347
  173SAPI  H16S19621   3.520   2.985   9.131  0.8573  1.3956  3.6885
  173SAPI  C21719622   3.387   3.109   9.002 -0.6674 -0.4218  0.0920
  173SAPI  H17R19623   3.419   3.215   8.989  0.5231 -0.8630 -0.6774
  173SAPI  H17S19624   3.276   3.100   8.996 -0.8234  0.3940  1.5973
  173SAPI  C21819625   3.444   3.022   8.890  0.2952  0.4877  0.6689
  173SAPI  H18R19626   3.390   3.060   8.801 -3.0318  0.6035  2.6567
  173SAPI  H18S19627   3.409   2.917   8.882  1.8080 -0.1923  2.5754
  173SAPI  C21919628   3.593   3.023   8.861 -0.1210 -0.3475 -0.1965
  173SAPI  H19R19629   3.618   2.958   8.774 -3.6197 -1.4427 -0.4513
  173SAPI  H19S19630   3.641   2.968   8.945  2.0202  1.5353 -0.1261
  173SAPI  C22019631   3.662   3.162   8.841 -0.1691  0.1230 -0.4255
  173SAPI  H20R19632   3.772   3.161   8.832 -0.1158  1.7941 -0.0342
  173SAPI  H20S19633   3.639   3.232   8.924  0.3788 -1.0475  0.7289
  173SAPI  H20T19634   3.634   3.213   8.746 -0.8841 -3.2310 -2.1246
  173SAPI   C3319635   2.661   2.841  10.126  0.6975  0.3021  0.2518
  173SAPI   H3X19636   2.618   2.741  10.149  1.6158  0.2825  2.0030
  173SAPI   H3Y19637   2.770   2.840  10.148  0.7656 -1.5142 -0.1616
  173SAPI   C3419638   2.638   2.850   9.977  0.7414 -0.2226 -0.2167
  173SAPI   H4X19639   2.653   2.958   9.956 -0.9330 -0.0502 -0.5881
  173SAPI   H4Y19640   2.535   2.825   9.942  1.1691 -0.3876 -1.3759
  173SAPI   C3519641   2.743   2.779   9.888 -0.2465  0.2664 -0.1104
  173SAPI   H5X19642   2.736   2.670   9.906 -0.0427  0.2700 -0.0106
  173SAPI   H5Y19643   2.843   2.824   9.906 -0.4283  1.0022 -0.9162
  173SAPI   C3619644   2.703   2.811   9.743 -0.0589  0.6924  0.1508
  173SAPI   H6X19645   2.644   2.904   9.736 -1.1831  0.0300  0.6858
  173SAPI   H6Y19646   2.639   2.729   9.702  1.0241 -0.5858  0.9487
  173SAPI   C3719647   2.826   2.831   9.644  0.5140 -0.3038 -0.1888
  173SAPI   H7X19648   2.897   2.746   9.650 -0.3661 -0.9874  0.7523
  173SAPI   H7Y19649   2.868   2.926   9.684  0.4031  1.0973 -3.2693
  173SAPI   C3819650   2.773   2.846   9.499 -0.8782 -1.1460  0.7789
  173SAPI   H8X19651   2.718   2.942   9.491  1.6702  0.1800 -2.1675
  173SAPI   H8Y19652   2.710   2.763   9.460  0.5334 -1.7143 -0.3935
  173SAPI   C3919653   2.887   2.861   9.396 -0.2995 -0.2958  0.6903
  173SAPI   H9X19654   2.967   2.933   9.424 -0.1332  0.6015 -1.9343
  173SAPI   H9Y19655   2.847   2.895   9.298 -0.3249  0.9902  1.1352
  173SAPI  C31019656   2.952   2.719   9.354  0.1567 -0.4344  0.3540
  173SAPI  H10X19657   2.859   2.657   9.355 -1.1833  1.5106 -0.3299
  173SAPI  H10Y19658   3.030   2.689   9.427 -2.3745 -1.4532  2.7315
  173SAPI  C31119659   3.009   2.716   9.211 -0.3063 -0.1644  0.1754
  173SAPI  H11X19660   3.114   2.750   9.214  0.6166 -2.5695 -2.4638
  173SAPI  H11Y19661   2.942   2.775   9.145 -0.6348 -1.8077 -1.0165
  173SAPI  C31219662   3.011   2.574   9.151  0.4152  0.4023  0.0455
  173SAPI  H12X19663   2.906   2.545   9.127 -0.1689  2.1182  0.4322
  173SAPI  H12Y19664   3.062   2.501   9.217  1.0435 -0.8012 -1.7302
  173SAPI  C31319665   3.097   2.574   9.027 -0.0053  0.5284 -0.3049
  173SAPI  H13X19666   3.205   2.563   9.054  0.4134 -0.5624 -2.3606
  173SAPI  H13Y19667   3.082   2.660   8.959  0.7034  1.3007  0.4893
  173SAPI  C31419668   3.074   2.436   8.959 -0.2154 -0.2346  1.1781
  173SAPI  H14X19669   2.967   2.438   8.930  0.5278 -1.4059 -1.7680
  173SAPI  H14Y19670   3.104   2.352   9.025  0.6857 -1.1953 -0.4286
  173SAPI  C31519671   3.148   2.429   8.826 -0.0125  0.0607 -0.5388
  173SAPI  H15X19672   3.252   2.417   8.861 -1.0700 -0.6829  2.5376
  173SAPI  H15Y19673   3.153   2.524   8.770  0.2539  2.0980  2.8268
  173SAPI  C31619674   3.102   2.301   8.748 -0.6300  0.2523 -0.5878
  173SAPI  H16X19675   2.992   2.301   8.727 -1.2176  1.0122  2.2854
  173SAPI  H16Y19676   3.123   2.216   8.817  4.3057  1.1640 -0.8011
  173SAPI  C31719677   3.173   2.275   8.616  0.5546  0.2844 -0.0751
  173SAPI  H17X19678   3.274   2.235   8.638  0.6776  0.4471 -0.3276
  173SAPI  H17Y19679   3.185   2.369   8.557 -1.2156  0.6435  0.1153
  173SAPI  C31819680   3.088   2.180   8.537 -0.6034 -0.0020 -0.8462
  173SAPI  H18X19681   2.984   2.217   8.540 -1.4365 -2.4172  2.0647
  173SAPI  H18Y19682   3.101   2.082   8.588  0.3095  0.4034 -0.2775
  173SAPI  H18Z19683   3.128   2.182   8.433 -0.4739  0.0198 -0.7967
  174SAPI   C1219684   5.563   4.215  10.706 -0.2557  0.0665  0.1174
  174SAPI    H219685   5.646   4.158  10.657 -1.5201  0.2332 -2.2660
  174SAPI    O219686   5.489   4.294  10.609 -0.1517  0.8886 -0.0242
  174SAPI   HO219687   5.544   4.366  10.578 -1.6470  1.0746 -2.3147
  174SAPI   C1319688   5.470   4.110  10.776  0.0134 -0.0628 -0.2104
  174SAPI    H319689   5.531   4.052  10.848  1.3032  1.6666  0.1256
  174SAPI    O319690   5.422   4.004  10.694 -0.5251  0.0125 -0.2718
  174SAPI   HO319691   5.377   4.045  10.620 -0.8038 -0.1133 -0.1735
  174SAPI   C1419692   5.352   4.182  10.844 -0.3328  0.3184 -0.0129
  174SAPI    H419693   5.299   4.245  10.769 -0.6464 -0.5076 -0.4950
  174SAPI    O419694   5.264   4.091  10.906 -0.0258  0.1745  0.1107
  174SAPI   HO419695   5.199   4.083  10.836 -1.7130 -0.0034  1.6703
  174SAPI   C1519696   5.406   4.282  10.950  0.4487  0.2316 -0.2566
  174SAPI    H519697   5.469   4.234  11.028  1.9817  1.0704 -0.9451
  174SAPI    O519698   5.306   4.353  11.017 -0.7003  0.4402  0.5171
  174SAPI   HO519699   5.307   4.438  10.974  1.5139  0.0753 -0.2449
  174SAPI   C1619700   5.508   4.384  10.885 -0.4055  0.0661 -0.0016
  174SAPI    H619701   5.451   4.445  10.811  0.6251  1.9902  0.7716
  174SAPI    O619702   5.559   4.475  10.985  0.3483 -0.2111  0.0002
  174SAPI   HO619703   5.498   4.549  10.994 -0.8158 -1.1514  0.0568
  174SAPI   C1119704   5.623   4.309  10.809  0.5860  0.0022 -0.1948
  174SAPI    H119705   5.674   4.249  10.887 -0.3955 -0.9971 -0.3096
  174SAPI     P19706   5.840   4.455  10.789  0.1330 -0.5774  0.1441
  174SAPI   O1319707   5.853   4.437  10.935 -0.3359 -0.3426 -0.1338
  174SAPI   O1419708   5.859   4.592  10.738  0.3229 -0.4761 -0.1162
  174SAPI   O1219709   5.704   4.402  10.736 -0.0222  0.5774 -0.0179
  174SAPI   O1119710   5.935   4.355  10.716 -0.4492  0.1423 -0.6371
  174SAPI    C119711   6.078   4.378  10.714  0.1418  0.1961 -0.2144
  174SAPI    HA19712   6.111   4.403  10.817  1.0534  1.9331 -0.9141
  174SAPI    HB19713   6.127   4.279  10.698 -0.6205 -0.1966 -0.1626
  174SAPI    C219714   6.131   4.468  10.607 -0.0581 -0.2375 -0.2319
  174SAPI    HS19715   6.066   4.558  10.611  1.6559  1.2499 -3.5618
  174SAPI   O2119716   6.118   4.396  10.483  0.2964 -0.3623  0.6711
  174SAPI   C2119717   6.077   4.468  10.382  0.2230  0.3788  0.3037
  174SAPI   O2219718   6.038   4.581  10.387 -0.2605 -0.5178 -0.1745
  174SAPI   C2219719   6.107   4.393  10.255 -0.6692 -0.7235 -0.1367
  174SAPI   H2R19720   6.186   4.318  10.274  1.2483  1.5071  0.9465
  174SAPI   H2S19721   6.013   4.335  10.243 -0.2426 -1.1631 -1.3829
  174SAPI    C319722   6.271   4.517  10.631 -0.2091 -0.5757  0.0631
  174SAPI    HX19723   6.338   4.428  10.625  0.3411 -0.1648  0.1501
  174SAPI    HY19724   6.269   4.549  10.737 -3.7392  3.1515 -0.9998
  174SAPI   O3119725   6.321   4.612  10.542 -0.5847  0.5160 -0.0463
  174SAPI   C3119726   6.318   4.741  10.584  0.7932 -0.1121  0.3415
  174SAPI   O3219727   6.292   4.777  10.697 -0.0206 -0.2605  0.2009
  174SAPI   C3219728   6.356   4.844  10.469  0.6884 -0.0569  0.3699
  174SAPI   H2X19729   6.465   4.865  10.470  0.0278  4.1252 -2.5514
  174SAPI   H2Y19730   6.306   4.937  10.504  0.4915 -0.5095  1.3193
  174SAPI   C2319731   6.128   4.487  10.131 -0.1430 -0.5914 -0.6303
  174SAPI   H3R19732   6.207   4.564  10.140 -0.5811  0.1627 -2.9382
  174SAPI   H3S19733   6.039   4.545  10.097 -0.7862 -0.5903  1.0231
  174SAPI   C2419734   6.182   4.404  10.009 -0.4733  0.2105  0.3333
  174SAPI   H4R19735   6.163   4.445   9.908 -0.1117 -1.4057 -0.4045
  174SAPI   H4S19736   6.126   4.307  10.009  0.3553 -0.3255  3.9475
  174SAPI   C2519737   6.327   4.366  10.039 -0.0724  0.3346  0.0706
  174SAPI   H5R19738   6.339   4.299  10.125 -0.2707 -0.7458 -0.7355
  174SAPI   C2619739   6.439   4.393   9.967 -0.2099  0.1911 -0.0408
  174SAPI   H6R19740   6.531   4.348  10.007  0.6388  1.8541 -0.0647
  174SAPI   C2719741   6.449   4.463   9.841 -0.4935 -0.4457 -0.5848
  174SAPI   H7R19742   6.502   4.559   9.860 -2.2725  0.7417 -1.4605
  174SAPI   H7S19743   6.352   4.509   9.815 -2.4160 -2.2980  2.9584
  174SAPI   C2819744   6.515   4.380   9.732  0.0823 -0.2894  0.3746
  174SAPI   H8R19745   6.568   4.288   9.763  1.9974  0.3204 -0.9542
  174SAPI   C2919746   6.518   4.397   9.602 -0.0276  0.0417  0.1784
  174SAPI   H9R19747   6.555   4.313   9.541  2.5661 -0.3690  2.2668
  174SAPI  C21019748   6.452   4.507   9.525  0.2129 -0.1972 -0.3395
  174SAPI  H10R19749   6.519   4.545   9.445 -0.3139  0.4140 -0.4934
  174SAPI  H10S19750   6.429   4.590   9.596  0.6705  1.4405 -2.0404
  174SAPI  C21119751   6.323   4.463   9.456  0.1509 -0.0158 -0.4500
  174SAPI  H11R19752   6.245   4.450   9.532 -0.4738 -0.1281 -1.1078
  174SAPI  C21219753   6.298   4.430   9.323 -0.1446  0.0999 -0.2912
  174SAPI  H12R19754   6.197   4.407   9.286 -0.3672  0.6597 -0.0302
  174SAPI  C21319755   6.404   4.421   9.217  0.0545 -0.2175 -0.1723
  174SAPI  H13R19756   6.461   4.326   9.226 -0.2389 -0.2704  1.2582
  174SAPI  H13S19757   6.489   4.489   9.238  0.8640 -0.4557 -2.5088
  174SAPI  C21419758   6.350   4.424   9.075  0.4524 -0.4707 -0.1661
  174SAPI  H14R19759   6.263   4.487   9.052 -0.3796  0.0196  3.9685
  174SAPI  C21519760   6.417   4.371   8.973 -0.1952 -0.2847  0.2814
  174SAPI  H15R19761   6.392   4.401   8.870  2.1605 -0.7022 -0.4308
  174SAPI  C21619762   6.539   4.290   8.976  0.1870  0.5825 -0.1978
  174SAPI  H16R19763   6.582   4.282   9.079 -0.9680 -1.6349  0.1378
  174SAPI  H16S19764   6.617   4.327   8.906  0.0381 -0.6714 -1.0328
  174SAPI  C21719765   6.506   4.140   8.927 -0.5407 -0.1932 -0.4148
  174SAPI  H17R19766   6.412   4.112   8.980 -1.1087  0.2343 -1.1915
  174SAPI  H17S19767   6.588   4.073   8.960 -1.0746 -1.0247 -0.7477
  174SAPI  C21819768   6.479   4.138   8.775  0.4802 -0.5257  0.3175
  174SAPI  H18R19769   6.575   4.130   8.719 -0.0851  0.1435 -0.7523
  174SAPI  H18S19770   6.420   4.225   8.741 -0.2582 -0.9889  0.4003
  174SAPI  C21919771   6.412   4.005   8.741 -0.1881  0.8368  0.1444
  174SAPI  H19R19772   6.315   4.000   8.795 -0.1929 -0.6411  0.0257
  174SAPI  H19S19773   6.474   3.924   8.786 -3.5554 -1.9389  0.0076
  174SAPI  C22019774   6.394   3.968   8.593  0.1682 -0.2565 -0.3708
  174SAPI  H20R19775   6.489   3.935   8.544  1.1203 -1.1447  1.9674
  174SAPI  H20S19776   6.355   4.061   8.547  1.2733  0.8403  0.8763
  174SAPI  H20T19777   6.311   3.895   8.579 -2.3630  2.6756 -1.0222
  174SAPI   C3319778   6.304   4.801  10.328 -0.0419  0.6877 -0.1151
  174SAPI   H3X19779   6.195   4.781  10.333  0.0673  0.7285  2.6715
  174SAPI   H3Y19780   6.343   4.697  10.314  0.1031  0.3905  2.3095
  174SAPI   C3419781   6.343   4.898  10.218  0.0829  0.3603 -0.1389
  174SAPI   H4X19782   6.453   4.914  10.223 -0.1111  0.9847  2.6140
  174SAPI   H4Y19783   6.295   4.995  10.245 -0.4641 -0.3390  1.4257
  174SAPI   C3519784   6.312   4.843  10.079 -0.1248  0.1278 -0.8698
  174SAPI   H5X19785   6.202   4.829  10.074 -0.0680 -0.2464 -1.0841
  174SAPI   H5Y19786   6.356   4.742  10.065  0.8108  0.8081 -3.1620
  174SAPI   C3619787   6.365   4.930   9.966 -0.0196 -0.0304 -0.1150
  174SAPI   H6X19788   6.474   4.929   9.986  0.2303 -0.3041 -1.4238
  174SAPI   H6Y19789   6.326   5.034   9.969  0.8209  0.3109 -1.0194
  174SAPI   C3719790   6.342   4.866   9.825 -0.4270  0.0779  0.3976
  174SAPI   H7X19791   6.236   4.842   9.801 -0.9171  2.1878  0.3530
  174SAPI   H7Y19792   6.392   4.767   9.817  1.0782  0.6780  2.2765
  174SAPI   C3819793   6.398   4.961   9.716 -0.3844  0.2282  0.1586
  174SAPI   H8X19794   6.485   5.011   9.762 -0.7411 -0.7536  1.9467
  174SAPI   H8Y19795   6.321   5.037   9.690 -1.7686 -1.1835  0.0297
  174SAPI   C3919796   6.438   4.879   9.586  0.6564 -0.1751 -0.6618
  174SAPI   H9X19797   6.352   4.814   9.558 -0.9127  1.4411  0.2926
  174SAPI   H9Y19798   6.521   4.813   9.619  1.6417  1.5312  0.3542
  174SAPI  C31019799   6.479   4.980   9.475  0.1561  0.7124 -0.6442
  174SAPI  H10X19800   6.557   5.053   9.506  0.3856  0.4455 -0.5893
  174SAPI  H10Y19801   6.393   5.041   9.442 -0.6970 -0.1734 -0.1038
  174SAPI  C31119802   6.552   4.906   9.353 -0.5434 -0.8368 -0.0284
  174SAPI  H11X19803   6.480   4.831   9.313 -2.3679  0.8101  0.0918
  174SAPI  H11Y19804   6.635   4.848   9.399 -0.0231  0.5190  0.7482
  174SAPI  C31219805   6.600   5.002   9.241 -0.1683  0.0352  0.0477
  174SAPI  H12X19806   6.653   4.936   9.169 -0.9124  0.5513 -1.0044
  174SAPI  H12Y19807   6.659   5.083   9.288 -0.0372 -1.1382  1.9541
  174SAPI  C31319808   6.492   5.058   9.149  0.2113  1.3590 -0.4255
  174SAPI  H13X19809   6.416   5.111   9.210 -1.5970  0.0433 -1.5130
  174SAPI  H13Y19810   6.442   4.974   9.098 -1.3436  2.3036 -0.4853
  174SAPI  C31419811   6.551   5.155   9.047 -0.6024  0.5592  0.3628
  174SAPI  H14X19812   6.639   5.117   8.991  1.4038  0.5831  3.4080
  174SAPI  H14Y19813   6.577   5.237   9.117 -0.8115  0.5256  0.4799
  174SAPI  C31519814   6.456   5.189   8.933 -0.0121 -0.0866  0.2072
  174SAPI  H15X19815   6.380   5.257   8.977  2.0559  0.6571  2.8021
  174SAPI  H15Y19816   6.410   5.095   8.898 -2.4631  1.3187 -0.4587
  174SAPI  C31619817   6.525   5.260   8.815  0.0398 -0.2861  0.3798
  174SAPI  H16X19818   6.629   5.221   8.815  0.5185  0.9744  1.2601
  174SAPI  H16Y19819   6.524   5.365   8.849  2.6499 -0.7668  2.0517
  174SAPI  C31719820   6.453   5.246   8.676 -0.2242  0.0746 -0.8817
  174SAPI  H17X19821   6.479   5.341   8.624  3.8947 -0.3020  0.3062
  174SAPI  H17Y19822   6.342   5.245   8.688 -0.2632  0.5455 -1.1939
  174SAPI  C31819823   6.510   5.128   8.598  0.6242 -0.5455 -0.1727
  174SAPI  H18X19824   6.494   5.035   8.657  4.1920 -0.0410  1.7346
  174SAPI  H18Y19825   6.620   5.137   8.592  0.5586  0.5228  0.0925
  174SAPI  H18Z19826   6.462   5.125   8.498  2.2098  4.3752 -1.1730
  175SAPI   C1219827   1.787   2.724   6.378 -0.0165  0.3475  0.8057
  175SAPI    H219828   1.816   2.781   6.468  2.7068  0.0916  0.1549
  175SAPI    O219829   1.863   2.768   6.264 -0.2053  0.2223  0.0249
  175SAPI   HO219830   1.812   2.802   6.190  1.8063  0.8141 -1.1152
  175SAPI   C1319831   1.812   2.575   6.406 -0.4959  0.2251  0.0665
  175SAPI    H319832   1.757   2.551   6.500  1.2272 -1.5432  0.6561
  175SAPI    O319833   1.943   2.553   6.429 -0.0138  0.1168  0.2750
  175SAPI   HO319834   1.958   2.459   6.436  0.7717  0.0312 -1.9584
  175SAPI   C1419835   1.763   2.496   6.289  0.1828 -0.3999  0.5261
  175SAPI    H419836   1.813   2.530   6.196 -0.1586 -2.0880 -0.2900
  175SAPI    O419837   1.792   2.358   6.303  0.0638  0.1591  0.2120
  175SAPI   HO419838   1.739   2.318   6.373  0.0162 -1.2325 -0.5932
  175SAPI   C1519839   1.616   2.532   6.256 -0.6519  0.2631 -0.4811
  175SAPI    H519840   1.561   2.492   6.344 -1.7808  1.0817 -0.8013
  175SAPI    O519841   1.583   2.457   6.142  0.1016  0.1427 -0.2077
  175SAPI   HO519842   1.528   2.381   6.164  3.0247 -2.0312 -0.0469
  175SAPI   C1619843   1.581   2.684   6.238 -0.5120 -0.3837  0.4868
  175SAPI    H619844   1.629   2.720   6.144 -1.0259 -0.6118  0.1381
  175SAPI    O619845   1.445   2.705   6.232  0.3892 -0.4790 -0.3230
  175SAPI   HO619846   1.423   2.720   6.324  0.3081 -0.8560 -0.2788
  175SAPI   C1119847   1.635   2.753   6.360 -0.5322 -0.2464 -0.1145
  175SAPI    H119848   1.591   2.702   6.449  1.4742  0.6129  1.4043
  175SAPI     P19849   1.550   2.973   6.477 -0.3976 -0.0310 -0.2664
  175SAPI   O1319850   1.431   2.908   6.521  0.8624  0.3123  0.0152
  175SAPI   O1419851   1.531   3.109   6.431 -0.5730 -0.6242 -0.0782
  175SAPI   O1219852   1.619   2.890   6.353 -0.1649 -0.0117  0.0983
  175SAPI   O1119853   1.667   2.958   6.588 -0.5560 -0.5617  0.1688
  175SAPI    C119854   1.792   3.031   6.559 -0.4032 -0.5244 -0.3013
  175SAPI    HA19855   1.873   2.963   6.595 -1.0462 -0.8512  0.5459
  175SAPI    HB19856   1.823   3.053   6.454 -1.6479 -2.3548 -1.0720
  175SAPI    C219857   1.812   3.164   6.644 -0.1346  0.4347  0.0225
  175SAPI    HS19858   1.920   3.162   6.670  0.4085  0.4209 -2.1731
  175SAPI   O2119859   1.725   3.160   6.759  0.4255  0.2368 -0.1111
  175SAPI   C2119860   1.776   3.087   6.861 -0.1515  0.2389 -0.2107
  175SAPI   O2219861   1.885   3.031   6.859  0.1020  0.1712  0.0585
  175SAPI   C2219862   1.692   3.097   6.984 -0.6144  0.1242  0.2132
  175SAPI   H2R19863   1.690   3.206   7.004  0.6497  0.1701  0.1314
  175SAPI   H2S19864   1.587   3.062   6.975 -0.9065  0.4289  2.1538
  175SAPI    C319865   1.771   3.286   6.569  0.3487  0.2109  0.4514
  175SAPI    HX19866   1.660   3.295   6.567  0.2843 -0.7171 -0.4819
  175SAPI    HY19867   1.798   3.284   6.462 -2.2737  0.0416 -0.2522
  175SAPI   O3119868   1.821   3.407   6.623  0.6865 -0.1639 -0.3198
  175SAPI   C3119869   1.948   3.436   6.588 -0.4046 -0.0828  0.4057
  175SAPI   O3219870   2.015   3.383   6.498  0.0533  0.0053 -0.4312
  175SAPI   C3219871   2.010   3.535   6.686  0.3336  0.3371 -0.6852
  175SAPI   H2X19872   1.939   3.589   6.753  0.8583 -0.6620  0.6681
  175SAPI   H2Y19873   2.058   3.618   6.629  0.6005  1.8632  1.7012
  175SAPI   C2319874   1.767   3.030   7.098 -0.4519 -0.5326  0.6017
  175SAPI   H3R19875   1.860   3.089   7.111 -1.8975  1.3660  2.7799
  175SAPI   H3S19876   1.794   2.927   7.067  0.3276  0.1410 -1.0800
  175SAPI   C2419877   1.680   3.028   7.231 -0.3298  0.2604  0.5706
  175SAPI   H4R19878   1.716   2.948   7.300 -1.5375 -0.2740  0.5860
  175SAPI   H4S19879   1.580   2.990   7.201  0.6372 -2.6777  0.8634
  175SAPI   C2519880   1.683   3.163   7.305 -1.0315  0.5098  1.0492
  175SAPI   H5R19881   1.626   3.241   7.251  1.8940  1.0196 -1.4120
  175SAPI   C2619882   1.755   3.187   7.417  0.0774  0.1055  0.2930
  175SAPI   H6R19883   1.754   3.291   7.453 -3.0849 -1.2687  4.6451
  175SAPI   C2719884   1.840   3.083   7.498 -0.5959 -0.8489  0.2705
  175SAPI   H7R19885   1.946   3.100   7.469 -0.3445 -1.3259  0.9065
  175SAPI   H7S19886   1.814   2.978   7.474  2.6968 -1.6625  0.0642
  175SAPI   C2819887   1.851   3.092   7.649  0.6016 -0.3172 -0.1345
  175SAPI   H8R19888   1.936   3.036   7.690  0.4457  0.1139  0.8054
  175SAPI   C2919889   1.778   3.157   7.743 -0.0183  0.4153  0.2111
  175SAPI   H9R19890   1.824   3.151   7.843  0.3324 -0.0222  0.0236
  175SAPI  C21019891   1.659   3.249   7.733  0.0930 -0.5247  0.6367
  175SAPI  H10R19892   1.593   3.230   7.821 -2.2648 -2.8349 -1.5154
  175SAPI  H10S19893   1.599   3.237   7.640 -0.3445  0.4187  0.7892
  175SAPI  C21119894   1.713   3.389   7.727  0.2995  0.1733 -0.2601
  175SAPI  H11R19895   1.773   3.420   7.640 -1.6874  0.8184 -1.4105
  175SAPI  C21219896   1.680   3.485   7.813 -0.8897 -0.2534 -0.3512
  175SAPI  H12R19897   1.728   3.584   7.808 -1.3265 -0.0072  0.1930
  175SAPI  C21319898   1.595   3.472   7.940 -0.3967 -0.3966 -0.1856
  175SAPI  H13R19899   1.633   3.553   8.007 -0.9924 -0.9933  0.8830
  175SAPI  H13S19900   1.624   3.382   7.998 -0.9325 -0.1274  0.5094
  175SAPI  C21419901   1.447   3.485   7.926 -0.7585  0.1242 -0.7418
  175SAPI  H14R19902   1.422   3.526   7.827  0.0493  0.4717 -0.8040
  175SAPI  C21519903   1.355   3.453   8.012 -0.1006  0.2302 -0.2585
  175SAPI  H15R19904   1.252   3.484   7.986  0.0059  1.5974  0.8702
  175SAPI  C21619905   1.373   3.399   8.152 -0.3050  0.1878  0.4505
  175SAPI  H16R19906   1.457   3.326   8.152 -1.9879 -1.8143 -0.8565
  175SAPI  H16S19907   1.281   3.340   8.175  0.7694 -1.5903  0.2784
  175SAPI  C21719908   1.392   3.517   8.251 -0.4137  0.8498  0.8651
  175SAPI  H17R19909   1.486   3.564   8.216  0.2551  0.0922  1.6325
  175SAPI  H17S19910   1.405   3.467   8.349  0.7011 -0.5193  0.0388
  175SAPI  C21819911   1.277   3.615   8.265  0.3252 -0.5475  0.0540
  175SAPI  H18R19912   1.181   3.564   8.284 -0.8614  1.1827 -1.1812
  175SAPI  H18S19913   1.264   3.673   8.171  0.6173  0.5403  0.6750
  175SAPI  C21919914   1.309   3.715   8.379  0.6117 -0.1010  0.1107
  175SAPI  H19R19915   1.404   3.769   8.356  0.6324 -0.1823  0.0058
  175SAPI  H19S19916   1.318   3.661   8.475  0.5866 -2.1621 -1.0244
  175SAPI  C22019917   1.205   3.824   8.400  0.0011  1.1372 -0.5827
  175SAPI  H20R19918   1.111   3.795   8.451 -0.0555 -1.1875 -1.8928
  175SAPI  H20S19919   1.181   3.875   8.304  2.5123 -1.3015 -2.6172
  175SAPI  H20T19920   1.243   3.895   8.476  0.3867 -1.2199  1.5088
  175SAPI   C3319921   2.112   3.468   6.781  0.1554  0.2288  0.0850
  175SAPI   H3X19922   2.167   3.552   6.829 -0.8646  1.1780 -0.3647
  175SAPI   H3Y19923   2.181   3.423   6.708  1.8736  1.6796  0.7823
  175SAPI   C3419924   2.073   3.372   6.894 -0.3545  0.6724 -0.1341
  175SAPI   H4X19925   2.167   3.321   6.925 -0.2530  1.3485  0.6924
  175SAPI   H4Y19926   2.014   3.301   6.832  0.2204  1.0884 -1.1508
  175SAPI   C3519927   1.991   3.426   7.005  0.1352 -0.6083 -0.0649
  175SAPI   H5X19928   1.883   3.432   6.978  0.5870  1.3962 -1.5070
  175SAPI   H5Y19929   2.023   3.531   7.019 -1.3730  0.0396 -1.2646
  175SAPI   C3619930   2.011   3.358   7.142  0.5672 -0.0227  0.2672
  175SAPI   H6X19931   2.009   3.248   7.127 -1.9094 -0.2018  1.6237
  175SAPI   H6Y19932   1.919   3.389   7.197 -1.2064  0.4015 -2.7768
  175SAPI   C3719933   2.141   3.398   7.224 -0.6583 -0.8043  0.2892
  175SAPI   H7X19934   2.149   3.508   7.239  2.9781 -1.1261  1.0847
  175SAPI   H7Y19935   2.237   3.368   7.177 -0.5073  1.5802 -0.9977
  175SAPI   C3819936   2.128   3.333   7.360 -1.0999  0.3148 -0.0170
  175SAPI   H8X19937   2.134   3.223   7.350  3.1908  0.3959  0.8313
  175SAPI   H8Y19938   2.029   3.359   7.403 -0.4447  3.2644 -0.1847
  175SAPI   C3919939   2.244   3.378   7.454  0.6831 -0.0148  0.3036
  175SAPI   H9X19940   2.255   3.488   7.443 -2.3630  0.3997  1.1585
  175SAPI   H9Y19941   2.339   3.330   7.420  0.0695 -1.1734  0.2193
  175SAPI  C31019942   2.210   3.345   7.603 -0.3380  0.1017  0.3602
  175SAPI  H10X19943   2.124   3.408   7.633  0.8790  2.8745 -1.6542
  175SAPI  H10Y19944   2.291   3.389   7.666  0.7300 -3.0420  1.2677
  175SAPI  C31119945   2.200   3.198   7.655 -0.2816  0.3400  0.5559
  175SAPI  H11X19946   2.304   3.164   7.633 -0.5789  0.4152 -1.0612
  175SAPI  H11Y19947   2.131   3.150   7.582  1.2135  0.7161 -1.1509
  175SAPI  C31219948   2.154   3.190   7.802 -1.0986  0.3272 -0.0110
  175SAPI  H12X19949   2.131   3.084   7.824  0.9099 -0.0363  0.4398
  175SAPI  H12Y19950   2.061   3.250   7.803 -1.5343 -0.3424 -0.3077
  175SAPI  C31319951   2.262   3.232   7.903  0.5311  0.5041  0.5565
  175SAPI  H13X19952   2.295   3.332   7.869  0.6535 -0.4750 -2.3094
  175SAPI  H13Y19953   2.344   3.157   7.895 -3.6016 -4.0843 -1.3552
  175SAPI  C31419954   2.197   3.238   8.044  0.4547 -0.9309 -0.6642
  175SAPI  H14X19955   2.189   3.136   8.088  0.3355 -0.0596  1.4236
  175SAPI  H14Y19956   2.098   3.288   8.038  2.0534  2.3580 -0.9309
  175SAPI  C31519957   2.271   3.329   8.152 -0.2633 -0.0601 -0.0117
  175SAPI  H15X19958   2.305   3.422   8.103 -0.8527  0.3064  0.2665
  175SAPI  H15Y19959   2.349   3.266   8.199  2.6899  2.6414 -1.1711
  175SAPI  C31619960   2.170   3.367   8.259  0.1904  0.0293  0.7056
  175SAPI  H16X19961   2.111   3.276   8.284  2.1497 -1.4002  0.1842
  175SAPI  H16Y19962   2.106   3.442   8.207 -1.6862 -2.5226 -0.8143
  175SAPI  C31719963   2.228   3.424   8.386  0.2504  0.0803 -0.5783
  175SAPI  H17X19964   2.269   3.527   8.380  0.6739  0.0294  1.0744
  175SAPI  H17Y19965   2.313   3.356   8.405  0.9725  0.6212 -1.8222
  175SAPI  C31819966   2.133   3.446   8.504  0.7223 -0.2103  0.2879
  175SAPI  H18X19967   2.119   3.355   8.566  2.4979 -1.3930 -1.0179
  175SAPI  H18Y19968   2.036   3.495   8.480  0.1308 -2.4247 -1.9459
  175SAPI  H18Z19969   2.182   3.515   8.576  2.3327  1.5152 -2.3768
  176SAPI   C1219970   0.727   1.868   6.698 -0.5391 -0.2765  0.1148
  176SAPI    H219971   0.812   1.797   6.708  0.5317  0.9105 -0.3852
  176SAPI    O219972   0.639   1.861   6.811  0.0805  0.1291 -0.6736
  176SAPI   HO219973   0.622   1.769   6.832 -1.3909 -0.3302 -3.6720
  176SAPI   C1319974   0.787   2.007   6.678  0.5809 -0.0232 -0.9568
  176SAPI    H319975   0.854   1.992   6.591  2.3359 -0.2095  0.3957
  176SAPI    O319976   0.865   2.033   6.791  0.1109  0.0653 -0.3377
  176SAPI   HO319977   0.853   2.124   6.817 -1.2514 -0.3626  0.5352
  176SAPI   C1419978   0.679   2.104   6.658 -0.7641 -0.2095 -0.2032
  176SAPI    H419979   0.604   2.087   6.739  0.8749 -3.5607  0.7035
  176SAPI    O419980   0.736   2.233   6.665  0.1092 -0.1011 -0.0537
  176SAPI   HO419981   0.667   2.299   6.675 -0.9353 -1.4315  1.9384
  176SAPI   C1519982   0.609   2.070   6.530 -0.0258 -0.0364  0.6042
  176SAPI    H519983   0.684   2.070   6.448 -2.8828 -1.1066 -2.0870
  176SAPI    O519984   0.505   2.161   6.488  0.2723 -0.1894  0.0210
  176SAPI   HO519985   0.458   2.127   6.412 -1.3778  1.6874  0.1692
  176SAPI   C1619986   0.553   1.926   6.531  0.1604 -0.7808  0.5364
  176SAPI    H619987   0.474   1.928   6.609  0.2220 -0.6969  0.5959
  176SAPI    O619988   0.495   1.892   6.403  0.4089 -0.1659  0.2822
  176SAPI   HO619989   0.538   1.942   6.334 -1.0732  0.8051  0.0497
  176SAPI   C1119990   0.660   1.824   6.562 -0.2676  0.6582 -1.0482
  176SAPI    H119991   0.738   1.838   6.485  0.6039 -1.7974 -0.6421
  176SAPI     P19992   0.714   1.561   6.533  0.3893  0.4083 -0.0745
  176SAPI   O1319993   0.847   1.615   6.481  0.3326  0.0549  0.3103
  176SAPI   O1419994   0.639   1.462   6.451 -0.4674  0.5063  0.3202
  176SAPI   O1219995   0.605   1.685   6.573 -0.2747 -0.1467 -0.0898
  176SAPI   O1119996   0.739   1.497   6.674  0.5058 -0.2833  0.5525
  176SAPI    C119997   0.656   1.394   6.730  0.1104 -0.1087 -0.0369
  176SAPI    HA19998   0.558   1.385   6.679  1.2568  1.2705 -2.6115
  176SAPI    HB19999   0.692   1.289   6.719 -2.2659 -1.0657  1.0422
  176SAPI    C220000   0.604   1.423   6.873 -0.0553  0.2774  0.0998
  176SAPI    HS20001   0.545   1.338   6.912  1.4414 -0.2477  1.2659
  176SAPI   O2120002   0.519   1.539   6.875 -0.4297 -0.0602 -0.4343
  176SAPI   C2120003   0.420   1.556   6.964 -0.5652  0.7441 -0.4327
  176SAPI   O2220004   0.385   1.469   7.041  0.0611  0.4145 -0.1744
  176SAPI   C2220005   0.373   1.700   6.964  0.0486  0.1159  0.3444
  176SAPI   H2R20006   0.415   1.754   7.051  2.8644 -0.8232 -0.3725
  176SAPI   H2S20007   0.403   1.747   6.867  1.2541 -2.1072 -0.4007
  176SAPI    C320008   0.734   1.439   6.962 -0.1328 -0.1023  0.4263
  176SAPI    HX20009   0.795   1.516   6.911  2.1975 -1.5659  0.9546
  176SAPI    HY20010   0.786   1.341   6.955  1.1108  0.4717  1.4468
  176SAPI   O3120011   0.712   1.484   7.099  0.1184 -0.0261  0.0567
  176SAPI   C3120012   0.666   1.393   7.182 -0.2455 -0.0087 -0.6407
  176SAPI   O3220013   0.656   1.273   7.163  0.0362  0.8460 -0.0802
  176SAPI   C3220014   0.654   1.452   7.319 -0.0333 -0.5218  0.7690
  176SAPI   H2X20015   0.572   1.527   7.319 -0.1160 -0.6014  2.3107
  176SAPI   H2Y20016   0.750   1.505   7.336  0.6067 -1.7423  1.1037
  176SAPI   C2320017   0.221   1.712   6.967 -0.5438  0.0136  0.5676
  176SAPI   H3R20018   0.182   1.625   7.022  0.6212 -0.9204 -0.0695
  176SAPI   H3S20019   0.180   1.688   6.866  1.5626  1.0303 -0.5671
  176SAPI   C2420020   0.165   1.847   7.017  0.0377  0.0260 -0.2012
  176SAPI   H4R20021   0.228   1.927   6.973 -1.3624  1.1219 -0.2397
  176SAPI   H4S20022   0.180   1.863   7.126  0.2226 -0.2120 -0.1915
  176SAPI   C2520023   0.024   1.865   6.976 -0.6381  0.1952 -0.3978
  176SAPI   H5R20024   0.009   1.878   6.868 -0.5948 -1.4681 -0.6145
  176SAPI   C2620025  -0.076   1.890   7.056 -0.1694 -0.0612 -0.4183
  176SAPI   H6R20026  -0.172   1.920   7.010  0.4284 -1.2484 -2.5035
  176SAPI   C2720027  -0.086   1.890   7.202 -0.2937 -0.1210  0.5767
  176SAPI   H7R20028  -0.177   1.945   7.235  0.9025  2.8250 -0.7928
  176SAPI   H7S20029   0.002   1.942   7.246  0.7807 -1.0109 -0.4957
  176SAPI   C2820030  -0.092   1.750   7.260 -0.9049 -0.5630  0.5225
  176SAPI   H8R20031  -0.037   1.682   7.193  1.3825  1.6846  0.0392
  176SAPI   C2920032  -0.141   1.713   7.375  0.1380  0.4371  0.7614
  176SAPI   H9R20033  -0.139   1.605   7.397  3.0150  0.2034 -0.4309
  176SAPI  C21020034  -0.207   1.796   7.485 -0.2570  0.1011 -0.7530
  176SAPI  H10R20035  -0.311   1.758   7.497 -0.4196  0.5553 -0.6733
  176SAPI  H10S20036  -0.210   1.904   7.458  2.3520  0.7865  1.4847
  176SAPI  C21120037  -0.132   1.780   7.609  0.3267  0.8619 -0.2400
  176SAPI  H11R20038  -0.058   1.860   7.627 -0.6673  1.2669  2.3277
  176SAPI  C21220039  -0.147   1.685   7.706 -0.9742  0.1177 -0.5425
  176SAPI  H12R20040  -0.093   1.707   7.799 -2.0694 -1.7395  0.5735
  176SAPI  C21320041  -0.242   1.573   7.708 -0.0673  0.6571 -0.6217
  176SAPI  H13R20042  -0.300   1.567   7.614  1.5939  2.0804 -1.7815
  176SAPI  H13S20043  -0.320   1.582   7.787  0.8682  2.3400  0.1393
  176SAPI  C21420044  -0.169   1.441   7.717 -0.3215  0.1919  0.2034
  176SAPI  H14R20045  -0.086   1.435   7.645 -1.0839  0.5859 -0.7079
  176SAPI  C21520046  -0.190   1.333   7.795  0.0261 -0.4798 -0.0913
  176SAPI  H15R20047  -0.145   1.234   7.775 -3.0055 -1.8290 -0.5046
  176SAPI  C21620048  -0.298   1.329   7.901  0.6256  0.1207  0.2573
  176SAPI  H16R20049  -0.322   1.222   7.918 -0.8002  0.4338  0.2907
  176SAPI  H16S20050  -0.392   1.365   7.854  0.2937  0.0178  0.8431
  176SAPI  C21720051  -0.273   1.411   8.029  0.6761  0.1086  0.1995
  176SAPI  H17R20052  -0.361   1.402   8.096 -0.7827  0.3200 -1.6561
  176SAPI  H17S20053  -0.259   1.520   8.013  0.4628 -0.0357 -1.0320
  176SAPI  C21820054  -0.151   1.363   8.116  0.2153  0.4492 -0.1046
  176SAPI  H18R20055  -0.133   1.448   8.185 -2.2187  0.6082  0.3771
  176SAPI  H18S20056  -0.060   1.344   8.056  1.1118  0.3829  1.2600
  176SAPI  C21920057  -0.164   1.232   8.196 -0.6622 -0.1803 -0.0283
  176SAPI  H19R20058  -0.176   1.150   8.121 -0.1273 -1.9423  1.7649
  176SAPI  H19S20059  -0.256   1.235   8.258 -0.4486  1.1962  0.2270
  176SAPI  C22020060  -0.040   1.188   8.268 -0.2323 -0.4733 -0.1601
  176SAPI  H20R20061  -0.046   1.081   8.298 -1.8099 -0.2307  0.4206
  176SAPI  H20S20062  -0.022   1.251   8.359  0.3511 -0.3799 -0.3397
  176SAPI  H20T20063   0.051   1.200   8.206 -1.4885  2.9922 -1.4650
  176SAPI   C3320064   0.622   1.343   7.423 -0.1459  0.3949 -0.0790
  176SAPI   H3X20065   0.678   1.247   7.418 -0.4239  0.3027 -1.7179
  176SAPI   H3Y20066   0.514   1.318   7.413  0.1580 -0.1167 -2.3409
  176SAPI   C3420067   0.637   1.396   7.567  0.2828  0.0664 -0.4613
  176SAPI   H4X20068   0.577   1.490   7.576  1.2122  0.5318  1.0960
  176SAPI   H4Y20069   0.744   1.413   7.591  1.3916 -2.3890 -3.3297
  176SAPI   C3520070   0.583   1.313   7.686  0.0487 -0.2501  0.3177
  176SAPI   H5X20071   0.587   1.207   7.652 -0.2155  0.3504 -1.5898
  176SAPI   H5Y20072   0.475   1.339   7.690 -0.2500 -1.5946  1.6513
  176SAPI   C3620073   0.658   1.322   7.822  0.7864 -0.1035 -0.6871
  176SAPI   H6X20074   0.768   1.311   7.806  0.4441 -0.9437 -2.5961
  176SAPI   H6Y20075   0.621   1.238   7.886  0.0527  0.0187 -0.9506
  176SAPI   C3720076   0.626   1.453   7.894  0.5268 -0.1494 -0.6793
  176SAPI   H7X20077   0.517   1.456   7.912  0.7086  1.3410  0.1890
  176SAPI   H7Y20078   0.652   1.537   7.826 -0.8239  0.0421 -0.9610
  176SAPI   C3820079   0.709   1.448   8.028 -0.5044 -0.3361  0.9740
  176SAPI   H8X20080   0.818   1.460   8.016 -0.5873 -1.1273 -0.7436
  176SAPI   H8Y20081   0.687   1.358   8.089  0.0593 -1.3834 -0.3574
  176SAPI   C3920082   0.666   1.572   8.110  0.5890 -0.1335 -0.7118
  176SAPI   H9X20083   0.556   1.584   8.114  0.6340 -0.0172  0.4102
  176SAPI   H9Y20084   0.699   1.660   8.050 -3.0224  2.5175  0.9980
  176SAPI  C31020085   0.730   1.570   8.246 -0.0900  0.4292 -0.4098
  176SAPI  H10X20086   0.841   1.576   8.241 -0.0671  0.9293  0.6274
  176SAPI  H10Y20087   0.704   1.483   8.310  0.2644  0.7018  0.1068
  176SAPI  C31120088   0.693   1.694   8.322  0.1754  0.0667 -0.1652
  176SAPI  H11X20089   0.689   1.774   8.244 -3.0128 -0.7541 -0.9392
  176SAPI  H11Y20090   0.763   1.726   8.402 -1.3311 -0.1399  1.2589
  176SAPI  C31220091   0.564   1.690   8.401  0.6285  0.1051  0.3813
  176SAPI  H12X20092   0.564   1.591   8.453 -0.2307  1.3537  2.8237
  176SAPI  H12Y20093   0.484   1.686   8.324 -0.5328  1.7524  1.4742
  176SAPI  C31320094   0.536   1.808   8.500 -0.3208  0.2003  0.0855
  176SAPI  H13X20095   0.615   1.826   8.576 -0.6237  1.3549  0.1350
  176SAPI  H13Y20096   0.443   1.793   8.558 -1.0356 -0.1338 -1.1412
  176SAPI  C31420097   0.508   1.932   8.417  0.2462 -0.1196  0.1358
  176SAPI  H14X20098   0.463   1.896   8.322 -0.5850 -0.0911  0.5193
  176SAPI  H14Y20099   0.606   1.978   8.389  1.5442 -2.3114  0.9403
  176SAPI  C31520100   0.428   2.038   8.497  0.0459 -0.1450 -0.0278
  176SAPI  H15X20101   0.476   2.055   8.596 -1.3570  0.5353  0.5495
  176SAPI  H15Y20102   0.329   1.992   8.518 -0.8512  1.7242 -0.0333
  176SAPI  C31620103   0.416   2.165   8.419 -0.1989 -0.6324  0.6149
  176SAPI  H16X20104   0.373   2.152   8.317 -0.0183  1.0528  0.3048
  176SAPI  H16Y20105   0.520   2.202   8.406  0.0160 -2.1854 -2.5004
  176SAPI  C31720106   0.334   2.280   8.478 -0.0420 -0.0813 -0.2693
  176SAPI  H17X20107   0.346   2.370   8.415 -1.0040  0.5791  0.4841
  176SAPI  H17Y20108   0.368   2.318   8.576 -1.7054  2.9374 -0.8140
  176SAPI  C31820109   0.181   2.249   8.493  0.4924 -0.0764 -0.5407
  176SAPI  H18X20110   0.135   2.220   8.396  0.2109 -1.0538 -0.1226
  176SAPI  H18Y20111   0.136   2.336   8.546 -0.8850  0.2040 -2.1409
  176SAPI  H18Z20112   0.171   2.166   8.565 -2.7958  2.2496  1.8405
  177SLPC     N20113   1.412   4.930  11.231 -0.0697  0.4191 -0.7363
  177SLPC   C1320114   1.371   4.807  11.153  0.0551 -0.3821 -0.3198
  177SLPC  H13A20115   1.377   4.720  11.217  1.4285  0.0528  0.1568
  177SLPC  H13B20116   1.269   4.817  11.119  0.5304  3.4549 -0.7966
  177SLPC  H13C20117   1.431   4.797  11.064  1.6183 -2.1961  0.8909
  177SLPC   C1420118   1.558   4.942  11.236  0.4827  0.2764 -0.0828
  177SLPC  H14A20119   1.598   4.842  11.243  0.0019 -0.0467 -1.6507
  177SLPC  H14B20120   1.598   4.977  11.142  1.1051  0.5136  0.2688
  177SLPC  H14C20121   1.607   4.997  11.314  1.2608  0.0844 -0.4289
  177SLPC   C1520122   1.358   4.923  11.370  0.4912 -0.4398  0.0219
  177SLPC  H15A20123   1.388   4.831  11.417 -1.1381  0.1904  2.3266
  177SLPC  H15B20124   1.377   5.005  11.438  1.2952 -0.7254  0.1473
  177SLPC  H15C20125   1.251   4.915  11.359  0.6097 -2.5068  0.2397
  177SLPC   C1220126   1.357   5.055  11.169 -0.3475 -0.4920 -0.1877
  177SLPC  H12A20127   1.417   5.130  11.217 -1.3412  0.3067 -0.1862
  177SLPC  H12B20128   1.254   5.066  11.198 -0.6649 -1.2161 -0.9980
  177SLPC   C1120129   1.362   5.075  11.012  0.2370  0.2620  1.0429
  177SLPC  H11A20130   1.463   5.042  10.979 -0.4963 -1.9882  0.9772
  177SLPC  H11B20131   1.363   5.184  10.990 -1.7310  0.9379  4.0410
  177SLPC     P20132   1.141   5.059  10.859 -0.1153  0.1545 -0.4272
  177SLPC   O1320133   1.090   4.947  10.776  0.1496 -0.7442 -0.1164
  177SLPC   O1420134   1.047   5.127  10.955  1.0175 -0.6690 -0.3281
  177SLPC   O1220135   1.259   4.994  10.947  0.0111  0.0938 -0.3479
  177SLPC   O1120136   1.206   5.177  10.770 -0.7091  0.4050 -0.3249
  177SLPC    C120137   1.307   5.154  10.679  0.0384 -0.1107  0.1343
  177SLPC    HA20138   1.370   5.243  10.661 -1.4378  1.2532  1.5234
  177SLPC    HB20139   1.372   5.075  10.723 -2.8366 -1.6199  1.8706
  177SLPC    C220140   1.268   5.095  10.539 -0.0017 -0.1519 -0.0622
  177SLPC    HS20141   1.198   5.012  10.562 -1.2472  0.8204 -0.2672
  177SLPC   O2120142   1.390   5.046  10.468  0.5301  0.0123  0.4077
  177SLPC   C2120143   1.428   4.929  10.499  0.4763 -0.2320 -0.2844
  177SLPC   O2220144   1.377   4.846  10.574 -0.0927 -0.5716  0.3717
  177SLPC   C2220145   1.552   4.893  10.420  0.0036  0.2640  0.5104
  177SLPC   H2R20146   1.643   4.912  10.480 -0.2520 -0.8487  1.2509
  177SLPC   H2S20147   1.554   4.785  10.395 -1.1304  0.2675  0.3675
  177SLPC    C320148   1.193   5.198  10.458 -0.2940 -0.3206 -0.7666
  177SLPC    HX20149   1.250   5.293  10.448 -0.4257 -0.2389 -0.7374
  177SLPC    HY20150   1.100   5.223  10.513  0.0607 -1.0067  0.1756
  177SLPC   O3120151   1.158   5.153  10.329 -0.4687  0.0624 -0.6296
  177SLPC   C3120152   1.064   5.061  10.321 -0.2819 -0.0676  0.4516
  177SLPC   O3220153   0.997   5.023  10.409 -0.8477  0.0018  0.5891
  177SLPC   C3220154   1.058   5.014  10.179  0.3958  0.3588  0.3409
  177SLPC   H2X20155   1.100   4.911  10.178 -0.8175 -0.1358 -0.1900
  177SLPC   H2Y20156   1.114   5.080  10.109  0.2811  0.4146  0.3013
  177SLPC   C2320157   1.563   4.960  10.278  1.0027 -1.0025 -0.0811
  177SLPC   H3R20158   1.661   4.921  10.242  1.3237 -1.6721  1.4946
  177SLPC   H3S20159   1.558   5.070  10.294 -1.5355 -1.2784  1.1416
  177SLPC   C2420160   1.448   4.922  10.188  0.1262  0.7991  0.7687
  177SLPC   H4R20161   1.350   4.959  10.225 -1.2625 -1.9781  0.0455
  177SLPC   H4S20162   1.456   4.811  10.195  1.9388  0.6485 -2.7429
  177SLPC   C2520163   1.467   4.976  10.045 -0.1880 -0.0356 -0.3258
  177SLPC   H5R20164   1.575   4.959  10.027 -0.0652  0.8767 -0.4760
  177SLPC   H5S20165   1.442   5.084  10.046  2.1804  0.5335 -0.9924
  177SLPC   C2620166   1.385   4.891   9.951  0.2961 -0.1460 -0.4658
  177SLPC   H6R20167   1.276   4.898   9.974 -0.1781 -2.8469 -1.6668
  177SLPC   H6S20168   1.415   4.784   9.955 -2.2262 -0.8611  0.3025
  177SLPC   C2720169   1.402   4.932   9.803 -0.4378 -0.0905  0.1875
  177SLPC   H7R20170   1.508   4.922   9.771 -0.3868  1.8657 -0.3572
  177SLPC   H7S20171   1.367   5.037   9.797 -1.1786 -0.1461  2.8851
  177SLPC   C2820172   1.316   4.843   9.705 -0.5483 -0.0445  0.3618
  177SLPC   H8R20173   1.215   4.887   9.690  0.3339  2.1901  0.8297
  177SLPC   H8S20174   1.304   4.742   9.751 -0.0699 -1.4693 -2.4871
  177SLPC   C2920175   1.394   4.838   9.574 -0.0415 -0.2173  0.3585
  177SLPC   H9R20176   1.395   4.935   9.523  2.9963  0.1719  1.0403
  177SLPC  C21020177   1.461   4.740   9.515  0.2599  0.0800 -0.0569
  177SLPC  H10R20178   1.523   4.762   9.426 -0.7929  1.0160 -0.5659
  177SLPC  C21120179   1.461   4.596   9.560  0.3648  0.1104 -0.2244
  177SLPC  H11R20180   1.562   4.557   9.535  0.9497 -1.5174  4.2918
  177SLPC  H11S20181   1.458   4.597   9.671 -0.4247  0.7126 -0.2460
  177SLPC  C21220182   1.353   4.509   9.500  0.2001  0.2125 -0.0564
  177SLPC  H12R20183   1.264   4.507   9.565  1.2004 -1.5113  1.3024
  177SLPC  C21320184   1.356   4.436   9.389 -0.1512  0.2654  0.4433
  177SLPC  H13R20185   1.264   4.380   9.368 -1.5351  1.7458  2.3636
  177SLPC  C21420186   1.467   4.425   9.280 -0.2298  0.1939  0.3477
  177SLPC  H14R20187   1.517   4.330   9.311  0.8543  1.2825  2.0079
  177SLPC  H14S20188   1.537   4.510   9.266 -0.8126  0.6741  0.3397
  177SLPC  C21520189   1.400   4.404   9.140 -0.1482 -0.8226 -0.1998
  177SLPC  H15R20190   1.382   4.502   9.091 -2.0347 -1.1201 -0.1763
  177SLPC  H15S20191   1.306   4.344   9.133 -1.8233  1.9886 -3.0753
  177SLPC  C21620192   1.495   4.322   9.050 -0.0343 -0.8287 -0.3374
  177SLPC  H16R20193   1.498   4.223   9.100  1.6244 -0.7115 -0.1815
  177SLPC  H16S20194   1.602   4.351   9.042  0.3586 -2.5171 -1.4259
  177SLPC  C21720195   1.436   4.314   8.913  0.5737 -0.1447  0.7214
  177SLPC  H17R20196   1.425   4.411   8.860  0.9998  0.0463  0.9769
  177SLPC  H17S20197   1.339   4.263   8.932  1.3214 -0.9324  2.6035
  177SLPC  C21820198   1.514   4.215   8.832  0.2777 -0.0144  0.4479
  177SLPC  H18R20199   1.513   4.122   8.893  0.9537 -0.2063  0.1688
  177SLPC  H18S20200   1.617   4.246   8.804  0.7036 -2.0317 -0.2329
  177SLPC  H18T20201   1.467   4.182   8.737  0.1998 -1.2076  0.8962
  177SLPC   C3320202   0.909   5.002  10.125 -0.5399  0.4935  0.5275
  177SLPC   H3X20203   0.863   5.102  10.115  1.1715  1.1556 -0.9325
  177SLPC   H3Y20204   0.840   4.945  10.191 -0.0791  1.2332  1.6680
  177SLPC   C3420205   0.906   4.919   9.995  0.0773 -1.4297 -0.2811
  177SLPC   H4X20206   0.973   4.954   9.913  0.6364 -0.2880  0.6607
  177SLPC   H4Y20207   0.806   4.931   9.949 -0.4928 -2.9761  0.5165
  177SLPC   C3520208   0.945   4.777  10.025  0.3526  0.5445  1.0051
  177SLPC   H5X20209   0.884   4.738  10.109  0.0263 -1.0408  0.0507
  177SLPC   H5Y20210   1.044   4.764  10.074  0.7899  0.1084  0.0158
  177SLPC   C3620211   0.913   4.682   9.906 -0.1506  0.6009  0.0953
  177SLPC   H6X20212   0.805   4.671   9.883 -0.0336  0.7292 -0.5242
  177SLPC   H6Y20213   0.952   4.582   9.937  1.8540  1.1459 -0.5812
  177SLPC   C3720214   0.996   4.725   9.791 -0.2591 -0.4240 -0.0925
  177SLPC   H7X20215   1.102   4.739   9.823 -0.7550 -0.6751  1.6640
  177SLPC   H7Y20216   0.958   4.819   9.744  0.3810  1.3706  2.8270
  177SLPC   C3820217   0.988   4.626   9.671  0.4669 -0.5495  0.3424
  177SLPC   H8X20218   0.882   4.592   9.662 -0.1119  1.2261  0.2295
  177SLPC   H8Y20219   1.036   4.530   9.702  0.5855 -0.1383  1.4492
  177SLPC   C3920220   1.026   4.673   9.531  0.1568  0.2748 -0.7431
  177SLPC   H9X20221   1.130   4.710   9.515  0.2889 -0.1141 -0.7819
  177SLPC   H9Y20222   0.965   4.764   9.513 -0.3847  0.5516  2.1071
  177SLPC  C31020223   1.001   4.562   9.437 -0.1829  0.1117  0.4245
  177SLPC  H10X20224   0.891   4.547   9.433  0.1563 -2.4959 -0.1629
  177SLPC  H10Y20225   1.042   4.468   9.480  0.3138  0.1106 -0.0518
  177SLPC  C31120226   1.053   4.605   9.305  0.3898 -0.0681  0.4168
  177SLPC  H11X20227   1.162   4.621   9.323 -0.0584  3.8666  0.0505
  177SLPC  H11Y20228   1.011   4.705   9.280  0.6189 -0.2893 -0.9270
  177SLPC  C31220229   1.037   4.499   9.192  0.8039 -0.5151 -0.3755
  177SLPC  H12X20230   0.930   4.470   9.195  0.6185 -0.2719 -3.3714
  177SLPC  H12Y20231   1.102   4.414   9.225 -0.7754 -1.8670 -0.6730
  177SLPC  C31320232   1.093   4.538   9.055 -0.1191  0.0441 -0.3200
  177SLPC  H13X20233   1.196   4.498   9.042 -0.0096  0.0087  0.6571
  177SLPC  H13Y20234   1.089   4.646   9.030  2.1116 -0.2898 -2.3943
  177SLPC  C31420235   1.006   4.458   8.947 -0.1156 -0.5547 -0.5193
  177SLPC  H14X20236   0.908   4.511   8.945  0.8534  1.3881  1.2330
  177SLPC  H14Y20237   0.987   4.354   8.982  1.7041 -1.2002 -1.4087
  177SLPC  C31520238   1.069   4.460   8.810  0.4181  0.4840  0.0999
  177SLPC  H15X20239   0.999   4.427   8.730  0.3943 -0.9557  0.7000
  177SLPC  H15Y20240   1.158   4.395   8.801  1.1114  1.3315  0.7511
  177SLPC  C31620241   1.120   4.608   8.776 -0.6558  0.4341 -0.0732
  177SLPC  H16X20242   1.212   4.624   8.835 -2.4231 -0.7292  3.1325
  177SLPC  H16Y20243   1.045   4.683   8.808 -1.7766 -1.1523  1.1458
  177SLPC  C31720244   1.134   4.629   8.627  0.6414  0.2569  0.1598
  177SLPC  H17X20245   1.038   4.607   8.576  0.6979 -1.4673  0.7538
  177SLPC  H17Y20246   1.211   4.557   8.590  2.7632  2.3240  0.3746
  177SLPC  C31820247   1.172   4.774   8.595  0.2423 -0.1187 -0.5502
  177SLPC  H18X20248   1.169   4.785   8.485 -1.1018 -0.0703 -0.5130
  177SLPC  H18Y20249   1.272   4.806   8.631 -0.4483  2.5876 -0.9693
  177SLPC  H18Z20250   1.097   4.848   8.630  0.5562 -0.8093  1.6739
  178SLPC     N20251   2.860   0.663  11.038  0.3186  0.3488  0.5061
  178SLPC   C1320252   2.830   0.808  11.046 -0.3613  0.1139 -0.3862
  178SLPC  H13A20253   2.784   0.831  11.141 -0.9533  1.0316 -0.8789
  178SLPC  H13B20254   2.916   0.873  11.046 -0.5883  0.4235  0.8433
  178SLPC  H13C20255   2.764   0.847  10.970  1.7495 -0.2989 -2.4771
  178SLPC   C1420256   2.731   0.603  11.036  0.1342  0.3524 -0.5294
  178SLPC  H14A20257   2.668   0.651  10.962 -0.9498  0.7843  0.6673
  178SLPC  H14B20258   2.748   0.503  11.000  2.4708  0.5719 -0.1364
  178SLPC  H14C20259   2.677   0.613  11.128  0.9657 -0.6007  0.0710
  178SLPC   C1520260   2.930   0.611  11.163  0.1082 -0.5263  0.6516
  178SLPC  H15A20261   2.888   0.635  11.259 -0.1580  0.6918  0.2393
  178SLPC  H15B20262   2.933   0.503  11.158  0.2830 -0.4707 -0.7486
  178SLPC  H15C20263   3.030   0.650  11.170 -0.1973  0.0601  1.7612
  178SLPC   C1220264   2.939   0.629  10.908 -0.4316  0.0793  0.1024
  178SLPC  H12A20265   3.026   0.693  10.911 -1.4445  1.6036 -1.6101
  178SLPC  H12B20266   2.891   0.662  10.817  0.0574 -0.6466 -0.4224
  178SLPC   C1120267   2.985   0.484  10.888  0.1002  0.2135 -0.0685
  178SLPC  H11A20268   2.991   0.479  10.777  0.1375  0.5876 -0.0847
  178SLPC  H11B20269   2.908   0.415  10.929 -0.7754  1.2454  0.0530
  178SLPC     P20270   3.249   0.505  10.907  0.0578 -0.5818 -0.0244
  178SLPC   O1320271   3.241   0.649  10.886 -0.8207 -0.5122 -0.1163
  178SLPC   O1420272   3.353   0.462  11.001 -0.3477 -0.0255  0.3330
  178SLPC   O1220273   3.109   0.447  10.949  0.0451  0.6695  0.0191
  178SLPC   O1120274   3.269   0.435  10.767  0.2887 -0.3531  0.8746
  178SLPC    C120275   3.281   0.295  10.756 -0.8641  0.1427 -0.1214
  178SLPC    HA20276   3.274   0.239  10.852 -1.8401  1.3944  0.5491
  178SLPC    HB20277   3.211   0.258  10.679  2.7396 -1.3647 -2.8409
  178SLPC    C220278   3.417   0.242  10.702  0.0109  0.6760  0.2632
  178SLPC    HS20279   3.496   0.253  10.779 -1.0088  0.0806  1.4249
  178SLPC   O2120280   3.444   0.308  10.578 -0.1500  0.3016 -0.6385
  178SLPC   C2120281   3.516   0.414  10.588  0.1684 -0.0672  0.2826
  178SLPC   O2220282   3.567   0.461  10.692  0.1443 -0.0553 -0.3317
  178SLPC   C2220283   3.506   0.493  10.457  0.1683  0.3874 -0.0364
  178SLPC   H2R20284   3.506   0.601  10.484 -3.7351  0.1656  1.2172
  178SLPC   H2S20285   3.595   0.470  10.395 -0.6581  0.1183 -1.1450
  178SLPC    C320286   3.414   0.091  10.668  0.8503 -0.3567 -0.0631
  178SLPC    HX20287   3.398   0.027  10.757  1.2763 -2.2900 -1.3386
  178SLPC    HY20288   3.520   0.072  10.639  1.7571  1.6802  1.7882
  178SLPC   O3120289   3.315   0.064  10.561 -0.3794 -0.0076 -0.4364
  178SLPC   C3120290   3.355   0.058  10.437 -0.7244 -0.4969  0.5146
  178SLPC   O3220291   3.474   0.054  10.406  0.0604 -0.3693  0.6326
  178SLPC   C3220292   3.236   0.012  10.348  0.2272  0.3591 -0.1851
  178SLPC   H2X20293   3.156   0.087  10.367 -0.6547 -0.2075 -1.6248
  178SLPC   H2Y20294   3.197  -0.083  10.392  2.5583  0.6193  2.5846
  178SLPC   C2320295   3.375   0.455  10.375 -0.5406  0.3871  0.5316
  178SLPC   H3R20296   3.290   0.478  10.444  0.1253 -2.2185  2.2972
  178SLPC   H3S20297   3.380   0.346  10.353 -3.2565  0.0055  1.5169
  178SLPC   C2420298   3.365   0.542  10.248 -0.1805 -0.7644  0.0445
  178SLPC   H4R20299   3.296   0.505  10.169 -0.1317  2.1808 -1.4563
  178SLPC   H4S20300   3.468   0.554  10.208  0.3606  0.5325  1.7759
  178SLPC   C2520301   3.313   0.681  10.279  0.9621 -0.0222  0.0941
  178SLPC   H5R20302   3.395   0.756  10.280  2.4036 -1.5369 -0.9953
  178SLPC   H5S20303   3.268   0.684  10.381  1.0777 -2.2715  0.2331
  178SLPC   C2620304   3.183   0.708  10.200 -0.7745  0.6442 -0.4421
  178SLPC   H6R20305   3.113   0.621  10.196  0.7510 -0.5995 -0.5100
  178SLPC   H6S20306   3.211   0.726  10.094  0.0974 -1.4559 -0.5974
  178SLPC   C2720307   3.109   0.833  10.247  0.1147 -0.4595  0.4619
  178SLPC   H7R20308   3.178   0.919  10.257 -0.5927 -0.1562  2.9013
  178SLPC   H7S20309   3.069   0.805  10.346  1.5542 -3.0785  0.3436
  178SLPC   C2820310   3.006   0.874  10.139 -0.4133  0.7124  0.2488
  178SLPC   H8R20311   3.067   0.906  10.053 -1.4467  0.2563 -0.6686
  178SLPC   H8S20312   2.961   0.970  10.173  0.0096  1.5709 -1.5382
  178SLPC   C2920313   2.904   0.765  10.094 -0.0483  0.2693  0.5649
  178SLPC   H9R20314   2.837   0.728  10.173 -0.6158  0.1288  0.0210
  178SLPC  C21020315   2.891   0.712   9.974  0.3683  0.4459 -0.2059
  178SLPC  H10R20316   2.822   0.625   9.973  1.8386 -0.8171  2.6573
  178SLPC  C21120317   2.973   0.747   9.849 -0.5236  0.1423 -0.6616
  178SLPC  H11R20318   2.975   0.858   9.853 -0.4383  0.0689  1.5668
  178SLPC  H11S20319   2.910   0.726   9.759 -2.0085 -1.8079  0.7723
  178SLPC  C21220320   3.109   0.673   9.830  0.1056  0.0818  0.2481
  178SLPC  H12R20321   3.135   0.596   9.905  2.2480 -0.4877 -1.0396
  178SLPC  C21320322   3.201   0.698   9.735  0.6758 -0.6742  0.1217
  178SLPC  H13R20323   3.296   0.643   9.732  1.1772  0.2435 -1.5620
  178SLPC  C21420324   3.178   0.807   9.633  0.6948 -0.5845 -0.2616
  178SLPC  H14R20325   3.241   0.891   9.671  0.6123 -1.4503  1.8788
  178SLPC  H14S20326   3.074   0.846   9.634  0.5069 -1.0924 -0.3021
  178SLPC  C21520327   3.202   0.767   9.487 -0.3320  0.2290 -0.0424
  178SLPC  H15R20328   3.110   0.709   9.463 -0.0981 -0.9484  1.8224
  178SLPC  H15S20329   3.276   0.687   9.466  0.0559  1.0340 -1.8600
  178SLPC  C21620330   3.203   0.877   9.379 -0.0561  0.7094 -0.2833
  178SLPC  H16R20331   3.308   0.911   9.361 -0.7495  1.3911 -3.3424
  178SLPC  H16S20332   3.154   0.968   9.421 -2.6267 -0.1465 -1.3499
  178SLPC  C21720333   3.152   0.832   9.245  0.5093  0.1074  0.0613
  178SLPC  H17R20334   3.049   0.791   9.248  0.5780 -0.0276  0.8710
  178SLPC  H17S20335   3.221   0.752   9.212  1.0759  0.2653  0.8377
  178SLPC  C21820336   3.152   0.961   9.152 -0.1145 -0.3207  0.5086
  178SLPC  H18R20337   3.127   0.949   9.045  1.1995  0.1655  0.1363
  178SLPC  H18S20338   3.254   1.005   9.148  0.0756 -0.8396 -0.2680
  178SLPC  H18T20339   3.089   1.036   9.205  1.8940 -0.5065  3.2810
  178SLPC   C3320340   3.264  -0.006  10.197 -0.0486  0.3522 -0.7636
  178SLPC   H3X20341   3.201  -0.089  10.157 -0.9861  1.2517 -1.1543
  178SLPC   H3Y20342   3.366  -0.046  10.178  0.2796  0.5524  0.5265
  178SLPC   C3420343   3.249   0.112  10.110  0.3875 -0.2178  0.5879
  178SLPC   H4X20344   3.332   0.183  10.132 -0.6835  0.8712  1.2284
  178SLPC   H4Y20345   3.148   0.155  10.126  1.1579  2.7036 -1.8729
  178SLPC   C3520346   3.261   0.085   9.953  0.1480 -0.4782 -0.1675
  178SLPC   H5X20347   3.181   0.014   9.923  0.8778 -0.1983 -2.8851
  178SLPC   H5Y20348   3.354   0.026   9.940 -0.5073 -1.6236  0.2409
  178SLPC   C3620349   3.261   0.212   9.865 -0.0623 -0.3373 -0.2909
  178SLPC   H6X20350   3.347   0.276   9.895  1.1346 -1.2949 -1.6232
  178SLPC   H6Y20351   3.171   0.275   9.880 -0.1160 -0.0945 -1.5707
  178SLPC   C3720352   3.249   0.191   9.711 -0.3102 -0.3720 -0.4161
  178SLPC   H7X20353   3.152   0.139   9.697 -0.6399  0.4611 -1.2368
  178SLPC   H7Y20354   3.337   0.135   9.670  0.8508  0.6586  0.6108
  178SLPC   C3820355   3.237   0.322   9.626  0.0457 -0.1821 -0.4420
  178SLPC   H8X20356   3.330   0.382   9.623  0.0091 -0.0503  0.6888
  178SLPC   H8Y20357   3.153   0.381   9.669  1.3751  0.2538  1.6492
  178SLPC   C3920358   3.212   0.289   9.485 -0.7373  0.6687 -0.0082
  178SLPC   H9X20359   3.112   0.252   9.454 -1.1020  1.6992 -0.0720
  178SLPC   H9Y20360   3.276   0.208   9.443  0.4597  2.3962 -1.5820
  178SLPC  C31020361   3.219   0.412   9.399  0.1527 -0.4659 -0.0312
  178SLPC  H10X20362   3.326   0.441   9.406 -0.0598 -0.1599  2.6407
  178SLPC  H10Y20363   3.168   0.498   9.447  0.2581 -0.8160  0.7244
  178SLPC  C31120364   3.161   0.412   9.255 -0.4658 -0.1666 -0.3087
  178SLPC  H11X20365   3.189   0.331   9.185  0.1088 -0.2023 -0.0409
  178SLPC  H11Y20366   3.199   0.506   9.210 -0.3150 -0.7916 -1.5077
  178SLPC  C31220367   3.008   0.411   9.249 -0.1432 -0.0072 -0.3484
  178SLPC  H12X20368   2.970   0.503   9.299 -1.3873 -0.8357  0.2459
  178SLPC  H12Y20369   2.985   0.326   9.317  0.4554 -1.3612 -1.8108
  178SLPC  C31320370   2.937   0.377   9.116 -0.9873 -0.6308 -0.0633
  178SLPC  H13X20371   2.826   0.377   9.119 -0.9599  0.9972  1.8960
  178SLPC  H13Y20372   2.968   0.277   9.080  0.1632  1.0781 -4.0765
  178SLPC  C31420373   2.992   0.481   9.011  0.9225 -0.0331  0.7346
  178SLPC  H14X20374   3.103   0.474   9.005  0.8854  0.8107 -1.3582
  178SLPC  H14Y20375   2.959   0.580   9.049 -1.7086  0.1426 -1.8567
  178SLPC  C31520376   2.937   0.452   8.872 -0.2276  0.1543  0.1348
  178SLPC  H15X20377   2.945   0.347   8.838  1.3038 -0.2862  1.8072
  178SLPC  H15Y20378   2.831   0.485   8.864 -1.0404 -2.5881 -0.9295
  178SLPC  C31620379   3.019   0.522   8.763  0.4581 -0.1315 -0.4241
  178SLPC  H16X20380   3.128   0.500   8.775  0.0495 -2.0696 -0.0110
  178SLPC  H16Y20381   3.010   0.630   8.788  0.9477 -0.1627 -0.1000
  178SLPC  C31720382   2.981   0.482   8.620 -0.0243 -0.3218  0.5558
  178SLPC  H17X20383   2.874   0.508   8.606  0.2063  1.2096  1.5128
  178SLPC  H17Y20384   2.987   0.371   8.620 -0.4790 -0.3500  0.3806
  178SLPC  C31820385   3.066   0.541   8.512  0.3976 -0.4887 -0.2276
  178SLPC  H18X20386   3.002   0.578   8.429 -0.1349 -1.4352 -0.2379
  178SLPC  H18Y20387   3.140   0.470   8.470  1.4277  0.2174  0.3817
  178SLPC  H18Z20388   3.114   0.636   8.544 -0.3385 -0.3835  0.5800
  179SLPC     N20389   3.788   3.500  10.500 -0.9220  0.2372 -0.6049
  179SLPC   C1320390   3.724   3.369  10.483  0.0191  0.1895  0.4839
  179SLPC  H13A20391   3.703   3.335  10.583 -1.5286  1.9435  0.7754
  179SLPC  H13B20392   3.626   3.367  10.439  0.0520  2.9666  0.2468
  179SLPC  H13C20393   3.793   3.305  10.429 -1.8977 -1.7655  0.2546
  179SLPC   C1420394   3.888   3.494  10.614 -0.1686  0.5081 -0.2522
  179SLPC  H14A20395   3.842   3.484  10.711 -2.7224  1.7950 -1.2575
  179SLPC  H14B20396   3.954   3.409  10.600  0.9225  1.0158  1.6698
  179SLPC  H14C20397   3.956   3.577  10.623 -1.3882  1.5546 -0.4939
  179SLPC   C1520398   3.690   3.601  10.543 -0.1446 -0.3805  0.0321
  179SLPC  H15A20399   3.638   3.566  10.632 -0.8012 -0.1010 -0.2390
  179SLPC  H15B20400   3.747   3.693  10.541  0.1940 -0.4933  2.7075
  179SLPC  H15C20401   3.607   3.608  10.474  0.1800  0.0045 -0.3158
  179SLPC   C1220402   3.854   3.547  10.375  0.0898  0.4763  0.4955
  179SLPC  H12A20403   3.776   3.567  10.302 -0.8174  1.2474  1.6646
  179SLPC  H12B20404   3.905   3.459  10.339 -2.2694 -1.2289  1.2303
  179SLPC   C1120405   3.947   3.675  10.384 -0.1358 -0.1696 -0.0068
  179SLPC  H11A20406   3.889   3.753  10.438 -0.3678 -0.4809  0.2012
  179SLPC  H11B20407   3.967   3.717  10.283  0.3739 -0.0173  0.1572
  179SLPC     P20408   4.183   3.771  10.466  0.1291  0.1538  0.0472
  179SLPC   O1320409   4.116   3.897  10.507  0.2843  0.3260  0.3986
  179SLPC   O1420410   4.292   3.729  10.559  0.4114 -0.1026 -0.6962
  179SLPC   O1220411   4.073   3.647  10.448 -0.0657 -0.0071 -0.4568
  179SLPC   O1120412   4.251   3.781  10.323 -0.0583 -0.0301 -0.1907
  179SLPC    C120413   4.262   3.677  10.224 -0.9780  0.3698 -0.0828
  179SLPC    HA20414   4.357   3.622  10.242  0.3511  2.8881  0.7951
  179SLPC    HB20415   4.175   3.608  10.233 -1.0635  0.4616 -0.2075
  179SLPC    C220416   4.275   3.750  10.086  0.0412  1.4491  0.2160
  179SLPC    HS20417   4.270   3.679  10.001 -1.0965  0.5875  0.9859
  179SLPC   O2120418   4.393   3.830  10.081 -0.4923  0.4511 -0.2229
  179SLPC   C2120419   4.502   3.768  10.026  0.1657  0.2743  0.4050
  179SLPC   O2220420   4.515   3.647  10.025  0.0122 -0.1619 -0.3217
  179SLPC   C2220421   4.609   3.873   9.988 -0.0175  0.1225  0.0924
  179SLPC   H2R20422   4.557   3.970   9.979 -0.5326 -0.0620  1.0927
  179SLPC   H2S20423   4.679   3.865  10.073  1.6254  0.5596 -1.1938
  179SLPC    C320424   4.162   3.847  10.058  0.6079 -0.2045 -0.2581
  179SLPC    HX20425   4.189   3.946  10.100 -0.8538 -0.0405  0.3433
  179SLPC    HY20426   4.073   3.814  10.116  1.1190 -2.2219 -0.5663
  179SLPC   O3120427   4.127   3.854   9.916  0.1157  0.6741  0.6095
  179SLPC   C3120428   4.125   3.974   9.867  0.0727 -0.5194  0.1407
  179SLPC   O3220429   4.129   4.080   9.936 -0.3970  0.1529  0.2293
  179SLPC   C3220430   4.129   3.971   9.719  0.2646 -0.1019 -0.0961
  179SLPC   H2X20431   4.032   3.929   9.683  0.6104 -0.3363 -0.7650
  179SLPC   H2Y20432   4.212   3.901   9.694  2.2095  1.2828  2.3237
  179SLPC   C2320433   4.665   3.846   9.846  0.3528  0.6156  0.2085
  179SLPC   H3R20434   4.713   3.747   9.831  1.2103  1.0873 -0.1909
  179SLPC   H3S20435   4.757   3.907   9.831  0.9000 -0.2224  0.1260
  179SLPC   C2420436   4.575   3.875   9.730  0.1378  0.1300 -0.5095
  179SLPC   H4R20437   4.528   3.976   9.730  1.0875  0.5718 -0.5855
  179SLPC   H4S20438   4.484   3.810   9.728  1.0115 -1.1147 -0.3027
  179SLPC   C2520439   4.642   3.843   9.594  0.4460 -0.7808  0.1576
  179SLPC   H5R20440   4.645   3.733   9.575 -2.4071 -1.0714  1.2146
  179SLPC   H5S20441   4.744   3.887   9.598 -0.2047  0.7596  0.0437
  179SLPC   C2620442   4.557   3.897   9.475 -0.5254  0.0086  0.1703
  179SLPC   H6R20443   4.547   4.007   9.478 -0.5292 -0.0165  3.6725
  179SLPC   H6S20444   4.459   3.846   9.482 -0.1843 -0.9100 -1.5045
  179SLPC   C2720445   4.605   3.849   9.335  0.1218  0.0625  0.1911
  179SLPC   H7R20446   4.633   3.742   9.348  0.0098 -0.0480 -0.4557
  179SLPC   H7S20447   4.696   3.899   9.294  1.1248 -1.4457  0.5625
  179SLPC   C2820448   4.489   3.868   9.231  0.5597 -0.4822  0.0986
  179SLPC   H8R20449   4.390   3.840   9.273 -0.4087  0.8395 -1.2601
  179SLPC   H8S20450   4.514   3.799   9.148  2.9241  0.4214  0.0267
  179SLPC   C2920451   4.479   4.013   9.182  0.1832 -0.4044  0.8719
  179SLPC   H9R20452   4.453   4.085   9.260 -1.0338  0.5359 -0.3851
  179SLPC  C21020453   4.497   4.070   9.058  0.2913 -0.8868  0.3993
  179SLPC  H10R20454   4.493   4.180   9.051 -2.4352 -0.9875 -0.2723
  179SLPC  C21120455   4.532   3.991   8.936 -0.3818 -0.6866 -0.3540
  179SLPC  H11R20456   4.472   4.022   8.847 -0.2670  1.3015  0.2271
  179SLPC  H11S20457   4.495   3.889   8.957 -0.0674 -0.7361 -0.0477
  179SLPC  C21220458   4.676   3.978   8.901 -0.3929 -0.0007  0.0213
  179SLPC  H12R20459   4.755   3.965   8.976  1.1208 -0.8358 -1.6754
  179SLPC  C21320460   4.722   3.964   8.773  0.0414  0.0063 -0.0824
  179SLPC  H13R20461   4.830   3.979   8.759  0.1871  0.2608  1.2316
  179SLPC  C21420462   4.636   3.970   8.651  0.0310 -0.7039  0.5265
  179SLPC  H14R20463   4.698   4.006   8.566  1.4255 -1.0729  1.3690
  179SLPC  H14S20464   4.561   4.050   8.665  1.0879  0.6230 -1.1252
  179SLPC  C21520465   4.551   3.847   8.612 -0.5825  0.0320 -0.1043
  179SLPC  H15R20466   4.489   3.827   8.702 -1.4765  2.4029 -0.1718
  179SLPC  H15S20467   4.609   3.755   8.590  1.1791  0.9366  0.6655
  179SLPC  C21620468   4.460   3.874   8.492 -0.3090  0.7777  0.4478
  179SLPC  H16R20469   4.525   3.879   8.402 -2.2471  0.5700 -0.9672
  179SLPC  H16S20470   4.403   3.969   8.502  2.0868  2.3382 -0.0806
  179SLPC  C21720471   4.346   3.771   8.461  0.0704 -0.6586 -0.3331
  179SLPC  H17R20472   4.290   3.811   8.375  0.9296  1.4776  0.0580
  179SLPC  H17S20473   4.269   3.769   8.541 -0.0395 -3.5766 -0.4668
  179SLPC  C21820474   4.402   3.636   8.422 -0.0396 -0.9359 -0.8139
  179SLPC  H18R20475   4.442   3.637   8.318 -0.4029 -3.4471 -1.0183
  179SLPC  H18S20476   4.321   3.561   8.415 -0.8003 -0.5123  2.7729
  179SLPC  H18T20477   4.486   3.606   8.489 -0.2574 -0.8780 -0.5171
  179SLPC   C3320478   4.167   4.110   9.662 -0.3770  0.2443 -0.2043
  179SLPC   H3X20479   4.126   4.200   9.714  0.2915  0.3232  0.1945
  179SLPC   H3Y20480   4.127   4.103   9.559  4.8221 -0.3388 -2.3622
  179SLPC   C3420481   4.320   4.132   9.663  0.9995  0.9568 -0.6141
  179SLPC   H4X20482   4.377   4.045   9.622 -1.1334 -1.2582  0.9520
  179SLPC   H4Y20483   4.346   4.134   9.771 -1.5158 -1.6147  0.1034
  179SLPC   C3520484   4.365   4.267   9.602 -0.7747 -0.3552 -0.3027
  179SLPC   H5X20485   4.476   4.272   9.593 -0.5751 -1.9376  0.9932
  179SLPC   H5Y20486   4.317   4.347   9.664 -2.4030  0.3549 -2.4303
  179SLPC   C3620487   4.318   4.292   9.460 -0.1918  0.0118 -0.5263
  179SLPC   H6X20488   4.208   4.283   9.470 -0.4120  0.6355 -2.2116
  179SLPC   H6Y20489   4.356   4.211   9.394 -0.2463 -1.7535  1.5650
  179SLPC   C3720490   4.358   4.430   9.403  0.6233 -0.0684 -0.1351
  179SLPC   H7X20491   4.462   4.468   9.418  1.0148 -0.7384 -1.0943
  179SLPC   H7Y20492   4.290   4.500   9.456  1.5788  0.1635  0.8057
  179SLPC   C3820493   4.336   4.449   9.252  0.4874 -0.2604  0.6911
  179SLPC   H8X20494   4.229   4.429   9.234  0.2872  1.2811  0.0778
  179SLPC   H8Y20495   4.401   4.377   9.197 -0.6559  0.1589 -1.2476
  179SLPC   C3920496   4.355   4.584   9.197  0.1841  0.1118 -0.0830
  179SLPC   H9X20497   4.453   4.610   9.243 -0.3369 -1.9224  2.2814
  179SLPC   H9Y20498   4.275   4.642   9.247  0.9670  0.6330  0.5830
  179SLPC  C31020499   4.352   4.604   9.049  0.0081 -0.2394 -0.5154
  179SLPC  H10X20500   4.246   4.579   9.026 -0.3237  0.6160  0.0819
  179SLPC  H10Y20501   4.430   4.548   8.993  0.5487  0.7203 -0.7331
  179SLPC  C31120502   4.375   4.750   9.003 -0.6142 -0.0114 -0.0415
  179SLPC  H11X20503   4.468   4.790   9.048 -0.2949  2.3799 -2.6150
  179SLPC  H11Y20504   4.286   4.807   9.038 -0.0166 -0.2870  1.9903
  179SLPC  C31220505   4.393   4.761   8.847  0.0663 -0.1771  0.1154
  179SLPC  H12X20506   4.487   4.713   8.812  0.2429 -0.1381  0.5332
  179SLPC  H12Y20507   4.392   4.869   8.819  4.0725  0.2513  1.3300
  179SLPC  C31320508   4.275   4.690   8.776 -0.8124  0.2176  0.3790
  179SLPC  H13X20509   4.183   4.751   8.789 -0.5088  0.4825  1.2553
  179SLPC  H13Y20510   4.257   4.591   8.823  1.0259  0.3019  1.2857
  179SLPC  C31420511   4.299   4.674   8.627  0.0708 -0.3848  0.1374
  179SLPC  H14X20512   4.216   4.624   8.574 -0.0934  1.9580 -1.9328
  179SLPC  H14Y20513   4.387   4.608   8.615 -0.4217 -1.0595  0.2608
  179SLPC  C31520514   4.334   4.810   8.557  0.3553 -0.4711  0.7009
  179SLPC  H15X20515   4.442   4.837   8.557  0.3082  0.0236 -3.9568
  179SLPC  H15Y20516   4.277   4.895   8.601  1.4201  0.7879 -0.3093
  179SLPC  C31620517   4.296   4.815   8.410 -0.0745 -0.5867 -0.1582
  179SLPC  H16X20518   4.190   4.784   8.413 -0.5636  1.1288  1.6303
  179SLPC  H16Y20519   4.361   4.746   8.352 -0.1304 -1.1974  0.4918
  179SLPC  C31720520   4.300   4.948   8.342 -0.0331 -0.0465  0.0932
  179SLPC  H17X20521   4.404   4.985   8.339 -0.1188  0.0484 -2.0568
  179SLPC  H17Y20522   4.236   5.020   8.398  0.0017  0.5036 -0.5713
  179SLPC  C31820523   4.260   4.930   8.197  0.5010 -0.0217 -0.6973
  179SLPC  H18X20524   4.327   4.856   8.148  0.7262 -1.0337  1.1010
  179SLPC  H18Y20525   4.261   5.033   8.154 -1.0832  1.8818  3.4752
  179SLPC  H18Z20526   4.152   4.904   8.207  0.1233  2.0164  0.9311
  180SLPC     N20527   5.475   1.884  11.142 -0.0651  0.6159  0.1696
  180SLPC   C1320528   5.434   1.955  11.264 -0.8996 -0.8989 -0.6095
  180SLPC  H13A20529   5.355   1.910  11.322 -0.4107  2.3504  2.7629
  180SLPC  H13B20530   5.511   1.962  11.340  0.9521 -0.8475 -2.4439
  180SLPC  H13C20531   5.400   2.056  11.246 -0.5175 -0.6513  0.0438
  180SLPC   C1420532   5.489   1.742  11.195 -0.3317  0.2653 -0.4102
  180SLPC  H14A20533   5.398   1.709  11.244  0.4306  0.1109  0.9278
  180SLPC  H14B20534   5.509   1.677  11.111 -1.1899 -0.3752 -0.1250
  180SLPC  H14C20535   5.581   1.729  11.249 -0.6511  0.8273  0.2795
  180SLPC   C1520536   5.602   1.937  11.097  0.2526 -0.8992  0.3533
  180SLPC  H15A20537   5.637   1.891  11.006  0.3221  3.1634 -1.7914
  180SLPC  H15B20538   5.600   2.044  11.081  2.4559 -0.7508  0.9041
  180SLPC  H15C20539   5.676   1.903  11.168  0.8660 -1.8931 -0.7501
  180SLPC   C1220540   5.366   1.897  11.028 -0.3212  0.7972 -0.8876
  180SLPC  H12A20541   5.377   1.999  10.994  2.9225  1.0001  0.6076
  180SLPC  H12B20542   5.269   1.903  11.074  0.4575 -2.1321  1.2686
  180SLPC   C1120543   5.359   1.794  10.916  0.1442  0.2354 -0.5228
  180SLPC  H11A20544   5.455   1.805  10.861 -1.1860  0.5397 -2.8311
  180SLPC  H11B20545   5.283   1.820  10.839  2.1745 -1.1645 -3.0641
  180SLPC     P20546   5.389   1.533  10.893  0.5435  0.1923  0.1384
  180SLPC   O1320547   5.472   1.458  10.987 -0.3681  0.3949  0.2263
  180SLPC   O1420548   5.278   1.444  10.846 -0.1878 -0.5386  0.0367
  180SLPC   O1220549   5.326   1.661  10.956  0.4497  0.6667 -0.0286
  180SLPC   O1120550   5.479   1.580  10.784 -0.0283  0.4940  0.5510
  180SLPC    C120551   5.453   1.581  10.640  0.3080 -0.4301 -0.7527
  180SLPC    HA20552   5.445   1.476  10.604 -1.3057 -0.9380  1.0305
  180SLPC    HB20553   5.350   1.616  10.617 -0.0152 -0.2662  0.8854
  180SLPC    C220554   5.555   1.670  10.569  0.1406 -0.6010  0.5184
  180SLPC    HS20555   5.566   1.759  10.635  1.9451 -1.3260  1.2257
  180SLPC   O2120556   5.497   1.721  10.448  0.1917  0.6647 -0.3344
  180SLPC   C2120557   5.556   1.823  10.384  0.0739 -0.0515  0.1985
  180SLPC   O2220558   5.656   1.880  10.424  0.8404 -0.0534 -0.3673
  180SLPC   C2220559   5.495   1.830  10.249  0.1938  0.3535  0.3024
  180SLPC   H2R20560   5.492   1.727  10.207 -1.3894  0.2075  0.7046
  180SLPC   H2S20561   5.386   1.845  10.264  0.2748 -0.3096  1.6849
  180SLPC    C320562   5.688   1.600  10.537 -0.2400  0.1495  1.0367
  180SLPC    HX20563   5.727   1.579  10.639 -0.7552 -2.5492  0.7123
  180SLPC    HY20564   5.753   1.668  10.477 -0.8342 -1.6598 -1.7822
  180SLPC   O3120565   5.671   1.479  10.465 -0.3153  0.5152  0.2869
  180SLPC   C3120566   5.717   1.370  10.526  0.1062 -0.1315  0.3479
  180SLPC   O3220567   5.796   1.368  10.621  0.1314 -0.2263  0.3019
  180SLPC   C3220568   5.668   1.239  10.454 -0.1671 -0.0998  0.3500
  180SLPC   H2X20569   5.557   1.235  10.461 -0.2400  2.2578  1.0478
  180SLPC   H2Y20570   5.712   1.155  10.512 -0.0403  0.0192  0.4288
  180SLPC   C2320571   5.555   1.937  10.157 -0.6914 -0.1889  0.5818
  180SLPC   H3R20572   5.658   1.912  10.125 -0.9113  0.1474 -0.3945
  180SLPC   H3S20573   5.577   2.035  10.205  0.2618  0.6542 -1.5424
  180SLPC   C2420574   5.464   1.945  10.031 -0.8261 -0.3312  0.9597
  180SLPC   H4R20575   5.363   1.983  10.055 -1.3590 -0.4634 -0.9370
  180SLPC   H4S20576   5.449   1.844   9.987  1.8398  0.4445 -1.9814
  180SLPC   C2520577   5.521   2.036   9.921 -0.6162 -0.5065  0.6697
  180SLPC   H5R20578   5.625   2.001   9.906 -0.7781 -0.3984 -0.8063
  180SLPC   H5S20579   5.516   2.141   9.958  0.5275 -0.6074  1.1242
  180SLPC   C2620580   5.453   2.033   9.784  0.4934  0.3013 -0.1374
  180SLPC   H6R20581   5.353   2.082   9.782 -0.0884 -0.8812 -0.0807
  180SLPC   H6S20582   5.443   1.930   9.744  1.6353 -0.7627  2.2287
  180SLPC   C2720583   5.527   2.123   9.689 -0.3957 -0.7108  0.9148
  180SLPC   H7R20584   5.633   2.091   9.679 -0.9206 -1.6614 -1.7902
  180SLPC   H7S20585   5.542   2.228   9.724  0.1083  0.2312 -2.0018
  180SLPC   C2820586   5.460   2.133   9.542 -0.3061 -0.8324 -0.4483
  180SLPC   H8R20587   5.509   2.221   9.495  0.6102 -0.6793  0.7727
  180SLPC   H8S20588   5.358   2.169   9.568  0.5494  0.0339  1.8334
  180SLPC   C2920589   5.466   2.007   9.461 -1.1671 -0.4693 -0.6560
  180SLPC   H9R20590   5.565   1.960   9.456 -1.5029 -1.3293  0.4247
  180SLPC  C21020591   5.376   1.954   9.386 -0.4053  0.2884 -0.5073
  180SLPC  H10R20592   5.393   1.851   9.351 -0.8309 -0.3959  1.2566
  180SLPC  C21120593   5.233   2.001   9.362  0.3170  0.2832  0.2837
  180SLPC  H11R20594   5.233   2.075   9.279  0.2058 -0.4730 -0.3967
  180SLPC  H11S20595   5.191   2.040   9.457 -2.6532  1.6664 -1.5386
  180SLPC  C21220596   5.129   1.890   9.327 -0.2239  0.0775 -0.2096
  180SLPC  H12R20597   5.063   1.846   9.404  1.2330  0.6017  1.3587
  180SLPC  C21320598   5.098   1.836   9.203 -0.9994  1.4198 -0.6286
  180SLPC  H13R20599   5.018   1.762   9.187 -0.2676  0.5825 -0.4431
  180SLPC  C21420600   5.175   1.883   9.081  0.1969  0.2858 -0.4283
  180SLPC  H14R20601   5.247   1.806   9.044 -1.1655 -2.3470  2.2586
  180SLPC  H14S20602   5.227   1.978   9.104  1.4264 -0.1493 -1.3033
  180SLPC  C21520603   5.070   1.920   8.974 -0.1793  0.1768 -0.1577
  180SLPC  H15R20604   5.118   1.993   8.905 -1.4787  1.5588  0.3497
  180SLPC  H15S20605   4.981   1.973   9.016 -0.5147  0.5471 -1.3066
  180SLPC  C21620606   5.023   1.799   8.887 -0.0954 -0.3534 -0.6284
  180SLPC  H16R20607   4.952   1.732   8.939  0.5414 -1.0473 -0.6402
  180SLPC  H16S20608   5.108   1.740   8.847  0.6930  1.0630 -1.0839
  180SLPC  C21720609   4.967   1.857   8.750 -0.0415  0.5291  0.0713
  180SLPC  H17R20610   5.049   1.912   8.699 -0.1659  1.1690  0.5418
  180SLPC  H17S20611   4.889   1.932   8.775  0.2219  1.3058 -1.3881
  180SLPC  C21820612   4.902   1.751   8.655 -0.2959 -0.4040  0.6427
  180SLPC  H18R20613   4.988   1.687   8.625  1.5734  1.4215  2.0235
  180SLPC  H18S20614   4.852   1.790   8.563  0.6631  2.4396  1.2984
  180SLPC  H18T20615   4.825   1.694   8.711 -0.3700 -0.6871  0.2630
  180SLPC   C3320616   5.728   1.231  10.310 -0.6288 -0.3939 -0.1251
  180SLPC   H3X20617   5.835   1.201  10.310 -0.3152  0.4502  3.2976
  180SLPC   H3Y20618   5.718   1.330  10.262  1.6006 -0.2398 -0.2947
  180SLPC   C3420619   5.646   1.123  10.236  0.6046 -0.2103 -0.0115
  180SLPC   H4X20620   5.540   1.156  10.230  0.1832 -1.7250 -1.0321
  180SLPC   H4Y20621   5.658   1.022  10.281  0.6082 -1.0471 -1.8521
  180SLPC   C3520622   5.693   1.108  10.087 -0.3245 -0.6006 -0.7782
  180SLPC   H5X20623   5.797   1.071  10.101 -0.6978 -0.7552  1.8616
  180SLPC   H5Y20624   5.679   1.210  10.047 -0.0276 -0.2442  0.0267
  180SLPC   C3620625   5.610   1.004  10.015 -0.5656  0.2024 -1.0742
  180SLPC   H6X20626   5.507   1.045  10.005 -0.7196  0.5714  1.5610
  180SLPC   H6Y20627   5.593   0.920  10.086  0.3483 -0.7395 -1.9543
  180SLPC   C3720628   5.651   0.948   9.881  0.9970 -0.4420 -0.1513
  180SLPC   H7X20629   5.587   0.864   9.846 -0.9298  0.5174  0.9476
  180SLPC   H7Y20630   5.751   0.901   9.890  0.9860 -0.1543  1.6762
  180SLPC   C3820631   5.648   1.047   9.764  0.0057 -0.7436  0.0075
  180SLPC   H8X20632   5.704   1.139   9.789 -1.5521  0.4137 -0.6646
  180SLPC   H8Y20633   5.541   1.074   9.754  0.2712  0.3228 -0.0134
  180SLPC   C3920634   5.699   0.996   9.628 -0.7128 -0.3401 -0.7431
  180SLPC   H9X20635   5.644   0.902   9.606  1.1044 -1.3452 -1.1055
  180SLPC   H9Y20636   5.806   0.970   9.639 -1.3510 -2.5059  0.5169
  180SLPC  C31020637   5.675   1.100   9.508 -0.1071  0.2299  0.2537
  180SLPC  H10X20638   5.723   1.198   9.533  2.3610 -1.2156  1.3739
  180SLPC  H10Y20639   5.568   1.129   9.509  0.0857  1.0198 -0.6660
  180SLPC  C31120640   5.720   1.041   9.371  0.7537 -0.5001 -0.2241
  180SLPC  H11X20641   5.712   0.930   9.376  4.0693 -0.8173 -0.8471
  180SLPC  H11Y20642   5.823   1.075   9.347 -0.0157  0.8223 -1.7527
  180SLPC  C31220643   5.633   1.082   9.258 -0.1017  0.1151  0.1167
  180SLPC  H12X20644   5.638   1.191   9.234 -2.0771  0.2666  0.2997
  180SLPC  H12Y20645   5.528   1.070   9.293 -0.2613 -2.0023 -1.0129
  180SLPC  C31320646   5.663   1.012   9.125 -0.0820 -0.0314 -0.4559
  180SLPC  H13X20647   5.680   0.905   9.151  2.3861  0.3017 -0.5686
  180SLPC  H13Y20648   5.758   1.054   9.085 -1.1780  2.6004 -0.4196
  180SLPC  C31420649   5.554   1.025   9.018  0.5838 -0.1791  0.2931
  180SLPC  H14X20650   5.564   1.125   8.971 -0.2659  0.7214  1.9665
  180SLPC  H14Y20651   5.449   0.998   9.046 -0.6805  2.8976 -1.2510
  180SLPC  C31520652   5.576   0.920   8.901  0.0737  0.3651 -0.3237
  180SLPC  H15X20653   5.600   0.826   8.955 -1.3365  0.0419 -0.2346
  180SLPC  H15Y20654   5.671   0.942   8.848 -0.0819  1.3910 -0.1866
  180SLPC  C31620655   5.470   0.912   8.800 -0.3455 -0.6229 -0.4220
  180SLPC  H16X20656   5.466   1.015   8.757  0.0136  0.6818  2.5801
  180SLPC  H16Y20657   5.371   0.883   8.840 -1.0643  2.1141 -0.0576
  180SLPC  C31720658   5.501   0.813   8.684  0.1866  0.0261 -1.0305
  180SLPC  H17X20659   5.431   0.726   8.674 -0.2098  0.4179 -1.6894
  180SLPC  H17Y20660   5.591   0.771   8.733 -0.5019  0.2849  0.5097
  180SLPC  C31820661   5.536   0.866   8.541  0.6711 -0.1687 -0.6672
  180SLPC  H18X20662   5.463   0.945   8.513  1.0938  0.2114 -0.7060
  180SLPC  H18Y20663   5.557   0.780   8.473  5.2108  0.1267  0.2234
  180SLPC  H18Z20664   5.627   0.929   8.544 -0.3083  1.1958  1.9863
  181SLPC     N20665   1.165   5.492  11.005  0.6902 -0.3767 -0.7908
  181SLPC   C1320666   1.138   5.634  11.025  0.1498 -0.5539  0.0446
  181SLPC  H13A20667   1.225   5.690  11.058 -0.6087  0.0221  1.0843
  181SLPC  H13B20668   1.092   5.687  10.944 -0.6140 -0.2046  0.7029
  181SLPC  H13C20669   1.071   5.655  11.107 -1.6095  2.4780 -2.0701
  181SLPC   C1420670   1.233   5.474  10.866  0.0339  0.0690  0.6362
  181SLPC  H14A20671   1.240   5.372  10.833  0.6421  0.2928  0.0644
  181SLPC  H14B20672   1.174   5.541  10.805  0.2457 -0.0371  0.3158
  181SLPC  H14C20673   1.330   5.521  10.876  1.3857 -2.4739 -0.2518
  181SLPC   C1520674   1.027   5.420  10.993 -0.8652  1.2239  0.9287
  181SLPC  H15A20675   0.964   5.466  10.919 -2.1136  0.2097  1.3539
  181SLPC  H15B20676   1.045   5.320  10.959 -1.5875  1.6058 -0.6230
  181SLPC  H15C20677   0.978   5.419  11.090  0.0730 -0.8822  1.4111
  181SLPC   C1220678   1.246   5.440  11.127 -0.0101 -0.2075  0.4443
  181SLPC  H12A20679   1.277   5.339  11.108 -0.2570 -0.1446 -0.3158
  181SLPC  H12B20680   1.179   5.408  11.206  0.5728 -0.9848  0.6264
  181SLPC   C1120681   1.367   5.527  11.177 -0.0979 -0.2834 -0.2722
  181SLPC  H11A20682   1.443   5.522  11.096 -0.7459 -0.2993 -0.8829
  181SLPC  H11B20683   1.418   5.476  11.261 -1.5714 -1.6372 -0.1852
  181SLPC     P20684   1.433   5.775  11.173  0.1991 -0.6492  0.1135
  181SLPC   O1320685   1.374   5.908  11.196 -0.3915  0.6007  0.4413
  181SLPC   O1420686   1.572   5.751  11.227 -0.3769 -0.0819  0.1330
  181SLPC   O1220687   1.333   5.655  11.226  0.4139  0.2975 -0.3006
  181SLPC   O1120688   1.446   5.743  11.018 -0.0906  0.0414  0.2886
  181SLPC    C120689   1.562   5.788  10.951  0.5597 -0.3194 -0.5231
  181SLPC    HA20690   1.553   5.898  10.954  0.0172 -0.3839  0.9674
  181SLPC    HB20691   1.651   5.761  11.013 -0.4028  0.7547  1.3601
  181SLPC    C220692   1.581   5.721  10.818  0.1385 -0.1495  0.2453
  181SLPC    HS20693   1.659   5.783  10.769 -1.5437  0.6277 -1.5186
  181SLPC   O2120694   1.443   5.722  10.744 -0.2157  0.3722  0.3520
  181SLPC   C2120695   1.417   5.842  10.700 -0.5203 -0.3387 -0.0761
  181SLPC   O2220696   1.485   5.940  10.723 -0.3143  0.7813  0.5257
  181SLPC   C2220697   1.309   5.835  10.597  0.3620  0.0097 -0.2616
  181SLPC   H2R20698   1.225   5.781  10.646  1.6138 -2.3356 -0.5860
  181SLPC   H2S20699   1.284   5.941  10.575  3.6126  1.1434  1.2026
  181SLPC    C320700   1.617   5.572  10.843 -0.5684 -0.4280 -0.1764
  181SLPC    HX20701   1.523   5.528  10.880 -1.5559  1.8381  0.1187
  181SLPC    HY20702   1.695   5.564  10.922  0.3632  1.7515 -0.8221
  181SLPC   O3120703   1.670   5.511  10.722  1.1410 -0.0034  0.0473
  181SLPC   C3120704   1.682   5.378  10.730 -0.2385 -0.5891  0.1450
  181SLPC   O3220705   1.635   5.312  10.821 -0.6503  0.6465  0.3899
  181SLPC   C3220706   1.733   5.322  10.601 -0.2897  0.0499 -0.0191
  181SLPC   H2X20707   1.796   5.237  10.633 -0.7023 -1.1085 -2.1946
  181SLPC   H2Y20708   1.802   5.391  10.547  3.1105 -0.7238  3.1444
  181SLPC   C2320709   1.343   5.750  10.466 -0.5470  0.2619 -0.1113
  181SLPC   H3R20710   1.401   5.661  10.497  1.7641  2.0755  1.0139
  181SLPC   H3S20711   1.401   5.808  10.391 -0.1821  2.6405  1.9311
  181SLPC   C2420712   1.224   5.711  10.385 -0.1460 -0.3883 -0.1041
  181SLPC   H4R20713   1.150   5.793  10.375 -1.3006 -1.6891 -3.0463
  181SLPC   H4S20714   1.168   5.638  10.448 -0.7563 -0.2686 -0.5025
  181SLPC   C2520715   1.259   5.626  10.263 -0.5442 -0.4478 -0.5934
  181SLPC   H5R20716   1.318   5.549  10.317 -2.1256  1.1074  3.5840
  181SLPC   H5S20717   1.332   5.675  10.195 -0.7950 -0.0612 -0.5846
  181SLPC   C2620718   1.140   5.566  10.190  0.7005 -0.2341 -0.0962
  181SLPC   H6R20719   1.077   5.647  10.147  0.3255 -0.4715  0.0017
  181SLPC   H6S20720   1.073   5.510  10.260 -1.4076  2.0815 -0.1743
  181SLPC   C2720721   1.188   5.466  10.088 -0.1925 -0.6723 -0.2949
  181SLPC   H7R20722   1.264   5.393  10.124  0.3673  0.0805  0.0836
  181SLPC   H7S20723   1.229   5.532  10.008 -1.1020 -0.3552 -0.5068
  181SLPC   C2820724   1.078   5.374  10.031  0.6877 -0.0604 -0.4176
  181SLPC   H8R20725   1.033   5.314  10.112 -0.0653 -2.0230 -2.2399
  181SLPC   H8S20726   1.127   5.300   9.964  3.3267  0.2312  1.0978
  181SLPC   C2920727   0.958   5.432   9.957 -0.0303  0.3944  0.0426
  181SLPC   H9R20728   0.891   5.485  10.027  1.6402  2.6264 -0.0127
  181SLPC  C21020729   0.926   5.431   9.828  0.0846  0.3345 -0.7036
  181SLPC  H10R20730   0.834   5.480   9.792 -0.3208 -1.5461 -2.3692
  181SLPC  C21120731   1.007   5.363   9.719 -0.9336 -0.0797 -0.4813
  181SLPC  H11R20732   0.973   5.257   9.721 -3.2105  0.5968 -1.8849
  181SLPC  H11S20733   1.114   5.360   9.751 -1.2692  1.7264  0.9218
  181SLPC  C21220734   0.993   5.422   9.582 -0.5504 -0.2934  0.4214
  181SLPC  H12R20735   0.997   5.532   9.578 -1.3653 -0.3316 -2.4282
  181SLPC  C21320736   0.966   5.357   9.470  0.0347  0.0122  0.4226
  181SLPC  H13R20737   0.954   5.417   9.378  0.5799 -0.4098  0.0659
  181SLPC  C21420738   0.950   5.205   9.442 -0.0509  0.9867  0.4554
  181SLPC  H14R20739   0.856   5.174   9.392  1.0404 -1.2099 -0.3293
  181SLPC  H14S20740   0.963   5.137   9.529  0.0046 -0.6685 -0.8174
  181SLPC  C21520741   1.066   5.159   9.353 -0.1549  0.3474  0.0989
  181SLPC  H15R20742   1.165   5.197   9.388  0.2351 -0.1713 -0.4416
  181SLPC  H15S20743   1.039   5.192   9.251  1.3463 -0.7348 -0.6671
  181SLPC  C21620744   1.080   5.009   9.333  0.8968  0.0955 -0.4559
  181SLPC  H16R20745   0.977   4.967   9.335  1.2489 -0.9282 -2.8222
  181SLPC  H16S20746   1.124   4.978   9.430 -2.3180  0.6174  1.2429
  181SLPC  C21720747   1.177   4.954   9.230  0.6758 -0.8604 -0.3633
  181SLPC  H17R20748   1.191   4.847   9.257  1.7271 -0.5311  0.4014
  181SLPC  H17S20749   1.274   4.996   9.263 -0.0280 -0.1548  0.8104
  181SLPC  C21820750   1.139   4.973   9.083  0.5141  1.0772  0.3577
  181SLPC  H18R20751   1.130   5.080   9.055  0.3218  1.1207  0.5820
  181SLPC  H18S20752   1.049   4.914   9.056 -0.0265  1.2995  1.6213
  181SLPC  H18T20753   1.225   4.933   9.025  2.8637  3.4145  2.1057
  181SLPC   C3320754   1.642   5.260  10.502 -0.3644  0.4904 -0.5314
  181SLPC   H3X20755   1.582   5.183  10.555 -1.3792  0.5426 -1.5842
  181SLPC   H3Y20756   1.705   5.201  10.433 -1.5228  0.0435 -1.2156
  181SLPC   C3420757   1.557   5.364  10.431 -0.6385 -0.1309 -0.3270
  181SLPC   H4X20758   1.517   5.438  10.504  1.1527  0.7516 -0.2069
  181SLPC   H4Y20759   1.468   5.310  10.390  1.0262 -2.2593 -1.2131
  181SLPC   C3520760   1.616   5.458  10.325  0.4131  0.0431  0.5417
  181SLPC   H5X20761   1.718   5.494  10.350  0.8141 -0.9485  0.3283
  181SLPC   H5Y20762   1.546   5.544  10.326  2.2341  1.5547  1.7881
  181SLPC   C3620763   1.617   5.393  10.182 -0.4855 -1.4474  0.3315
  181SLPC   H6X20764   1.523   5.334  10.189 -1.3558 -0.2104 -0.8081
  181SLPC   H6Y20765   1.703   5.324  10.168 -0.6323 -1.6480  0.4163
  181SLPC   C3720766   1.579   5.482  10.059  0.5514 -0.3849  0.0938
  181SLPC   H7X20767   1.664   5.551  10.046 -1.9441  2.5553 -1.1118
  181SLPC   H7Y20768   1.482   5.536  10.068  1.6241  1.5105  0.4586
  181SLPC   C3820769   1.578   5.418   9.918 -0.2687  0.6821 -0.9673
  181SLPC   H8X20770   1.604   5.310   9.925  0.1828  0.8554  0.0737
  181SLPC   H8Y20771   1.645   5.469   9.846 -0.0921 -0.3578 -1.5450
  181SLPC   C3920772   1.444   5.437   9.850 -0.6474  0.9896 -0.1458
  181SLPC   H9X20773   1.441   5.544   9.820  3.0932  1.0141 -0.6974
  181SLPC   H9Y20774   1.360   5.415   9.920 -0.3832 -1.4341 -0.5282
  181SLPC  C31020775   1.429   5.339   9.729  0.3376  0.2604 -0.2492
  181SLPC  H10X20776   1.327   5.355   9.689  1.5667  1.1426 -3.1496
  181SLPC  H10Y20777   1.431   5.230   9.752 -0.4071 -0.0054 -1.3992
  181SLPC  C31120778   1.526   5.366   9.617 -0.2278 -0.2004  0.1882
  181SLPC  H11X20779   1.626   5.360   9.666  0.3426  2.2934 -0.5780
  181SLPC  H11Y20780   1.519   5.461   9.560 -0.8044  1.8151  3.5048
  181SLPC  C31220781   1.522   5.248   9.504  0.7839  0.0062 -0.3878
  181SLPC  H12X20782   1.415   5.223   9.484  0.6771 -1.1768  1.5541
  181SLPC  H12Y20783   1.569   5.163   9.557 -0.1581  0.1074  0.6381
  181SLPC  C31320784   1.602   5.292   9.377 -0.6372  1.1508 -0.3527
  181SLPC  H13X20785   1.709   5.311   9.404 -0.2404  0.2565 -1.2791
  181SLPC  H13Y20786   1.578   5.393   9.338  0.8078  1.5913 -0.1351
  181SLPC  C31420787   1.582   5.199   9.255 -0.2296 -0.3048  0.7076
  181SLPC  H14X20788   1.639   5.238   9.168 -1.3038 -1.3740 -0.5104
  181SLPC  H14Y20789   1.473   5.201   9.232  0.1783  1.1076 -1.2580
  181SLPC  C31520790   1.623   5.051   9.273 -0.4236 -0.2456  0.0624
  181SLPC  H15X20791   1.561   5.008   9.354 -0.6374  0.3015  0.1842
  181SLPC  H15Y20792   1.729   5.049   9.305 -0.4892  0.8434  0.3663
  181SLPC  C31620793   1.604   4.965   9.154 -0.2142 -1.1007  0.3150
  181SLPC  H16X20794   1.667   5.023   9.083  0.1047 -0.1398  1.3633
  181SLPC  H16Y20795   1.499   4.987   9.125 -0.1499 -1.5690 -0.2869
  181SLPC  C31720796   1.646   4.817   9.164  0.2815 -0.3340  0.3192
  181SLPC  H17X20797   1.609   4.774   9.259 -0.6107 -0.0130  0.1186
  181SLPC  H17Y20798   1.755   4.797   9.155  0.8563  3.3512 -2.0782
  181SLPC  C31820799   1.561   4.734   9.058  0.3689  0.0500  0.0824
  181SLPC  H18X20800   1.562   4.787   8.961  0.2093 -1.7314 -0.9213
  181SLPC  H18Y20801   1.455   4.726   9.090  0.4742 -1.5186  0.0927
  181SLPC  H18Z20802   1.610   4.635   9.042  1.3383  0.7833 -1.6673
  182SLPC     N20803   0.445   6.278  11.000  0.5194  0.1044 -0.3156
  182SLPC   C1320804   0.542   6.248  11.118 -0.6188 -0.3098  0.0742
  182SLPC  H13A20805   0.509   6.304  11.204 -0.1064 -0.7722  0.5743
  182SLPC  H13B20806   0.540   6.143  11.142  1.5279 -0.5906 -0.8396
  182SLPC  H13C20807   0.644   6.279  11.100 -1.5428  2.8343 -0.0745
  182SLPC   C1420808   0.485   6.190  10.888 -0.7977  0.0159  0.1365
  182SLPC  H14A20809   0.587   6.216  10.862 -0.3807 -1.0129  0.7293
  182SLPC  H14B20810   0.479   6.085  10.909 -0.7357  0.1493  0.8250
  182SLPC  H14C20811   0.417   6.202  10.805  2.1275  1.4089 -2.1912
  182SLPC   C1520812   0.462   6.426  10.966  0.2298 -0.3302 -0.2843
  182SLPC  H15A20813   0.388   6.457  10.894  1.4042  0.1434 -1.3070
  182SLPC  H15B20814   0.467   6.494  11.050  1.1235 -0.2302 -0.4163
  182SLPC  H15C20815   0.551   6.436  10.907  0.1954  0.4285 -0.2153
  182SLPC   C1220816   0.302   6.255  11.044 -0.5392  0.2233 -0.7547
  182SLPC  H12A20817   0.276   6.337  11.109  1.0778  0.8889 -0.9217
  182SLPC  H12B20818   0.300   6.162  11.098 -0.8828  0.3992 -0.4661
  182SLPC   C1120819   0.197   6.237  10.937  0.0406 -1.1913 -0.1794
  182SLPC  H11A20820   0.101   6.206  10.982 -2.0583  3.8658 -0.8249
  182SLPC  H11B20821   0.223   6.158  10.863  1.2130 -1.7150  0.7726
  182SLPC     P20822   0.093   6.481  10.919  0.3202  0.0214 -0.3323
  182SLPC   O1320823   0.081   6.455  11.060 -0.2686 -0.3403  0.1961
  182SLPC   O1420824   0.168   6.608  10.888 -0.4310 -0.0549 -0.5915
  182SLPC   O1220825   0.166   6.356  10.863  0.3896  0.4796  0.4092
  182SLPC   O1120826  -0.042   6.475  10.856  0.5307  1.1608 -0.1338
  182SLPC    C120827  -0.063   6.450  10.716  0.2905  0.3549 -0.0452
  182SLPC    HA20828   0.011   6.509  10.658  1.4081  1.0723  2.0685
  182SLPC    HB20829  -0.054   6.345  10.681  0.0422  0.1722  0.4355
  182SLPC    C220830  -0.211   6.489  10.677 -0.4171 -0.1752  0.1038
  182SLPC    HS20831  -0.282   6.451  10.753 -3.4516  0.3715 -2.3660
  182SLPC   O2120832  -0.236   6.427  10.543  0.1421 -0.0106 -0.1502
  182SLPC   C2120833  -0.366   6.429  10.518 -0.4041  0.0453 -0.0499
  182SLPC   O2220834  -0.455   6.467  10.596  0.0569  0.2489  0.6881
  182SLPC   C2220835  -0.396   6.390  10.366 -1.1020 -0.3561 -1.0128
  182SLPC   H2R20836  -0.296   6.371  10.321 -0.0205  0.7689  0.8339
  182SLPC   H2S20837  -0.449   6.293  10.379  0.6599 -1.1907  0.1408
  182SLPC    C320838  -0.237   6.642  10.669  0.5156  0.7245  0.2276
  182SLPC    HX20839  -0.232   6.667  10.777  2.5812  0.3368  0.2343
  182SLPC    HY20840  -0.341   6.666  10.636  0.7878 -2.1324 -2.9132
  182SLPC   O3120841  -0.133   6.716  10.601  0.0944  0.5897  0.1096
  182SLPC   C3120842  -0.170   6.759  10.484 -0.1862 -0.3321 -0.0606
  182SLPC   O3220843  -0.279   6.756  10.435  0.3147  0.6073 -0.3010
  182SLPC   C3220844  -0.040   6.818  10.409  0.0017  0.8337  0.2140
  182SLPC   H2X20845   0.049   6.782  10.464  0.2988  1.9872  0.5072
  182SLPC   H2Y20846  -0.066   6.926  10.406  1.5870  1.2740  1.6795
  182SLPC   C2320847  -0.478   6.490  10.279  0.1876  0.0604  0.3658
  182SLPC   H3R20848  -0.410   6.574  10.253 -0.1881  0.7972  1.7243
  182SLPC   H3S20849  -0.565   6.530  10.336  0.2033  1.1554 -0.3668
  182SLPC   C2420850  -0.541   6.429  10.156 -0.2495  0.9171 -0.5852
  182SLPC   H4R20851  -0.605   6.511  10.118 -0.5501  1.7521  1.6101
  182SLPC   H4S20852  -0.600   6.340  10.187 -0.9526  1.3974 -0.5276
  182SLPC   C2520853  -0.444   6.381  10.048 -0.4286 -0.2284  0.4462
  182SLPC   H5R20854  -0.392   6.290  10.084 -1.4016 -0.4302  1.3898
  182SLPC   H5S20855  -0.372   6.462  10.021  0.9706 -1.7374 -0.4252
  182SLPC   C2620856  -0.517   6.336   9.925 -0.1240  0.6622  0.5442
  182SLPC   H6R20857  -0.571   6.420   9.876  0.2984  1.4876  1.4849
  182SLPC   H6S20858  -0.598   6.265   9.952  1.1521 -0.8358  0.5249
  182SLPC   C2720859  -0.423   6.269   9.826 -0.0693  0.0112 -0.0907
  182SLPC   H7R20860  -0.406   6.163   9.853 -1.6198  0.1372  1.4440
  182SLPC   H7S20861  -0.321   6.311   9.841  0.0122 -0.7638  1.6877
  182SLPC   C2820862  -0.469   6.278   9.674 -0.5769  1.2781 -0.0406
  182SLPC   H8R20863  -0.552   6.206   9.662  0.9456 -0.1554 -2.4505
  182SLPC   H8S20864  -0.388   6.233   9.612  0.0167 -0.3972  1.9131
  182SLPC   C2920865  -0.515   6.408   9.618  0.3903 -0.0899  0.1186
  182SLPC   H9R20866  -0.609   6.441   9.666  0.4970  1.4719 -0.6929
  182SLPC  C21020867  -0.460   6.486   9.523 -1.3949 -0.0156 -0.3740
  182SLPC  H10R20868  -0.512   6.581   9.501  1.0242  1.8014  1.3355
  182SLPC  C21120869  -0.329   6.450   9.454 -0.3014  0.3930  0.2260
  182SLPC  H11R20870  -0.279   6.362   9.500 -2.6433 -0.6001  0.9420
  182SLPC  H11S20871  -0.251   6.527   9.470  0.1236  0.0336 -0.1285
  182SLPC  C21220872  -0.345   6.430   9.306  0.3284 -0.4806  0.3977
  182SLPC  H12R20873  -0.424   6.362   9.272 -0.2766 -1.6901  3.9933
  182SLPC  C21320874  -0.282   6.487   9.202 -0.1316 -0.5017 -0.2040
  182SLPC  H13R20875  -0.303   6.463   9.096  0.5742 -1.0811 -0.2148
  182SLPC  C21420876  -0.175   6.595   9.215  0.1038 -0.3973 -0.0255
  182SLPC  H14R20877  -0.086   6.539   9.251 -1.6988 -3.1648  0.3569
  182SLPC  H14S20878  -0.209   6.678   9.281 -2.1599 -0.3766 -1.1532
  182SLPC  C21520879  -0.148   6.649   9.071  0.6808 -0.7679 -0.1904
  182SLPC  H15R20880  -0.240   6.706   9.046  0.4058 -1.1337 -0.0063
  182SLPC  H15S20881  -0.125   6.571   8.996 -0.5256  0.2856 -1.6849
  182SLPC  C21620882  -0.046   6.768   9.058  0.1153  0.0672 -0.8308
  182SLPC  H16R20883   0.063   6.746   9.055 -0.2378 -1.8199 -0.3852
  182SLPC  H16S20884  -0.055   6.828   9.150 -1.8243 -1.1771 -0.1973
  182SLPC  C21720885  -0.067   6.865   8.937 -0.3347 -0.4718 -0.4293
  182SLPC  H17R20886   0.008   6.947   8.947  1.2232 -1.5129 -3.0790
  182SLPC  H17S20887  -0.173   6.898   8.941  0.2312  1.1972  2.2917
  182SLPC  C21820888  -0.045   6.788   8.799 -0.2618  0.2344 -0.4819
  182SLPC  H18R20889  -0.105   6.694   8.804 -0.4200  0.3033 -1.0741
  182SLPC  H18S20890   0.061   6.767   8.776 -1.1245 -4.8111 -0.5095
  182SLPC  H18T20891  -0.091   6.853   8.722  1.5168  0.5940 -1.2546
  182SLPC   C3320892  -0.040   6.780  10.257  0.6885  0.2718 -0.5727
  182SLPC   H3X20893   0.043   6.838  10.212  1.5780  0.0255  0.7307
  182SLPC   H3Y20894  -0.135   6.813  10.208 -0.4791 -2.7384 -0.4300
  182SLPC   C3420895  -0.006   6.632  10.216  0.2409 -0.2556 -0.1130
  182SLPC   H4X20896  -0.061   6.557  10.277  2.0595 -0.9786  0.6691
  182SLPC   H4Y20897   0.100   6.611  10.241  1.2345  3.4016 -0.8930
  182SLPC   C3520898  -0.043   6.617  10.068 -1.2311  0.3942 -0.4529
  182SLPC   H5X20899   0.029   6.673  10.004 -1.4030 -0.7696 -1.7094
  182SLPC   H5Y20900  -0.147   6.654  10.069 -1.4934 -0.3317 -0.5574
  182SLPC   C3620901  -0.045   6.472  10.021  0.4205  0.0422  0.3633
  182SLPC   H6X20902  -0.133   6.431  10.076 -1.4430  1.3381 -1.6130
  182SLPC   H6Y20903   0.045   6.414  10.050  0.0502 -1.3920 -1.3043
  182SLPC   C3720904  -0.077   6.451   9.871  0.5547 -0.0888 -0.5544
  182SLPC   H7X20905  -0.151   6.527   9.837 -1.1763 -2.0379 -1.2540
  182SLPC   H7Y20906  -0.124   6.351   9.857  0.6657 -0.5997  2.3828
  182SLPC   C3820907   0.041   6.476   9.781  0.3988 -0.0502 -0.1890
  182SLPC   H8X20908   0.106   6.387   9.787  0.1977 -0.1541  0.5036
  182SLPC   H8Y20909   0.099   6.564   9.817  3.0450 -0.8506 -2.3204
  182SLPC   C3920910  -0.009   6.498   9.636  0.0460  0.3206  0.8237
  182SLPC   H9X20911  -0.084   6.580   9.639 -0.3124 -0.0280  1.6729
  182SLPC   H9Y20912  -0.066   6.404   9.618 -1.3944  1.1740  0.8129
  182SLPC  C31020913   0.109   6.510   9.537 -0.5248 -0.0389  0.1259
  182SLPC  H10X20914   0.068   6.508   9.434  2.0005 -1.1805 -0.8755
  182SLPC  H10Y20915   0.189   6.434   9.547 -0.3689  0.0973 -0.0868
  182SLPC  C31120916   0.161   6.655   9.557  0.5443  0.6210  0.1932
  182SLPC  H11X20917   0.192   6.678   9.661  1.1716  0.6086  0.0112
  182SLPC  H11Y20918   0.082   6.722   9.516 -1.3068 -0.6561  1.5730
  182SLPC  C31220919   0.284   6.679   9.467 -1.0162  0.2429 -0.3508
  182SLPC  H12X20920   0.299   6.789   9.471  1.4987 -0.0465 -1.0199
  182SLPC  H12Y20921   0.264   6.649   9.362  1.2128 -0.8310 -0.4938
  182SLPC  C31320922   0.407   6.617   9.523  0.9630  0.0168 -0.1686
  182SLPC  H13X20923   0.416   6.511   9.493 -2.3264 -0.6377  0.9912
  182SLPC  H13Y20924   0.407   6.626   9.634 -0.3630  0.5928 -0.2177
  182SLPC  C31420925   0.531   6.684   9.466 -0.1568 -0.0914  0.5015
  182SLPC  H14X20926   0.529   6.795   9.469 -2.0742 -0.1110  0.5091
  182SLPC  H14Y20927   0.536   6.670   9.356 -3.0055  1.4355  0.1473
  182SLPC  C31520928   0.646   6.626   9.538  0.2583  0.3321  0.3173
  182SLPC  H15X20929   0.656   6.520   9.507  1.5472 -0.0891  2.0917
  182SLPC  H15Y20930   0.630   6.627   9.648  1.7544  2.6904  0.5355
  182SLPC  C31620931   0.775   6.699   9.505  0.5080  0.3309 -0.1726
  182SLPC  H16X20932   0.758   6.808   9.517  3.3391  0.8378 -0.5576
  182SLPC  H16Y20933   0.806   6.675   9.401  0.2200 -0.7875 -0.0129
  182SLPC  C31720934   0.892   6.664   9.598 -0.4959  0.3682 -0.2914
  182SLPC  H17X20935   0.918   6.556   9.595 -1.0013  0.1477  2.3285
  182SLPC  H17Y20936   0.863   6.690   9.702 -0.5385  2.0057 -0.7014
  182SLPC  C31820937   1.016   6.739   9.572 -0.3794 -0.5515 -0.3208
  182SLPC  H18X20938   0.992   6.847   9.567 -0.5940 -0.5408  0.7424
  182SLPC  H18Y20939   1.072   6.703   9.484  0.5379 -0.2051  0.1163
  182SLPC  H18Z20940   1.089   6.727   9.655 -0.5646 -1.3645 -0.2721
  183SLPC     N20941   1.956   1.368  10.712 -0.1521  0.0989 -0.0087
  183SLPC   C1320942   2.080   1.344  10.788  0.2341  0.8963 -0.1148
  183SLPC  H13A20943   2.152   1.290  10.728  1.2498  1.2436  0.7681
  183SLPC  H13B20944   2.128   1.432  10.828  0.4484  0.5247  0.4531
  183SLPC  H13C20945   2.063   1.280  10.873  1.5536 -0.8749 -1.1368
  183SLPC   C1420946   1.975   1.464  10.606 -0.1125 -0.3332  0.3817
  183SLPC  H14A20947   1.885   1.483  10.548 -0.6510 -3.4582  0.0950
  183SLPC  H14B20948   2.015   1.551  10.655 -1.0874  0.6130 -0.4449
  183SLPC  H14C20949   2.062   1.421  10.559 -0.3224 -0.4097  0.0617
  183SLPC   C1520950   1.856   1.426  10.806  0.1794 -0.4140 -0.4096
  183SLPC  H15A20951   1.881   1.523  10.847 -1.4898  1.5285 -3.7537
  183SLPC  H15B20952   1.764   1.441  10.753  0.4539  2.5256 -0.1328
  183SLPC  H15C20953   1.833   1.361  10.889  2.6855 -0.7661  0.0427
  183SLPC   C1220954   1.897   1.243  10.645 -0.0857  0.1577 -0.1924
  183SLPC  H12A20955   1.969   1.202  10.577  0.8970 -0.1903  1.0443
  183SLPC  H12B20956   1.810   1.275  10.590  1.0482  0.3420 -1.9095
  183SLPC   C1120957   1.853   1.139  10.750 -0.8043  0.8154  0.4637
  183SLPC  H11A20958   1.935   1.113  10.820 -1.4999  0.0830  1.0073
  183SLPC  H11B20959   1.833   1.046  10.693 -0.8898  0.2460  1.4105
  183SLPC     P20960   1.588   1.150  10.771 -0.0555  0.4172 -0.3400
  183SLPC   O1320961   1.548   1.015  10.821 -0.3530  0.3589  0.1103
  183SLPC   O1420962   1.511   1.261  10.809  0.8552 -0.1216  0.0764
  183SLPC   O1220963   1.734   1.177  10.820 -0.2750 -0.1358 -0.3061
  183SLPC   O1120964   1.608   1.144  10.617  0.2071  0.1170 -0.1390
  183SLPC    C120965   1.492   1.125  10.536  0.0482 -0.7576 -0.5315
  183SLPC    HA20966   1.432   1.034  10.561 -1.0602 -0.3804 -1.7490
  183SLPC    HB20967   1.425   1.214  10.532  0.0558 -0.7277 -0.0847
  183SLPC    C220968   1.536   1.104  10.383  0.8526  0.0091 -0.4355
  183SLPC    HS20969   1.446   1.064  10.332 -0.7140  1.8937  0.7649
  183SLPC   O2120970   1.650   1.016  10.374  0.5578  0.1149 -0.4132
  183SLPC   C2120971   1.627   0.889  10.424  0.1162 -1.0379  0.0996
  183SLPC   O2220972   1.512   0.846  10.443 -0.0220 -0.3339  0.0920
  183SLPC   C2220973   1.760   0.818  10.465  0.0572 -0.4565  0.6353
  183SLPC   H2R20974   1.849   0.850  10.408  0.6786 -0.2759  1.6965
  183SLPC   H2S20975   1.783   0.854  10.568  2.6467  1.4100 -0.5463
  183SLPC    C320976   1.579   1.232  10.318 -0.0371 -0.3232 -0.4447
  183SLPC    HX20977   1.676   1.272  10.354 -0.8847  2.4148 -1.1307
  183SLPC    HY20978   1.514   1.318  10.346 -1.5258 -1.2783 -0.9141
  183SLPC   O3120979   1.589   1.220  10.172  0.3144 -0.4199 -0.1801
  183SLPC   C3120980   1.478   1.206  10.103  0.2267  0.4376  0.1937
  183SLPC   O3220981   1.369   1.205  10.162 -0.1055  0.0431  0.2754
  183SLPC   C3220982   1.492   1.207   9.953 -0.2917  0.6665  0.1010
  183SLPC   H2X20983   1.600   1.203   9.929 -0.1622 -1.0766  0.8980
  183SLPC   H2Y20984   1.450   1.300   9.910 -0.3805  1.1460  1.2277
  183SLPC   C2320985   1.752   0.661  10.461 -0.3034 -0.4689  0.0963
  183SLPC   H3R20986   1.758   0.636  10.353 -0.2999  1.5132 -0.3879
  183SLPC   H3S20987   1.654   0.623  10.497 -2.0672  2.6981 -1.1108
  183SLPC   C2420988   1.856   0.588  10.549  0.8650 -0.4731  0.4097
  183SLPC   H4R20989   1.839   0.600  10.659 -1.2841  1.5932 -0.1003
  183SLPC   H4S20990   1.955   0.630  10.523  0.5471 -0.6501 -1.0890
  183SLPC   C2520991   1.870   0.432  10.518 -0.0523 -0.2759  0.3514
  183SLPC   H5R20992   1.766   0.393  10.521  1.0352 -3.8128 -3.0726
  183SLPC   H5S20993   1.927   0.382  10.598 -0.4346 -1.2932 -0.0028
  183SLPC   C2620994   1.931   0.401  10.380 -0.2304 -0.3458 -0.3059
  183SLPC   H6R20995   2.018   0.468  10.359  0.1512 -0.3631  1.1710
  183SLPC   H6S20996   1.861   0.450  10.310  1.8303  1.3703 -1.2263
  183SLPC   C2720997   1.967   0.255  10.356 -0.1024  0.2621  0.6509
  183SLPC   H7R20998   2.031   0.216  10.438 -0.2308  0.9423  1.0783
  183SLPC   H7S20999   2.019   0.238  10.259  1.5126  0.2417  1.4952
  183SLPC   C2821000   1.842   0.156  10.353 -0.6980 -0.3738 -0.2130
  183SLPC   H8R21001   1.791   0.165  10.451  1.3397  1.3086  0.7557
  183SLPC   H8S21002   1.876   0.051  10.356  0.1377 -0.0799  1.3015
  183SLPC   C2921003   1.746   0.186  10.239 -0.5937 -0.0983 -0.3778
  183SLPC   H9R21004   1.657   0.243  10.268 -0.6235  0.1180 -0.8851
  183SLPC  C21021005   1.758   0.159  10.105 -0.1840  0.6834  0.1629
  183SLPC  H10R21006   1.676   0.197  10.042 -0.4595  0.0990  0.1653
  183SLPC  C21121007   1.874   0.086  10.054 -0.2412 -0.1016  0.5612
  183SLPC  H11R21008   1.940   0.043  10.132  2.1057 -0.3516 -1.4831
  183SLPC  H11S21009   1.935   0.147   9.983  2.3110 -2.0098  1.0302
  183SLPC  C21221010   1.834  -0.040   9.975  0.0920 -0.2097 -0.1902
  183SLPC  H12R21011   1.857  -0.133  10.030 -1.6369  0.3590  1.5458
  183SLPC  C21321012   1.784  -0.049   9.849 -0.1879 -0.0344  0.1436
  183SLPC  H13R21013   1.768  -0.154   9.822  1.5380 -0.5376  0.9889
  183SLPC  C21421014   1.746   0.060   9.748  0.1881 -0.0065 -0.2519
  183SLPC  H14R21015   1.702   0.154   9.787  2.9477  1.9066 -1.6189
  183SLPC  H14S21016   1.668   0.017   9.682  0.4638 -1.0816  0.1172
  183SLPC  C21521017   1.856   0.091   9.645 -0.5740 -0.0729  0.3414
  183SLPC  H15R21018   1.949   0.111   9.703 -0.2784  2.3277 -0.9069
  183SLPC  H15S21019   1.823   0.182   9.591 -1.7137 -0.1650  0.8633
  183SLPC  C21621020   1.880  -0.023   9.537  0.4933 -0.9072 -0.0866
  183SLPC  H16R21021   1.779  -0.040   9.496 -0.7402  2.3777  1.4129
  183SLPC  H16S21022   1.911  -0.118   9.586 -1.8926 -0.6824  1.9516
  183SLPC  C21721023   1.982   0.002   9.425 -0.1589 -0.6510 -0.5424
  183SLPC  H17R21024   2.085  -0.006   9.466 -0.0115  0.1949 -0.7344
  183SLPC  H17S21025   1.959   0.109   9.408 -1.3341 -0.9685 -0.9519
  183SLPC  C21821026   1.964  -0.078   9.295  0.9900 -0.1425  0.2115
  183SLPC  H18R21027   1.855  -0.087   9.275  1.3407 -0.0946 -1.7944
  183SLPC  H18S21028   2.003  -0.182   9.305 -1.4251 -0.9773  1.6039
  183SLPC  H18T21029   2.016  -0.023   9.215  0.9148  0.4445  0.5673
  183SLPC   C3321030   1.418   1.088   9.888  0.0170  0.8116 -0.5073
  183SLPC   H3X21031   1.313   1.101   9.922  0.5537 -0.4123  1.8051
  183SLPC   H3Y21032   1.443   0.991   9.937  0.8189  0.4835 -1.5393
  183SLPC   C3421033   1.453   1.087   9.740 -0.3423 -0.2578  0.0512
  183SLPC   H4X21034   1.558   1.056   9.723 -0.3821  0.2073 -1.0614
  183SLPC   H4Y21035   1.430   1.187   9.698 -0.9358 -0.6350 -0.5322
  183SLPC   C3521036   1.355   0.984   9.674  0.3023 -0.4280  0.0210
  183SLPC   H5X21037   1.252   1.022   9.689  0.5532 -0.2049  1.1647
  183SLPC   H5Y21038   1.359   0.887   9.729 -0.7045 -2.0607 -2.6713
  183SLPC   C3621039   1.390   0.933   9.528  0.1712  0.0478 -0.3559
  183SLPC   H6X21040   1.333   0.841   9.500 -2.9125  2.1675 -1.3355
  183SLPC   H6Y21041   1.493   0.891   9.529  0.6176  1.0852  3.1949
  183SLPC   C3721042   1.373   1.050   9.428 -0.2202  1.1376  0.5265
  183SLPC   H7X21043   1.428   1.138   9.467  1.6800 -1.2470  3.3909
  183SLPC   H7Y21044   1.265   1.069   9.409 -0.2568 -0.7054 -1.2734
  183SLPC   C3821045   1.443   1.029   9.298 -0.3615  0.4179 -0.2468
  183SLPC   H8X21046   1.534   0.967   9.315  0.1771  0.9923 -1.0172
  183SLPC   H8Y21047   1.480   1.128   9.262  0.5031 -0.4606 -1.8634
  183SLPC   C3921048   1.354   0.978   9.192  0.1109 -0.2512  0.0979
  183SLPC   H9X21049   1.360   1.052   9.109 -2.0362  0.0385  0.1530
  183SLPC   H9Y21050   1.252   0.967   9.236 -0.5841  0.6772 -1.2288
  183SLPC  C31021051   1.399   0.851   9.128 -0.3919  0.2370 -0.2232
  183SLPC  H10X21052   1.375   0.763   9.192 -3.3319  2.2008  1.5591
  183SLPC  H10Y21053   1.508   0.849   9.111 -0.2840  0.5075  0.4218
  183SLPC  C31121054   1.340   0.831   8.984 -0.2255  0.2467  0.3926
  183SLPC  H11X21055   1.385   0.910   8.920 -1.5660  0.4980 -0.2393
  183SLPC  H11Y21056   1.230   0.845   8.992 -0.3935 -0.7122 -0.2684
  183SLPC  C31221057   1.369   0.694   8.921 -0.3276  0.1779  0.2141
  183SLPC  H12X21058   1.296   0.615   8.948 -0.6617 -0.0680 -1.3899
  183SLPC  H12Y21059   1.473   0.666   8.949 -0.2997 -0.4842 -0.5353
  183SLPC  C31321060   1.386   0.688   8.766 -0.0442 -0.1055  0.1955
  183SLPC  H13X21061   1.400   0.584   8.730  0.6705 -0.0937  0.4195
  183SLPC  H13Y21062   1.479   0.741   8.735 -0.1579  0.1668  0.3205
  183SLPC  C31421063   1.265   0.748   8.681 -0.4867 -0.2212  0.1502
  183SLPC  H14X21064   1.296   0.760   8.575 -0.4425 -1.5622  0.0089
  183SLPC  H14Y21065   1.245   0.853   8.713  1.1530 -0.3657  1.7752
  183SLPC  C31521066   1.136   0.663   8.687 -0.0998 -0.3600 -0.2628
  183SLPC  H15X21067   1.046   0.718   8.655 -0.7994  0.1604  2.4806
  183SLPC  H15Y21068   1.112   0.634   8.792 -1.7081  0.7529 -0.3151
  183SLPC  C31621069   1.135   0.512   8.628 -0.3058 -0.1711  0.2704
  183SLPC  H16X21070   1.217   0.454   8.676 -0.3523  0.3957  1.0574
  183SLPC  H16Y21071   1.179   0.523   8.527  1.0650 -0.2758  0.8400
  183SLPC  C31721072   0.996   0.445   8.626 -0.0268  0.0423 -0.0637
  183SLPC  H17X21073   0.930   0.492   8.702  0.2761 -1.3013  1.0516
  183SLPC  H17Y21074   1.006   0.336   8.641 -1.3219 -0.1072 -0.2246
  183SLPC  C31821075   0.920   0.459   8.492 -0.6229  0.0930 -0.2017
  183SLPC  H18X21076   0.990   0.497   8.414  2.0212 -2.0415  1.0446
  183SLPC  H18Y21077   0.829   0.524   8.495 -0.1922  0.7219 -0.5743
  183SLPC  H18Z21078   0.888   0.356   8.465  0.4758 -0.4932  0.7264
  184SLPC     N21079   3.661   5.327  10.988 -0.0126 -0.0236 -0.1111
  184SLPC   C1321080   3.765   5.348  11.095  0.0754  0.5970 -0.0784
  184SLPC  H13A21081   3.724   5.334  11.194 -0.6404  1.3907 -0.2589
  184SLPC  H13B21082   3.839   5.269  11.088 -1.8748 -1.3937  1.1368
  184SLPC  H13C21083   3.798   5.450  11.104 -3.9966  1.9507  0.0051
  184SLPC   C1421084   3.694   5.392  10.863  0.1575 -0.0615 -0.4377
  184SLPC  H14A21085   3.627   5.361  10.785 -0.9650  0.2511  0.3855
  184SLPC  H14B21086   3.683   5.500  10.868 -1.3241 -0.2248  0.2065
  184SLPC  H14C21087   3.792   5.374  10.822  0.0536  0.3047 -0.8532
  184SLPC   C1521088   3.530   5.381  11.035  0.3421 -0.3029 -0.2368
  184SLPC  H15A21089   3.497   5.355  11.135  0.2721  0.1199 -0.1497
  184SLPC  H15B21090   3.532   5.487  11.015  0.4188  0.0256  1.4325
  184SLPC  H15C21091   3.450   5.356  10.967 -0.5058  0.2118  0.5455
  184SLPC   C1221092   3.650   5.182  10.958  0.0246  0.3647 -0.1646
  184SLPC  H12A21093   3.651   5.126  11.051 -0.7686  1.2114  0.3681
  184SLPC  H12B21094   3.734   5.156  10.896 -0.9638 -2.1349 -0.5195
  184SLPC   C1121095   3.526   5.137  10.881  0.0923  0.2850  0.5710
  184SLPC  H11A21096   3.427   5.166  10.921 -1.8414 -1.6166 -2.5308
  184SLPC  H11B21097   3.520   5.027  10.897  1.5552  0.0863 -0.0881
  184SLPC     P21098   3.640   5.086  10.643  0.3367  0.1641 -0.1003
  184SLPC   O1321099   3.763   5.061  10.709 -0.8332  0.8293  0.0272
  184SLPC   O1421100   3.570   4.967  10.595 -0.1477 -0.1697  0.3500
  184SLPC   O1221101   3.543   5.171  10.743  0.1429 -0.0226  0.7669
  184SLPC   O1121102   3.676   5.181  10.526 -0.1204  0.6840 -0.0621
  184SLPC    C121103   3.668   5.133  10.394  0.2646  0.0250 -0.0124
  184SLPC    HA21104   3.751   5.183  10.339  0.1182  0.5030  0.2042
  184SLPC    HB21105   3.682   5.023  10.383 -0.0595 -0.2987  2.6489
  184SLPC    C221106   3.534   5.180  10.333 -0.4774 -0.4340  0.3507
  184SLPC    HS21107   3.448   5.133  10.384  1.1126 -0.8155  2.7682
  184SLPC   O2121108   3.536   5.172  10.184 -0.4571 -0.0030 -0.3341
  184SLPC   C2121109   3.503   5.055  10.140 -0.4311 -0.2669 -0.2196
  184SLPC   O2221110   3.445   4.970  10.206 -0.5321 -0.2498  0.1560
  184SLPC   C2221111   3.546   5.043   9.993 -1.1219  0.1592  0.2392
  184SLPC   H2R21112   3.518   5.133   9.935 -2.8417 -1.4518 -1.4864
  184SLPC   H2S21113   3.651   5.006   9.991 -1.0013  0.2647  2.6727
  184SLPC    C321114   3.521   5.333  10.372  0.1636 -0.1177  0.1173
  184SLPC    HX21115   3.614   5.392  10.364  0.2666 -0.6160 -3.0815
  184SLPC    HY21116   3.488   5.341  10.478 -2.1068  0.4614 -0.6039
  184SLPC   O3121117   3.417   5.386  10.301 -0.2202  0.4609  0.2114
  184SLPC   C3121118   3.288   5.368  10.347  0.1232  0.1478  0.5271
  184SLPC   O3221119   3.266   5.319  10.460  0.4131  0.0298 -0.1704
  184SLPC   C3221120   3.185   5.432  10.244  0.1148  0.0389  0.2095
  184SLPC   H2X21121   3.187   5.393  10.140 -2.6029  0.9235 -0.2082
  184SLPC   H2Y21122   3.213   5.539  10.242 -0.2591  0.1410  0.3996
  184SLPC   C2321123   3.470   4.940   9.911  0.1970  0.8104 -0.2276
  184SLPC   H3R21124   3.365   4.973   9.896 -0.8465 -2.7666 -1.1921
  184SLPC   H3S21125   3.468   4.838   9.955  1.2798  0.8554 -0.0678
  184SLPC   C2421126   3.557   4.921   9.784 -0.2201 -0.4437  0.1174
  184SLPC   H4R21127   3.642   4.862   9.825 -0.1844 -1.5444 -1.5020
  184SLPC   H4S21128   3.599   5.014   9.741  1.1363 -1.4183 -0.7129
  184SLPC   C2521129   3.501   4.837   9.669  1.1915 -0.2059 -0.2717
  184SLPC   H5R21130   3.440   4.754   9.711  1.5075 -1.0613 -1.4835
  184SLPC   H5S21131   3.587   4.793   9.613  1.7929  1.9994 -1.1213
  184SLPC   C2621132   3.410   4.917   9.573  0.3833  0.2396 -0.1322
  184SLPC   H6R21133   3.460   5.002   9.521  0.7528  0.4348  0.5390
  184SLPC   H6S21134   3.330   4.964   9.634  0.9485  0.6442  0.3055
  184SLPC   C2721135   3.351   4.821   9.472  0.0800  0.0344 -0.3747
  184SLPC   H7R21136   3.271   4.759   9.518  0.1296 -0.2006 -0.6084
  184SLPC   H7S21137   3.433   4.752   9.442 -0.2786 -0.2750 -0.6488
  184SLPC   C2821138   3.309   4.892   9.343 -0.0741 -0.8299 -0.1384
  184SLPC   H8R21139   3.406   4.939   9.316  0.1076 -0.6981  0.7095
  184SLPC   H8S21140   3.235   4.969   9.375  1.7214  0.8840 -0.0315
  184SLPC   C2921141   3.278   4.786   9.232 -0.4085 -0.1844  0.1430
  184SLPC   H9R21142   3.301   4.684   9.266  0.3201 -0.9761 -2.6153
  184SLPC  C21021143   3.220   4.814   9.115 -0.5298  0.0583 -0.6587
  184SLPC  H10R21144   3.185   4.734   9.048 -1.1286 -0.5119  0.3321
  184SLPC  C21121145   3.185   4.953   9.066  0.1445  0.0760 -0.2955
  184SLPC  H11R21146   3.219   5.029   9.140 -0.6579 -0.6808  0.8643
  184SLPC  H11S21147   3.078   4.951   9.094  0.9261 -0.7055  2.8027
  184SLPC  C21221148   3.193   5.007   8.926  0.1890 -0.1119  0.1681
  184SLPC  H12R21149   3.103   5.048   8.878  0.1103  0.3082  0.6730
  184SLPC  C21321150   3.308   5.011   8.847  0.5174 -0.6032 -0.5910
  184SLPC  H13R21151   3.291   5.049   8.745  0.5850 -0.5780 -0.5939
  184SLPC  C21421152   3.448   4.963   8.888 -0.2759  0.5399  0.2566
  184SLPC  H14R21153   3.454   4.938   8.996  0.2678 -1.1832 -0.1522
  184SLPC  H14S21154   3.524   5.041   8.867 -0.2244  0.0479 -1.4308
  184SLPC  C21521155   3.485   4.824   8.831  0.0945 -0.2960  0.2922
  184SLPC  H15R21156   3.504   4.831   8.721  2.2751 -2.8998  0.4640
  184SLPC  H15S21157   3.402   4.752   8.850 -0.3420  0.0762 -0.1812
  184SLPC  C21621158   3.613   4.778   8.890  0.1695 -0.0516 -0.0195
  184SLPC  H16R21159   3.615   4.764   9.000  2.8068  0.1772  0.0064
  184SLPC  H16S21160   3.693   4.850   8.864 -0.9283  0.4146 -2.2728
  184SLPC  C21721161   3.657   4.639   8.830 -0.8401  0.2687  0.5324
  184SLPC  H17R21162   3.666   4.649   8.720 -1.5767  1.6319  0.5942
  184SLPC  H17S21163   3.579   4.564   8.852  0.0856 -0.3315  1.8740
  184SLPC  C21821164   3.783   4.585   8.892 -0.0905 -0.1969  0.3365
  184SLPC  H18R21165   3.778   4.542   8.994 -0.0567 -2.7343 -0.6944
  184SLPC  H18S21166   3.861   4.665   8.897 -1.2670  0.9173  1.0548
  184SLPC  H18T21167   3.820   4.502   8.828 -2.2260 -0.8961 -0.0385
  184SLPC   C3321168   3.042   5.399  10.284  0.2417 -0.0146  1.3536
  184SLPC   H3X21169   3.022   5.416  10.392  2.2725 -1.2048  1.9511
  184SLPC   H3Y21170   3.020   5.292  10.264  0.8679 -0.1526  1.3957
  184SLPC   C3421171   2.937   5.495  10.223 -0.2306  0.4418 -0.9390
  184SLPC   H4X21172   2.936   5.480  10.113  1.2798 -0.6668 -0.8208
  184SLPC   H4Y21173   2.962   5.599  10.253 -0.0857 -0.0672  0.7746
  184SLPC   C3521174   2.799   5.471  10.286 -0.7615 -0.4008 -0.4292
  184SLPC   H5X21175   2.795   5.513  10.388 -1.1426 -1.9721  0.2117
  184SLPC   H5Y21176   2.784   5.361  10.288 -1.9249 -0.2895 -2.2157
  184SLPC   C3621177   2.686   5.535  10.203 -0.1619 -0.1643  0.3105
  184SLPC   H6X21178   2.740   5.604  10.135  2.0646  0.9255  3.1024
  184SLPC   H6Y21179   2.627   5.602  10.269 -1.7136  0.4715 -1.6499
  184SLPC   C3721180   2.610   5.443  10.108 -0.2818 -0.7064  0.9887
  184SLPC   H7X21181   2.523   5.396  10.158 -0.3004  0.6156  2.2582
  184SLPC   H7Y21182   2.685   5.374  10.064  0.3052  0.1982  0.5573
  184SLPC   C3821183   2.544   5.503   9.983  0.1215 -0.0668  0.4405
  184SLPC   H8X21184   2.629   5.535   9.920 -1.1709 -0.7817 -1.7561
  184SLPC   H8Y21185   2.487   5.587  10.027  0.1092 -1.7327  3.6888
  184SLPC   C3921186   2.458   5.397   9.907 -0.0815 -0.5849 -0.1397
  184SLPC   H9X21187   2.376   5.356   9.970 -1.8512  2.4883 -0.3148
  184SLPC   H9Y21188   2.512   5.300   9.900 -0.4205 -0.7105 -1.0104
  184SLPC  C31021189   2.407   5.441   9.770 -0.2452  0.1022  0.1227
  184SLPC  H10X21190   2.485   5.477   9.699  1.3685 -1.0580  1.3102
  184SLPC  H10Y21191   2.340   5.526   9.796  0.8968  0.9227  0.4284
  184SLPC  C31121192   2.323   5.334   9.709 -0.1052  0.1760  0.4114
  184SLPC  H11X21193   2.238   5.319   9.780  0.6161  0.0460  1.2472
  184SLPC  H11Y21194   2.377   5.238   9.720 -0.2995  0.1763  1.3906
  184SLPC  C31221195   2.273   5.359   9.561  0.3684 -0.7593  0.2137
  184SLPC  H12X21196   2.209   5.446   9.536 -0.5217 -1.1090  1.2175
  184SLPC  H12Y21197   2.212   5.270   9.537 -1.2670 -0.0986  1.7650
  184SLPC  C31321198   2.380   5.353   9.452  0.7017  0.2608 -0.3592
  184SLPC  H13X21199   2.446   5.266   9.468  0.3010  0.3672  2.0037
  184SLPC  H13Y21200   2.440   5.444   9.474 -0.4543  0.9593 -0.0160
  184SLPC  C31421201   2.315   5.366   9.313 -0.2984  0.2870  0.3362
  184SLPC  H14X21202   2.222   5.427   9.318  0.0454  0.7967  0.4779
  184SLPC  H14Y21203   2.274   5.264   9.297 -0.4984  0.8178 -2.8799
  184SLPC  C31521204   2.406   5.385   9.186 -0.6276  0.3555  0.2011
  184SLPC  H15X21205   2.490   5.315   9.205 -0.4277  1.0192  1.8373
  184SLPC  H15Y21206   2.449   5.487   9.182 -1.8704  0.9006  0.3450
  184SLPC  C31621207   2.338   5.356   9.054 -0.8089  0.8381  0.4362
  184SLPC  H16X21208   2.303   5.251   9.049 -0.6269  0.7902  0.1503
  184SLPC  H16Y21209   2.422   5.369   8.982 -0.3850  0.4081  0.8531
  184SLPC  C31721210   2.234   5.462   9.004 -0.5787  0.3473  0.8575
  184SLPC  H17X21211   2.270   5.564   9.027 -0.6664  0.6671 -0.4051
  184SLPC  H17Y21212   2.142   5.454   9.067  0.4605 -0.5051  2.2864
  184SLPC  C31821213   2.209   5.465   8.852 -0.2406  0.2405 -0.2800
  184SLPC  H18X21214   2.301   5.489   8.795 -0.8591  1.3591 -0.8182
  184SLPC  H18Y21215   2.128   5.538   8.830 -2.0513  0.1252  5.1181
  184SLPC  H18Z21216   2.169   5.369   8.810 -0.3258 -0.0052  0.3548
  185SLPC     N21217   1.130   0.814   6.335 -0.1489 -0.6553 -0.1769
  185SLPC   C1321218   1.240   0.768   6.245  0.6403  0.2515  0.1085
  185SLPC  H13A21219   1.199   0.781   6.146  0.1069 -0.2685  0.2587
  185SLPC  H13B21220   1.333   0.821   6.261  0.2406  1.0114 -0.0346
  185SLPC  H13C21221   1.255   0.663   6.264 -2.4094 -0.3187 -0.3057
  185SLPC   C1421222   1.026   0.713   6.318  0.1189 -0.0678 -0.0664
  185SLPC  H14A21223   0.930   0.752   6.349 -0.4506 -0.1250 -1.7384
  185SLPC  H14B21224   1.022   0.676   6.217 -1.1241 -1.6489  0.5355
  185SLPC  H14C21225   1.060   0.629   6.378  0.9334 -0.2827 -0.8279
  185SLPC   C1521226   1.081   0.952   6.289  0.4362 -0.2796 -0.2617
  185SLPC  H15A21227   1.069   0.947   6.182 -1.3468  2.8785 -0.2544
  185SLPC  H15B21228   0.988   0.977   6.338  1.1891 -0.3897  1.2713
  185SLPC  H15C21229   1.142   1.035   6.322  1.1040 -1.2774  1.0756
  185SLPC   C1221230   1.181   0.828   6.482  0.3305 -0.4690  0.1371
  185SLPC  H12A21231   1.278   0.874   6.477  1.1408 -2.3180 -1.7728
  185SLPC  H12B21232   1.203   0.731   6.523  0.4567 -0.2359  0.6202
  185SLPC   C1121233   1.098   0.887   6.592  0.4709 -0.3215  0.1496
  185SLPC  H11A21234   1.144   0.886   6.693  0.6149 -0.4061  0.0841
  185SLPC  H11B21235   0.999   0.838   6.593 -1.2144  2.9530  2.0882
  185SLPC     P21236   0.948   1.098   6.610  0.2832 -0.2183  0.2865
  185SLPC   O1321237   0.927   1.201   6.510 -0.0133 -0.9542  0.0986
  185SLPC   O1421238   0.833   1.012   6.646 -0.3177  0.1115  0.2931
  185SLPC   O1221239   1.072   1.021   6.568  0.3906 -0.6066  0.0587
  185SLPC   O1121240   1.001   1.162   6.751  0.0166 -0.2806  0.3826
  185SLPC    C121241   1.135   1.213   6.782  0.4627 -0.2951  0.2780
  185SLPC    HA21242   1.201   1.144   6.838  2.1519  1.6440  0.7311
  185SLPC    HB21243   1.190   1.244   6.691  0.0070 -0.5240 -0.0758
  185SLPC    C221244   1.122   1.346   6.862 -0.0077 -0.1145  0.3705
  185SLPC    HS21245   1.215   1.390   6.905 -0.9262  0.6502  1.5896
  185SLPC   O2121246   1.042   1.310   6.976  0.7267  0.3351 -0.2983
  185SLPC   C2121247   1.102   1.239   7.075 -0.2047 -0.6340  0.1102
  185SLPC   O2221248   1.218   1.212   7.071 -0.2132  0.2618  0.0248
  185SLPC   C2221249   1.008   1.209   7.182  0.1271  0.7928 -0.5796
  185SLPC   H2R21250   0.920   1.274   7.198  1.2695  1.9802  1.0521
  185SLPC   H2S21251   0.975   1.103   7.175 -0.5132  0.8566  1.2973
  185SLPC    C321252   1.064   1.460   6.784 -0.6421  1.0094 -0.2971
  185SLPC    HX21253   0.964   1.438   6.742 -1.3129 -1.9724  2.6705
  185SLPC    HY21254   1.127   1.465   6.693 -1.0411  0.7032 -0.5927
  185SLPC   O3121255   1.068   1.586   6.855  0.7659  0.1000  0.0577
  185SLPC   C3121256   1.163   1.672   6.836  0.3400  0.2687  0.3680
  185SLPC   O3221257   1.262   1.661   6.756 -0.4515 -0.6838 -0.0219
  185SLPC   C3221258   1.130   1.802   6.916 -0.2213  0.2990  0.8275
  185SLPC   H2X21259   1.038   1.846   6.872 -0.6195 -1.6330 -0.3204
  185SLPC   H2Y21260   1.204   1.881   6.887  1.3338 -0.4421  2.6483
  185SLPC   C2321261   1.075   1.232   7.320 -0.4957  0.4053 -0.5566
  185SLPC   H3R21262   1.086   1.340   7.342 -0.7551  0.8665 -2.5808
  185SLPC   H3S21263   1.171   1.177   7.315 -1.8529 -1.8321 -4.3965
  185SLPC   C2421264   0.997   1.178   7.432  0.6022 -0.2256  0.5129
  185SLPC   H4R21265   0.979   1.068   7.437  2.8516 -0.5982  1.2224
  185SLPC   H4S21266   0.894   1.219   7.433 -0.1124 -1.7883 -2.8360
  185SLPC   C2521267   1.063   1.217   7.570 -0.0905 -0.5267 -0.1843
  185SLPC   H5R21268   1.083   1.326   7.578 -0.0340 -0.3764 -2.0126
  185SLPC   H5S21269   1.159   1.162   7.558  0.4449  0.6766 -1.6422
  185SLPC   C2621270   0.997   1.149   7.694 -0.2516 -0.1801  0.8169
  185SLPC   H6R21271   0.979   1.039   7.688 -3.0843  0.3150 -0.7380
  185SLPC   H6S21272   0.900   1.198   7.719  0.2145 -0.1703  2.7162
  185SLPC   C2721273   1.094   1.170   7.814  0.3175 -0.2196  1.1899
  185SLPC   H7R21274   1.106   1.280   7.824 -2.2887  0.1062  1.1668
  185SLPC   H7S21275   1.195   1.139   7.780 -0.6531  0.1978 -2.2820
  185SLPC   C2821276   1.052   1.097   7.938  0.4647 -0.5124  0.4281
  185SLPC   H8R21277   1.126   1.092   8.021  0.7566  0.4579  0.2206
  185SLPC   H8S21278   1.042   0.993   7.900 -0.0298  0.0291 -0.9506
  185SLPC   C2921279   0.917   1.151   7.992 -0.7219 -0.0916  0.3175
  185SLPC   H9R21280   0.888   1.254   7.969 -1.1225 -0.3153 -0.1944
  185SLPC  C21021281   0.846   1.070   8.075 -0.4787  0.0641  0.1279
  185SLPC  H10R21282   0.754   1.104   8.124  0.6268  3.3516  0.0033
  185SLPC  C21121283   0.878   0.924   8.128  0.2603 -0.3707  0.0851
  185SLPC  H11R21284   0.979   0.889   8.098  0.1089 -1.0677  0.3831
  185SLPC  H11S21285   0.814   0.852   8.073 -0.4988  1.1596 -1.0815
  185SLPC  C21221286   0.869   0.889   8.275  0.3858  0.1675 -0.2394
  185SLPC  H12R21287   0.797   0.809   8.295  0.4690 -0.4926 -2.3948
  185SLPC  C21321288   0.939   0.942   8.380 -0.7666 -0.2763  0.0368
  185SLPC  H13R21289   0.914   0.918   8.485  1.0620 -1.0371  0.3128
  185SLPC  C21421290   1.033   1.066   8.364 -0.5915 -0.9926  0.2270
  185SLPC  H14R21291   1.007   1.119   8.270 -0.1656  0.4585  0.9196
  185SLPC  H14S21292   1.139   1.033   8.360  0.0468  1.0783 -0.6475
  185SLPC  C21521293   1.016   1.165   8.478 -0.2654  0.2418  0.4323
  185SLPC  H15R21294   1.071   1.256   8.448  0.6284 -1.4297 -3.4148
  185SLPC  H15S21295   1.068   1.128   8.569 -1.2321  0.2253  0.9787
  185SLPC  C21621296   0.861   1.191   8.499 -0.2057  0.4391 -0.2137
  185SLPC  H16R21297   0.819   1.116   8.570 -0.2155  0.7497  0.1071
  185SLPC  H16S21298   0.798   1.186   8.407 -1.9887 -1.3349  1.0514
  185SLPC  C21721299   0.840   1.332   8.550 -0.4979  0.1559 -0.8431
  185SLPC  H17R21300   0.759   1.385   8.495  0.3346  0.3950 -1.8494
  185SLPC  H17S21301   0.930   1.396   8.553 -0.2970 -0.1144 -1.0647
  185SLPC  C21821302   0.801   1.323   8.696 -0.8286 -0.4439  1.0232
  185SLPC  H18R21303   0.879   1.274   8.759 -0.5998 -0.3645  0.8063
  185SLPC  H18S21304   0.702   1.276   8.712 -1.2678  0.3466  0.6242
  185SLPC  H18T21305   0.796   1.427   8.734 -3.3619 -0.0460 -0.2982
  185SLPC   C3321306   1.130   1.795   7.069 -1.1467 -0.0049  0.5742
  185SLPC   H3X21307   1.137   1.898   7.110  0.1919 -0.0354  0.4416
  185SLPC   H3Y21308   1.214   1.743   7.118  0.1098  1.8399  0.4193
  185SLPC   C3421309   0.995   1.738   7.128  0.2069 -0.2935  0.7703
  185SLPC   H4X21310   0.980   1.630   7.104  2.1482 -0.2454 -0.7728
  185SLPC   H4Y21311   0.908   1.792   7.086  0.9174  0.6278  0.4714
  185SLPC   C3521312   0.996   1.759   7.280  0.6882  0.4230 -0.4617
  185SLPC   H5X21313   0.895   1.734   7.320  2.2600 -0.6232  3.0463
  185SLPC   H5Y21314   1.021   1.864   7.306  1.3258  0.9097 -2.9361
  185SLPC   C3621315   1.104   1.673   7.356  0.4559 -0.0789  0.1094
  185SLPC   H6X21316   1.202   1.708   7.318  1.3038 -0.9407  1.4437
  185SLPC   H6Y21317   1.086   1.565   7.338  1.8904  0.0177 -2.0615
  185SLPC   C3721318   1.106   1.699   7.514  0.0322 -0.7817 -0.0555
  185SLPC   H7X21319   1.112   1.809   7.533 -2.9347 -0.6571  0.5413
  185SLPC   H7Y21320   1.195   1.643   7.550  0.5731 -0.7929 -1.3850
  185SLPC   C3821321   0.971   1.652   7.582 -0.2348  0.2576 -0.1779
  185SLPC   H8X21322   0.967   1.542   7.571 -1.9397  0.1014  1.7971
  185SLPC   H8Y21323   0.888   1.693   7.520 -0.6912 -1.9734 -1.0687
  185SLPC   C3921324   0.960   1.707   7.725  0.3346  0.0459  0.3529
  185SLPC   H9X21325   0.854   1.686   7.754  0.0626  0.9476  0.0508
  185SLPC   H9Y21326   0.978   1.817   7.726  1.4459 -0.1322 -0.1874
  185SLPC  C31021327   1.054   1.631   7.826  0.0199 -0.9796  0.0580
  185SLPC  H10X21328   1.161   1.649   7.803 -0.6534  1.1805 -1.5654
  185SLPC  H10Y21329   1.032   1.523   7.812 -0.8787 -0.5683 -1.9197
  185SLPC  C31121330   1.026   1.681   7.970 -0.2004  0.3395 -1.1306
  185SLPC  H11X21331   0.920   1.663   7.999  0.0558 -0.1972 -0.4821
  185SLPC  H11Y21332   1.046   1.790   7.976  1.2730  0.0222  0.0706
  185SLPC  C31221333   1.121   1.596   8.062  0.1552  0.1728  0.4552
  185SLPC  H12X21334   1.226   1.590   8.027 -0.3358  1.2749 -1.3038
  185SLPC  H12Y21335   1.075   1.496   8.076 -2.2443  0.7374 -2.6732
  185SLPC  C31321336   1.117   1.664   8.201 -0.2879  0.3773  0.2559
  185SLPC  H13X21337   1.012   1.663   8.237  0.0470  0.8312  1.2703
  185SLPC  H13Y21338   1.160   1.767   8.198 -0.6654  0.5772  1.3736
  185SLPC  C31421339   1.186   1.586   8.315  0.1389  0.0572 -0.9709
  185SLPC  H14X21340   1.294   1.596   8.291 -0.0303  1.0829 -1.3300
  185SLPC  H14Y21341   1.157   1.479   8.321 -1.4358  0.5205 -0.0158
  185SLPC  C31521342   1.167   1.650   8.457  0.0918 -0.0680 -0.3460
  185SLPC  H15X21343   1.068   1.634   8.505  0.8201 -1.2475  0.8263
  185SLPC  H15Y21344   1.183   1.759   8.447  2.9586 -0.5605 -1.6703
  185SLPC  C31621345   1.264   1.604   8.565 -0.3643  0.0615  0.0794
  185SLPC  H16X21346   1.367   1.608   8.522  0.7933 -0.5368  2.6916
  185SLPC  H16Y21347   1.244   1.497   8.591  1.7062 -0.4284 -0.2523
  185SLPC  C31721348   1.259   1.692   8.692 -0.0224  0.3994 -0.1620
  185SLPC  H17X21349   1.261   1.797   8.658  1.2351 -0.0160 -1.4111
  185SLPC  H17Y21350   1.356   1.677   8.743 -0.5188  2.0344  1.3236
  185SLPC  C31821351   1.149   1.662   8.792  0.1040  0.5901  0.0651
  185SLPC  H18X21352   1.051   1.675   8.743 -0.4777 -0.9978  0.7461
  185SLPC  H18Y21353   1.160   1.728   8.880 -0.2726 -1.5087  1.7399
  185SLPC  H18Z21354   1.143   1.555   8.822  0.7739  1.3769  3.1519
  186SLPC     N21355   2.548   4.343   6.294  0.1759  0.0332  0.1709
  186SLPC   C1321356   2.678   4.337   6.219  0.4619  0.9244 -0.6207
  186SLPC  H13A21357   2.699   4.435   6.179  0.8244  0.6700 -1.0656
  186SLPC  H13B21358   2.759   4.307   6.283 -0.4820  0.3414  0.3058
  186SLPC  H13C21359   2.678   4.264   6.140  0.4514 -1.2954  1.3882
  186SLPC   C1421360   2.537   4.220   6.377 -0.3393  0.7155  0.4008
  186SLPC  H14A21361   2.563   4.131   6.322  1.9626 -0.1152  2.7531
  186SLPC  H14B21362   2.609   4.224   6.457  1.8892  2.0134 -1.6303
  186SLPC  H14C21363   2.438   4.212   6.421 -0.0946  0.2253  0.8713
  186SLPC   C1521364   2.437   4.337   6.196  0.6846  0.5811 -0.4949
  186SLPC  H15A21365   2.438   4.240   6.148 -0.9882 -0.3905  1.3575
  186SLPC  H15B21366   2.345   4.363   6.247  0.8991 -1.1682  0.8448
  186SLPC  H15C21367   2.454   4.411   6.119  2.6531 -0.0478 -0.7017
  186SLPC   C1221368   2.530   4.473   6.368 -0.5340  0.0954  0.0906
  186SLPC  H12A21369   2.611   4.492   6.437  1.0549 -3.3069 -0.7211
  186SLPC  H12B21370   2.445   4.464   6.434 -1.3497  3.2881 -0.4380
  186SLPC   C1121371   2.511   4.613   6.298  0.0590  0.0676  0.9028
  186SLPC  H11A21372   2.592   4.635   6.225 -0.9331  1.9875  0.3325
  186SLPC  H11B21373   2.524   4.695   6.372  0.3205 -0.7581  1.7765
  186SLPC     P21374   2.251   4.652   6.298 -0.1262  0.3090  0.0399
  186SLPC   O1321375   2.223   4.796   6.296 -0.5494 -0.3459 -0.1257
  186SLPC   O1421376   2.148   4.570   6.236  0.0357  0.4985 -0.1859
  186SLPC   O1221377   2.385   4.620   6.228  0.1050  0.0505 -0.5195
  186SLPC   O1121378   2.279   4.601   6.451  0.8768 -0.5860  0.3423
  186SLPC    C121379   2.201   4.665   6.551 -0.2322 -0.3518  0.1529
  186SLPC    HA21380   2.189   4.775   6.544  2.5704 -0.2022 -3.6675
  186SLPC    HB21381   2.106   4.607   6.550  1.3132 -3.0110 -2.1538
  186SLPC    C221382   2.241   4.623   6.699 -0.7598  0.7928 -0.5118
  186SLPC    HS21383   2.342   4.664   6.718 -0.7949 -0.3555  2.4539
  186SLPC   O2121384   2.238   4.477   6.708  0.3014  0.2710  0.2461
  186SLPC   C2121385   2.360   4.421   6.692  0.4150  0.1096 -0.2023
  186SLPC   O2221386   2.460   4.480   6.664 -0.8159  0.2753 -0.1143
  186SLPC   C2221387   2.345   4.272   6.701  0.5151 -0.4717  0.0591
  186SLPC   H2R21388   2.257   4.248   6.638  0.2415 -0.7640  0.5504
  186SLPC   H2S21389   2.432   4.224   6.651  2.9686  2.8591  0.9995
  186SLPC    C321390   2.159   4.688   6.811 -0.3484  0.2726 -0.2449
  186SLPC    HX21391   2.053   4.681   6.780 -0.2912  2.2026 -0.9548
  186SLPC    HY21392   2.176   4.797   6.803 -2.9467  0.6496 -1.1444
  186SLPC   O3121393   2.190   4.631   6.937 -0.8606  1.1797  0.1196
  186SLPC   C3121394   2.097   4.552   6.995 -0.6702  0.9284  0.8762
  186SLPC   O3221395   1.996   4.517   6.937  0.0285 -0.0709  0.1072
  186SLPC   C3221396   2.158   4.499   7.120 -0.5655 -0.0188 -0.7107
  186SLPC   H2X21397   2.184   4.583   7.187 -2.9497  0.0991  0.1365
  186SLPC   H2Y21398   2.252   4.448   7.092 -0.6503 -0.5598 -0.0145
  186SLPC   C2321399   2.331   4.225   6.852 -0.0971  0.9234  0.7835
  186SLPC   H3R21400   2.327   4.115   6.864  2.8524  0.7935  0.9445
  186SLPC   H3S21401   2.235   4.256   6.898  1.0400  1.8674  2.5565
  186SLPC   C2421402   2.454   4.279   6.933 -0.2511  0.1154  0.1686
  186SLPC   H4R21403   2.457   4.390   6.943  0.7887 -0.0045  1.2284
  186SLPC   H4S21404   2.537   4.236   6.873 -1.6462 -0.7551 -1.2008
  186SLPC   C2521405   2.469   4.222   7.073 -0.2918 -0.7093  0.5647
  186SLPC   H5R21406   2.458   4.112   7.063  0.2533 -1.0135  2.9884
  186SLPC   H5S21407   2.383   4.244   7.140 -1.8165 -3.6107 -0.3812
  186SLPC   C2621408   2.608   4.257   7.138 -1.2176  0.5990  0.6210
  186SLPC   H6R21409   2.596   4.351   7.195 -1.7105 -0.5978  2.5148
  186SLPC   H6S21410   2.691   4.262   7.064 -0.5319  1.1703  1.4279
  186SLPC   C2721411   2.650   4.152   7.245  0.1321  0.4083 -0.0959
  186SLPC   H7R21412   2.749   4.186   7.284  0.2672  0.3333 -0.3777
  186SLPC   H7S21413   2.673   4.060   7.187 -1.4292  0.4269 -0.7544
  186SLPC   C2821414   2.557   4.118   7.358 -0.7439  1.1568 -0.1411
  186SLPC   H8R21415   2.584   4.016   7.394  0.3017  0.9104 -1.5503
  186SLPC   H8S21416   2.455   4.105   7.316 -0.3081  0.2145 -0.9377
  186SLPC   C2921417   2.555   4.215   7.474 -0.2542 -0.4113  0.9481
  186SLPC   H9R21418   2.572   4.321   7.447 -0.3911  0.1266  2.9314
  186SLPC  C21021419   2.545   4.194   7.608  0.7028 -0.3033 -0.4533
  186SLPC  H10R21420   2.553   4.280   7.676  1.0252 -0.2802 -0.5186
  186SLPC  C21121421   2.523   4.065   7.675 -0.0010 -0.3640  0.1809
  186SLPC  H11R21422   2.521   3.976   7.608  0.8136  1.5930 -2.4990
  186SLPC  H11S21423   2.416   4.071   7.704 -0.5120  1.3400 -1.9961
  186SLPC  C21221424   2.608   4.047   7.795 -0.3801 -0.2370 -0.4600
  186SLPC  H12R21425   2.718   4.041   7.786 -0.1965 -0.7649  1.6837
  186SLPC  C21321426   2.564   4.066   7.923  0.0942 -0.9582  0.4362
  186SLPC  H13R21427   2.646   4.069   7.996 -0.5713 -1.5266  1.2193
  186SLPC  C21421428   2.434   4.118   7.968  0.0545  0.1858  0.4788
  186SLPC  H14R21429   2.355   4.065   7.910 -0.4384  0.2754  1.0638
  186SLPC  H14S21430   2.410   4.222   7.937 -3.0762 -0.4481  0.5505
  186SLPC  C21521431   2.401   4.118   8.120  0.2780 -0.1269  0.1791
  186SLPC  H15R21432   2.298   4.159   8.128  0.6892  0.8649  0.3638
  186SLPC  H15S21433   2.476   4.186   8.166  0.4567 -1.0919  1.3426
  186SLPC  C21621434   2.402   3.982   8.192 -0.6891  0.1653  0.4327
  186SLPC  H16R21435   2.505   3.958   8.224 -0.9536  0.2030  1.3240
  186SLPC  H16S21436   2.374   3.908   8.114  1.3037  0.0563 -0.1868
  186SLPC  C21721437   2.298   3.984   8.309  0.9249 -0.0968 -0.1929
  186SLPC  H17R21438   2.205   4.007   8.253  0.0434 -0.9798  0.8888
  186SLPC  H17S21439   2.318   4.071   8.375  2.0103 -0.7300  0.3369
  186SLPC  C21821440   2.296   3.853   8.385 -0.3401  0.1900 -0.7480
  186SLPC  H18R21441   2.212   3.848   8.458  1.1449 -0.3312  0.9659
  186SLPC  H18S21442   2.390   3.849   8.444  0.5162 -0.6522 -2.1533
  186SLPC  H18T21443   2.300   3.769   8.313  0.3916  0.3647 -0.9189
  186SLPC   C3321444   2.067   4.417   7.213 -0.5197  0.0791 -0.8650
  186SLPC   H3X21445   2.035   4.330   7.151  0.2685 -0.4355 -0.5625
  186SLPC   H3Y21446   1.979   4.478   7.243 -0.3816 -0.5720  0.9750
  186SLPC   C3421447   2.136   4.363   7.341  0.1378 -0.6328  0.8706
  186SLPC   H4X21448   2.157   4.457   7.397  3.0239 -1.0526  0.5327
  186SLPC   H4Y21449   2.240   4.326   7.327  0.7610  0.6723  1.9762
  186SLPC   C3521450   2.055   4.252   7.417  0.3162 -0.1836  0.3827
  186SLPC   H5X21451   2.070   4.153   7.369  0.0928  0.2166 -0.5171
  186SLPC   H5Y21452   1.945   4.271   7.414  0.3789  0.1451  0.0431
  186SLPC   C3621453   2.099   4.237   7.564  0.5032  0.8329  0.0382
  186SLPC   H6X21454   2.210   4.243   7.568  0.6546 -0.1877 -1.9834
  186SLPC   H6Y21455   2.066   4.136   7.596 -0.4887  1.4819  1.0932
  186SLPC   C3721456   2.032   4.341   7.654  0.6636 -0.3945 -0.5261
  186SLPC   H7X21457   1.926   4.343   7.622  0.7175 -0.0005 -0.6814
  186SLPC   H7Y21458   2.076   4.441   7.635 -0.7857  0.8258  2.2774
  186SLPC   C3821459   2.018   4.311   7.803  0.0546  0.0213  0.4981
  186SLPC   H8X21460   2.112   4.314   7.863 -0.8274  0.3580  1.8760
  186SLPC   H8Y21461   1.963   4.216   7.818 -1.1531  0.4296 -1.2080
  186SLPC   C3921462   1.922   4.408   7.878  0.2250 -0.4108  0.4843
  186SLPC   H9X21463   1.823   4.423   7.829  0.4480 -0.4571  0.0180
  186SLPC   H9Y21464   1.962   4.511   7.867  1.0285 -0.8322 -0.6503
  186SLPC  C31021465   1.918   4.374   8.030 -0.1663 -0.5275  0.1239
  186SLPC  H10X21466   1.891   4.268   8.050 -0.3980  0.1308  3.4850
  186SLPC  H10Y21467   1.856   4.452   8.079  0.5074 -0.5199  0.9676
  186SLPC  C31121468   2.059   4.383   8.106 -0.9540  0.8188  0.4210
  186SLPC  H11X21469   2.126   4.453   8.052  1.0282 -1.6242 -0.3944
  186SLPC  H11Y21470   2.112   4.287   8.086 -1.7310  0.4959 -0.0929
  186SLPC  C31221471   2.043   4.409   8.253 -0.5195 -0.4622  0.7856
  186SLPC  H12X21472   1.987   4.328   8.305  1.2395 -2.6161 -0.6651
  186SLPC  H12Y21473   2.001   4.510   8.275  2.7550  1.6823 -2.4298
  186SLPC  C31321474   2.170   4.413   8.330 -0.2782  0.2007 -0.5697
  186SLPC  H13X21475   2.236   4.495   8.294  0.6029  1.2309  3.1629
  186SLPC  H13Y21476   2.235   4.323   8.328 -0.8406 -0.2739  1.0591
  186SLPC  C31421477   2.138   4.446   8.472  0.1991 -0.6450 -0.3533
  186SLPC  H14X21478   2.101   4.362   8.535  0.7150 -1.5155 -1.1920
  186SLPC  H14Y21479   2.051   4.514   8.479  0.8413  0.0404  1.2584
  186SLPC  C31521480   2.257   4.523   8.538  0.5775 -0.5605  0.7602
  186SLPC  H15X21481   2.226   4.545   8.642  1.5411 -0.5581  1.0505
  186SLPC  H15Y21482   2.262   4.619   8.483  0.4018  0.6388  2.7719
  186SLPC  C31621483   2.392   4.448   8.544 -0.2277  0.6443 -0.5674
  186SLPC  H16X21484   2.429   4.428   8.441 -2.2746  0.9654 -1.3992
  186SLPC  H16Y21485   2.385   4.344   8.582 -3.4928  0.4109 -1.6446
  186SLPC  C31721486   2.483   4.520   8.645  0.5486 -0.3619 -0.1877
  186SLPC  H17X21487   2.435   4.530   8.745 -1.8973  2.1391 -1.5551
  186SLPC  H17Y21488   2.498   4.626   8.616 -2.6353  0.2068  0.0296
  186SLPC  C31821489   2.613   4.450   8.674 -0.1134 -0.3888  0.4840
  186SLPC  H18X21490   2.673   4.496   8.756 -1.0550 -0.5902  1.2998
  186SLPC  H18Y21491   2.677   4.460   8.584 -0.4835 -3.4894 -0.1681
  186SLPC  H18Z21492   2.606   4.340   8.686 -2.3158 -0.2739  0.3986
  187SLPC     N21493   2.582   1.321   6.211  0.3576  0.0463 -0.3997
  187SLPC   C1321494   2.430   1.294   6.216  0.6728 -0.7450  0.0792
  187SLPC  H13A21495   2.374   1.385   6.232  2.2565  0.0822  1.0148
  187SLPC  H13B21496   2.399   1.233   6.132 -1.0241 -1.3678  1.1317
  187SLPC  H13C21497   2.401   1.237   6.304 -1.3587  0.2590  0.0840
  187SLPC   C1421498   2.603   1.399   6.086 -0.3961  0.7748  0.0518
  187SLPC  H14A21499   2.535   1.483   6.085 -0.8249  0.5260  2.8634
  187SLPC  H14B21500   2.705   1.431   6.079  0.0407 -0.0854  2.0874
  187SLPC  H14C21501   2.584   1.337   6.000 -0.6138  0.9919 -0.0555
  187SLPC   C1521502   2.652   1.194   6.206  0.1835  0.0252 -0.0830
  187SLPC  H15A21503   2.619   1.125   6.129  1.2364 -0.2817 -0.2632
  187SLPC  H15B21504   2.759   1.207   6.200  0.1887  0.8517  1.5014
  187SLPC  H15C21505   2.633   1.136   6.295  0.0660  2.2964  1.3882
  187SLPC   C1221506   2.621   1.415   6.327 -0.0514  0.4848  0.5908
  187SLPC  H12A21507   2.568   1.509   6.322 -1.2926 -0.1379  1.5842
  187SLPC  H12B21508   2.726   1.434   6.314  0.5116 -2.0634  1.0647
  187SLPC   C1121509   2.603   1.364   6.469 -0.9491  0.0272 -0.8075
  187SLPC  H11A21510   2.660   1.436   6.531  3.1111 -1.0225 -3.1548
  187SLPC  H11B21511   2.656   1.267   6.480  0.8472  1.1222  0.4482
  187SLPC     P21512   2.395   1.476   6.577 -0.0435 -0.0198  0.2416
  187SLPC   O1321513   2.496   1.572   6.621 -0.0945  0.1598  0.2019
  187SLPC   O1421514   2.295   1.543   6.494 -0.5685 -0.0151  0.8360
  187SLPC   O1221515   2.465   1.355   6.501  0.7227  0.5910  0.7588
  187SLPC   O1121516   2.336   1.410   6.704  0.1704 -0.1525  0.0782
  187SLPC    C121517   2.249   1.299   6.690 -0.0242 -0.5672  0.1944
  187SLPC    HA21518   2.154   1.326   6.742  0.5951  1.1348  0.4585
  187SLPC    HB21519   2.226   1.286   6.582  0.3442 -2.1151  0.2965
  187SLPC    C221520   2.293   1.161   6.756 -0.1175 -0.3341  0.1785
  187SLPC    HS21521   2.209   1.088   6.768 -0.8002  0.5271  0.6966
  187SLPC   O2121522   2.361   1.190   6.878  0.3307 -0.6091  0.1824
  187SLPC   C2121523   2.286   1.213   6.980 -0.3430 -0.0535  0.0367
  187SLPC   O2221524   2.164   1.211   6.979  1.2028  0.4123 -0.2163
  187SLPC   C2221525   2.375   1.242   7.103 -0.5920  0.6746  0.1812
  187SLPC   H2R21526   2.440   1.155   7.129  1.5111  2.3852  0.7757
  187SLPC   H2S21527   2.435   1.334   7.089 -1.5080  1.4827  1.4900
  187SLPC    C321528   2.393   1.097   6.657 -0.1582 -0.5332  0.0913
  187SLPC    HX21529   2.473   1.172   6.638 -0.4263 -0.2483  0.0954
  187SLPC    HY21530   2.338   1.072   6.563  2.1815  0.8832 -1.7303
  187SLPC   O3121531   2.456   0.980   6.704 -0.6795 -0.4234  0.5510
  187SLPC   C3121532   2.554   0.930   6.629 -0.7121 -0.3552 -0.0134
  187SLPC   O3221533   2.593   0.973   6.524  0.0972 -0.1909  0.3296
  187SLPC   C3221534   2.599   0.798   6.694 -0.9815 -0.5205  0.0396
  187SLPC   H2X21535   2.635   0.732   6.612  0.8547  0.9603 -0.3792
  187SLPC   H2Y21536   2.511   0.756   6.746 -0.3429 -2.0036 -0.0321
  187SLPC   C2321537   2.300   1.277   7.238  0.1383 -0.4367 -0.1378
  187SLPC   H3R21538   2.190   1.287   7.223  0.4659  0.2785 -2.1568
  187SLPC   H3S21539   2.337   1.372   7.281  2.8601 -0.1550 -2.9492
  187SLPC   C2421540   2.303   1.161   7.335 -0.1898 -0.8862  0.0879
  187SLPC   H4R21541   2.405   1.141   7.373 -1.3627 -0.7507  3.4709
  187SLPC   H4S21542   2.262   1.072   7.282 -0.4271 -1.1070  0.6336
  187SLPC   C2521543   2.228   1.201   7.459 -0.4225 -0.8477 -0.0548
  187SLPC   H5R21544   2.127   1.234   7.426  0.7987  2.6021 -0.5536
  187SLPC   H5S21545   2.277   1.288   7.507 -1.6587 -0.1970  0.0217
  187SLPC   C2621546   2.212   1.072   7.545 -0.2307 -0.0598 -0.3207
  187SLPC   H6R21547   2.311   1.036   7.579  0.0278  0.5728 -0.3976
  187SLPC   H6S21548   2.158   0.991   7.492 -1.9655  1.8392 -1.5348
  187SLPC   C2721549   2.140   1.105   7.675 -0.2984  0.4005 -0.0519
  187SLPC   H7R21550   2.055   1.174   7.655  0.3874  1.1199 -0.5416
  187SLPC   H7S21551   2.205   1.158   7.748  0.1882  0.6180 -0.6348
  187SLPC   C2821552   2.097   0.967   7.732  0.1470 -0.3229 -0.1305
  187SLPC   H8R21553   2.178   0.897   7.761  2.2969  1.8984 -0.6485
  187SLPC   H8S21554   2.037   0.907   7.661 -1.1302 -2.1552  2.4040
  187SLPC   C2921555   2.014   0.982   7.859  0.7209  0.4316  0.5977
  187SLPC   H9R21556   1.906   0.966   7.844  0.2808  0.6999  3.1568
  187SLPC  C21021557   2.052   1.014   7.981  0.7515 -0.0479 -0.0819
  187SLPC  H10R21558   1.975   1.015   8.059 -0.4894  2.0385 -1.2869
  187SLPC  C21121559   2.193   1.043   8.024 -0.4654 -0.1723 -0.6772
  187SLPC  H11R21560   2.207   1.135   8.085 -1.7835 -1.0202  0.9339
  187SLPC  H11S21561   2.257   1.048   7.933  1.4572  1.8625  0.7280
  187SLPC  C21221562   2.230   0.930   8.111  0.3703  0.9988  0.6097
  187SLPC  H12R21563   2.255   0.837   8.059 -0.3442  1.2292 -0.1622
  187SLPC  C21321564   2.233   0.926   8.244 -0.3301 -0.2725 -0.3066
  187SLPC  H13R21565   2.245   0.830   8.297  1.3926  0.9683  1.6553
  187SLPC  C21421566   2.199   1.041   8.335  0.5864 -0.1217  0.4607
  187SLPC  H14R21567   2.164   1.135   8.286 -1.3758 -0.2067  1.6777
  187SLPC  H14S21568   2.290   1.088   8.379  1.5951 -0.8940 -0.7333
  187SLPC  C21521569   2.083   1.012   8.425 -0.0513  0.4382  0.6108
  187SLPC  H15R21570   2.133   0.931   8.483  2.0806  0.1829 -1.4888
  187SLPC  H15S21571   1.999   0.972   8.365  1.1221 -0.8367 -0.2036
  187SLPC  C21621572   2.035   1.112   8.532 -0.1460  0.2513 -0.2847
  187SLPC  H16R21573   2.118   1.166   8.583 -0.5671  1.6174 -1.0241
  187SLPC  H16S21574   1.985   1.053   8.612 -1.7274  1.2604 -0.5158
  187SLPC  C21721575   1.954   1.226   8.469  0.6841 -0.4268  0.5044
  187SLPC  H17R21576   1.881   1.178   8.401 -0.7240  2.9461 -0.4484
  187SLPC  H17S21577   2.028   1.280   8.406  0.2216  1.5887  1.6337
  187SLPC  C21821578   1.900   1.334   8.567  0.9477  0.1362 -0.1298
  187SLPC  H18R21579   1.982   1.396   8.609  3.5650 -3.1076 -0.2403
  187SLPC  H18S21580   1.851   1.284   8.654 -1.2166 -1.7492 -2.3713
  187SLPC  H18T21581   1.823   1.395   8.515  0.2024 -0.8929 -0.2285
  187SLPC   C3321582   2.717   0.816   6.800 -0.7016 -0.0961 -0.1976
  187SLPC   H3X21583   2.781   0.899   6.763  0.3845 -0.9573 -0.2744
  187SLPC   H3Y21584   2.766   0.717   6.798 -1.1304 -0.3535  1.3287
  187SLPC   C3421585   2.666   0.854   6.937 -0.3904 -0.2981 -0.2314
  187SLPC   H4X21586   2.574   0.793   6.955  0.0070 -0.9272 -0.3149
  187SLPC   H4Y21587   2.641   0.962   6.930 -2.1122 -0.5423  1.5808
  187SLPC   C3521588   2.778   0.823   7.038 -0.1924  0.7704  0.2396
  187SLPC   H5X21589   2.875   0.865   7.005  2.3278 -4.6481  0.1120
  187SLPC   H5Y21590   2.797   0.713   7.039 -1.1923  0.5770 -0.9846
  187SLPC   C3621591   2.738   0.879   7.176  1.0241 -0.1154  0.3861
  187SLPC   H6X21592   2.663   0.816   7.227  0.7292  0.2158  0.3616
  187SLPC   H6Y21593   2.699   0.983   7.180 -2.9328 -1.5974  3.3367
  187SLPC   C3721594   2.862   0.870   7.273 -0.7365 -0.3691 -0.2375
  187SLPC   H7X21595   2.891   0.763   7.286 -2.5217 -0.7864  0.4298
  187SLPC   H7Y21596   2.950   0.927   7.234  1.1139 -0.8237  3.1201
  187SLPC   C3821597   2.821   0.918   7.407 -0.2460 -1.0901  0.6519
  187SLPC   H8X21598   2.747   0.855   7.461 -1.5411 -0.3888 -0.2748
  187SLPC   H8Y21599   2.776   1.019   7.394  0.0446 -1.0794 -0.2675
  187SLPC   C3921600   2.947   0.922   7.502 -0.0209  0.4150  1.0470
  187SLPC   H9X21601   3.033   0.972   7.453 -0.5766  1.8334  1.4874
  187SLPC   H9Y21602   2.971   0.813   7.510 -0.4792 -0.0363 -3.0164
  187SLPC  C31021603   2.902   0.970   7.642  0.7673  0.3603 -0.2463
  187SLPC  H10X21604   2.818   0.912   7.687  1.4774 -0.6532 -0.2160
  187SLPC  H10Y21605   2.876   1.078   7.634 -0.4328  0.1945  1.0767
  187SLPC  C31121606   3.002   0.956   7.757  0.0642  0.0360 -0.1568
  187SLPC  H11X21607   3.105   0.986   7.728  0.6097  0.0591  1.7367
  187SLPC  H11Y21608   3.011   0.848   7.780  1.4333  0.1308 -0.2163
  187SLPC  C31221609   2.954   1.041   7.875 -0.2982 -0.0576  0.1092
  187SLPC  H12X21610   2.849   1.014   7.899  0.1942 -0.9683  1.3287
  187SLPC  H12Y21611   2.949   1.148   7.849 -1.1743 -0.3293 -0.8752
  187SLPC  C31321612   3.053   1.020   7.999 -0.2056  0.1758  0.0931
  187SLPC  H13X21613   3.030   1.090   8.082 -2.8406 -0.1814 -0.2952
  187SLPC  H13Y21614   3.151   1.027   7.947  0.1904 -3.3481  0.2639
  187SLPC  C31421615   3.058   0.877   8.059 -0.8252  0.3859  0.2036
  187SLPC  H14X21616   3.078   0.804   7.978  0.8556  0.3905  0.6128
  187SLPC  H14Y21617   2.957   0.842   8.093 -1.0658  1.4836  0.6191
  187SLPC  C31521618   3.157   0.870   8.174 -0.2613 -0.0830 -0.5267
  187SLPC  H15X21619   3.253   0.921   8.151  0.5290 -0.9232  0.8467
  187SLPC  H15Y21620   3.176   0.761   8.178  1.5431  0.2661  1.3722
  187SLPC  C31621621   3.098   0.913   8.309  0.4828  0.1065  0.1881
  187SLPC  H16X21622   3.005   0.855   8.326 -0.9419  2.0003 -1.0481
  187SLPC  H16Y21623   3.068   1.018   8.289 -2.2671 -0.7544 -0.3648
  187SLPC  C31721624   3.192   0.890   8.430 -0.5654 -1.5340  0.1461
  187SLPC  H17X21625   3.292   0.937   8.415 -1.2531  1.3640  3.7398
  187SLPC  H17Y21626   3.214   0.782   8.420  2.1604 -0.8333 -2.2651
  187SLPC  C31821627   3.133   0.933   8.564 -0.9767  0.6803 -0.2011
  187SLPC  H18X21628   3.034   0.890   8.590 -1.6309  1.2689 -1.6682
  187SLPC  H18Y21629   3.125   1.043   8.575 -0.4373  0.5521  1.5346
  187SLPC  H18Z21630   3.204   0.904   8.645 -1.0538  1.3910  0.1234
  188SLPC     N21631   4.359   2.145   6.164 -0.1192 -0.1612  0.5268
  188SLPC   C1321632   4.250   2.238   6.123 -0.2008 -0.1527  0.1825
  188SLPC  H13A21633   4.248   2.261   6.018 -2.9171  0.9311  0.4256
  188SLPC  H13B21634   4.149   2.204   6.139 -1.1617  2.2354 -0.6353
  188SLPC  H13C21635   4.246   2.333   6.173  0.2703 -0.7472  1.3742
  188SLPC   C1421636   4.486   2.210   6.113 -0.1795  0.1545 -0.8442
  188SLPC  H14A21637   4.477   2.227   6.007 -1.5894 -1.9453 -1.0929
  188SLPC  H14B21638   4.505   2.299   6.171 -1.6710  0.1913 -0.3965
  188SLPC  H14C21639   4.565   2.137   6.119 -0.0685  0.4860  2.5606
  188SLPC   C1521640   4.338   2.010   6.092 -0.1866  0.1327 -0.1220
  188SLPC  H15A21641   4.340   2.034   5.987 -3.8844  0.9957 -0.0615
  188SLPC  H15B21642   4.421   1.943   6.110 -0.8435 -1.0625 -1.4487
  188SLPC  H15C21643   4.243   1.967   6.120  0.8429  0.5781  4.5688
  188SLPC   C1221644   4.357   2.131   6.319 -0.5662 -0.1416 -0.0001
  188SLPC  H12A21645   4.359   2.232   6.358 -0.6728 -0.1968  0.1478
  188SLPC  H12B21646   4.439   2.076   6.363 -1.6238  0.9765  3.5338
  188SLPC   C1121647   4.222   2.072   6.364 -0.5990 -0.3208 -0.7895
  188SLPC  H11A21648   4.237   2.032   6.466 -1.1457  0.1188 -0.5379
  188SLPC  H11B21649   4.184   1.991   6.297 -1.4941 -0.9603  0.4749
  188SLPC     P21650   4.114   2.284   6.487  0.0500  0.3192 -0.3488
  188SLPC   O1321651   4.242   2.312   6.556 -0.0851 -0.1420 -0.4326
  188SLPC   O1421652   4.051   2.400   6.427 -0.3082  0.0730  0.3100
  188SLPC   O1221653   4.123   2.175   6.369 -0.4950  0.1334 -0.0825
  188SLPC   O1121654   4.018   2.211   6.588 -0.0402  0.1312  0.5793
  188SLPC    C121655   3.872   2.195   6.569 -0.8126  0.0358 -0.0781
  188SLPC    HA21656   3.842   2.195   6.462  2.9114  1.8665 -1.2215
  188SLPC    HB21657   3.856   2.089   6.601  0.7779 -0.1881  0.0404
  188SLPC    C221658   3.799   2.297   6.652  0.4183  0.5155  0.4682
  188SLPC    HS21659   3.834   2.401   6.635 -2.8707  1.2879 -2.2603
  188SLPC   O2121660   3.826   2.262   6.790 -0.1891 -0.0600  0.6202
  188SLPC   C2121661   3.810   2.370   6.878  0.1292  0.5244  0.0434
  188SLPC   O2221662   3.779   2.486   6.853  0.3748 -0.4071  0.2928
  188SLPC   C2221663   3.827   2.310   7.020 -0.8240 -0.7736  1.0826
  188SLPC   H2R21664   3.768   2.216   7.018 -0.2739 -1.1146  0.5500
  188SLPC   H2S21665   3.933   2.292   7.047 -0.0877  2.6110  0.7259
  188SLPC    C321666   3.643   2.285   6.631 -0.0096 -0.2572 -0.1596
  188SLPC    HX21667   3.621   2.177   6.643  1.7024 -0.8496 -2.1583
  188SLPC    HY21668   3.618   2.311   6.526  0.7046 -0.4661 -0.3782
  188SLPC   O3121669   3.563   2.365   6.712 -0.7837  0.2805 -0.0764
  188SLPC   C3121670   3.460   2.432   6.660 -0.1187  0.7540 -0.3156
  188SLPC   O3221671   3.405   2.387   6.556  0.1722 -0.8166  0.1760
  188SLPC   C3221672   3.420   2.542   6.756 -0.0415 -0.2437  0.1510
  188SLPC   H2X21673   3.326   2.588   6.719  1.1516  1.0562 -1.3379
  188SLPC   H2Y21674   3.496   2.622   6.745  0.3562 -0.0574  3.7458
  188SLPC   C2321675   3.783   2.416   7.121 -0.1219 -0.3632  0.4438
  188SLPC   H3R21676   3.677   2.442   7.099 -0.3178 -1.0800  0.5049
  188SLPC   H3S21677   3.843   2.508   7.109  1.1961 -1.2720 -0.0955
  188SLPC   C2421678   3.791   2.361   7.268 -0.6945  0.3117 -0.3059
  188SLPC   H4R21679   3.890   2.314   7.285 -1.5589 -1.9051 -1.2750
  188SLPC   H4S21680   3.727   2.272   7.286 -0.3738  0.4482  1.6282
  188SLPC   C2521681   3.757   2.463   7.370 -0.1745  0.5644 -0.1062
  188SLPC   H5R21682   3.656   2.503   7.346  0.0253  2.4738  2.0570
  188SLPC   H5S21683   3.830   2.547   7.374 -0.3328  0.7903 -1.6396
  188SLPC   C2621684   3.733   2.391   7.501  0.3663 -1.2945 -0.5953
  188SLPC   H6R21685   3.832   2.347   7.527  0.9512 -0.2905 -1.0835
  188SLPC   H6S21686   3.663   2.304   7.502  1.9064 -2.5666  1.5655
  188SLPC   C2721687   3.699   2.493   7.612 -0.0040 -0.3965  0.9860
  188SLPC   H7R21688   3.616   2.557   7.577  0.2597 -0.1337  0.8395
  188SLPC   H7S21689   3.783   2.565   7.624 -0.9947  0.4564  3.0548
  188SLPC   C2821690   3.669   2.438   7.753  0.2128  0.2035 -0.9621
  188SLPC   H8R21691   3.568   2.393   7.745 -1.2002  3.2043 -0.9981
  188SLPC   H8S21692   3.659   2.520   7.828  0.1421  0.4419 -1.2286
  188SLPC   C2921693   3.772   2.339   7.801 -0.2650 -0.3334  0.8976
  188SLPC   H9R21694   3.820   2.294   7.712 -3.8907 -0.1022 -1.2700
  188SLPC  C21021695   3.810   2.320   7.926 -0.1428  0.2143 -0.4005
  188SLPC  H10R21696   3.899   2.257   7.942  1.0353  1.9889  0.3058
  188SLPC  C21121697   3.744   2.388   8.039 -0.5662  0.7364 -0.1144
  188SLPC  H11R21698   3.711   2.493   8.019 -0.3290  0.7874 -0.2432
  188SLPC  H11S21699   3.815   2.388   8.125  1.5219  1.2688 -1.7972
  188SLPC  C21221700   3.632   2.301   8.094 -0.1720 -0.3402  1.0498
  188SLPC  H12R21701   3.642   2.194   8.072  1.8764  0.5862 -3.0487
  188SLPC  C21321702   3.512   2.345   8.140 -0.2355 -0.2476 -0.9621
  188SLPC  H13R21703   3.449   2.268   8.186 -1.7224 -0.7046 -3.7147
  188SLPC  C21421704   3.469   2.489   8.160 -0.0061 -0.5239 -0.0289
  188SLPC  H14R21705   3.362   2.496   8.131  0.0368 -1.2978 -0.3727
  188SLPC  H14S21706   3.518   2.560   8.089 -0.3783 -1.1956 -0.9706
  188SLPC  C21521707   3.475   2.554   8.298 -0.6278  0.6043  0.2060
  188SLPC  H15R21708   3.568   2.538   8.357  0.9974  2.7705 -1.6500
  188SLPC  H15S21709   3.397   2.505   8.360 -0.2097  1.3174  1.3049
  188SLPC  C21621710   3.440   2.703   8.297  0.3906 -0.0757  0.7407
  188SLPC  H16R21711   3.338   2.703   8.254  1.5337  0.7084 -2.1387
  188SLPC  H16S21712   3.513   2.754   8.230 -2.2066  0.9930 -1.3595
  188SLPC  C21721713   3.453   2.765   8.435 -0.3327  0.1699 -0.2277
  188SLPC  H17R21714   3.458   2.876   8.426  1.6274  0.2330  1.1795
  188SLPC  H17S21715   3.552   2.741   8.479 -1.8557 -2.9880  1.6398
  188SLPC  C21821716   3.349   2.723   8.545 -0.4267 -0.4831  0.7936
  188SLPC  H18R21717   3.368   2.617   8.572  2.3993 -0.0005  0.8110
  188SLPC  H18S21718   3.245   2.727   8.507 -0.5816  0.6833  1.3207
  188SLPC  H18T21719   3.365   2.786   8.635  2.3499  1.5882 -1.0946
  188SLPC   C3321720   3.400   2.491   6.904 -0.7395  0.4811  0.3705
  188SLPC   H3X21721   3.480   2.430   6.950 -1.5367 -2.6685 -2.2327
  188SLPC   H3Y21722   3.315   2.420   6.899 -1.9974  2.0068 -0.6936
  188SLPC   C3421723   3.353   2.598   7.001  0.5652 -0.2007  0.1414
  188SLPC   H4X21724   3.282   2.665   6.947 -2.4247 -1.7987  2.0025
  188SLPC   H4Y21725   3.436   2.670   7.021 -1.2139  1.6153  1.2413
  188SLPC   C3521726   3.296   2.541   7.131  0.0378  0.3931  0.3301
  188SLPC   H5X21727   3.222   2.461   7.108  0.6338 -0.6393  1.9018
  188SLPC   H5Y21728   3.239   2.616   7.191 -0.3582  0.6341 -0.3455
  188SLPC   C3621729   3.400   2.494   7.234 -0.1479 -0.2241  0.2902
  188SLPC   H6X21730   3.493   2.554   7.228 -0.9723  1.2324  1.5065
  188SLPC   H6Y21731   3.420   2.387   7.215  1.7846 -0.0020  0.9422
  188SLPC   C3721732   3.350   2.498   7.383 -0.4165  0.6833 -0.1131
  188SLPC   H7X21733   3.335   2.601   7.423 -0.8910  0.2288  0.9097
  188SLPC   H7Y21734   3.437   2.464   7.442  0.8338  1.6012 -1.3935
  188SLPC   C3821735   3.228   2.417   7.423  0.3212  0.6455  0.0955
  188SLPC   H8X21736   3.246   2.308   7.412  1.8390  0.4959  3.6283
  188SLPC   H8Y21737   3.145   2.445   7.354  1.2543  1.1933 -0.8077
  188SLPC   C3921738   3.197   2.444   7.576  0.3829 -0.2019 -0.5582
  188SLPC   H9X21739   3.293   2.449   7.632  1.3054 -0.5637 -2.0779
  188SLPC   H9Y21740   3.155   2.349   7.616 -0.3158  0.7641  1.0649
  188SLPC  C31021741   3.115   2.568   7.615 -0.8646 -0.2573 -0.2830
  188SLPC  H10X21742   3.007   2.542   7.606 -0.3978 -2.8918  1.4418
  188SLPC  H10Y21743   3.152   2.654   7.555 -0.2741  0.1430  0.6439
  188SLPC  C31121744   3.134   2.604   7.768 -0.3533  0.2573 -0.1176
  188SLPC  H11X21745   3.226   2.658   7.801  0.2839  0.3285 -1.9611
  188SLPC  H11Y21746   3.138   2.504   7.816  0.7927  0.6872  0.7278
  188SLPC  C31221747   3.029   2.685   7.840 -0.4699 -0.7279  0.2581
  188SLPC  H12X21748   2.923   2.657   7.826 -0.0075 -1.7238 -1.3273
  188SLPC  H12Y21749   3.021   2.793   7.812 -2.2410 -0.7963  0.4763
  188SLPC  C31321750   3.067   2.673   7.991  0.0126  0.4582  0.0068
  188SLPC  H13X21751   3.149   2.747   8.009  0.1880  0.1954  0.3047
  188SLPC  H13Y21752   3.106   2.571   8.010 -0.8367  0.4723  1.9321
  188SLPC  C31421753   2.949   2.700   8.083 -0.8704  0.2833  0.1013
  188SLPC  H14X21754   2.864   2.635   8.051 -1.3998  0.5992  0.8408
  188SLPC  H14Y21755   2.906   2.802   8.072 -0.5356  0.4199  0.0502
  188SLPC  C31521756   2.998   2.691   8.230 -0.1039  0.3482 -0.1486
  188SLPC  H15X21757   3.054   2.785   8.246 -0.1931  0.5533 -1.0229
  188SLPC  H15Y21758   3.066   2.603   8.232 -1.5932 -0.8653 -1.0770
  188SLPC  C31621759   2.874   2.663   8.320  0.4677  0.1293 -0.2087
  188SLPC  H16X21760   2.824   2.574   8.276  0.1915 -0.6269  1.5877
  188SLPC  H16Y21761   2.795   2.741   8.310 -3.4865 -3.6772 -0.4514
  188SLPC  C31721762   2.925   2.643   8.463  0.1042 -0.3553  0.0996
  188SLPC  H17X21763   2.955   2.739   8.510  0.4249 -0.7249  0.6529
  188SLPC  H17Y21764   3.004   2.565   8.463 -0.5944 -1.0863 -2.5115
  188SLPC  C31821765   2.807   2.578   8.549 -0.1056  0.6264 -0.4692
  188SLPC  H18X21766   2.724   2.649   8.568  0.9353  1.8598 -0.4254
  188SLPC  H18Y21767   2.854   2.548   8.645 -0.4367 -1.4950 -0.9531
  188SLPC  H18Z21768   2.776   2.482   8.503  0.0869 -0.2326  1.1547
  189SLPC     N21769   5.316   4.796   5.906 -0.3965 -0.1416  1.0664
  189SLPC   C1321770   5.381   4.924   5.857  0.5494  0.4183 -0.4157
  189SLPC  H13A21771   5.408   4.982   5.944 -0.4283  2.7256 -1.6065
  189SLPC  H13B21772   5.459   4.895   5.788 -0.4785 -1.7685 -0.7032
  189SLPC  H13C21773   5.314   4.983   5.797  2.0809  1.5647 -1.0495
  189SLPC   C1421774   5.319   4.697   5.797 -0.4275  0.1639  0.1429
  189SLPC  H14A21775   5.421   4.683   5.763 -0.8168 -0.2101 -0.8896
  189SLPC  H14B21776   5.270   4.606   5.829  0.9798 -0.9811 -0.8748
  189SLPC  H14C21777   5.270   4.739   5.711  0.3127  0.2593 -0.2390
  189SLPC   C1521778   5.171   4.832   5.943  0.0611 -0.1576 -0.2847
  189SLPC  H15A21779   5.175   4.895   6.030 -0.7288  0.2791 -0.5597
  189SLPC  H15B21780   5.123   4.883   5.861  1.9796 -0.3019 -1.5276
  189SLPC  H15C21781   5.121   4.737   5.957  3.9699 -2.0572  1.5105
  189SLPC   C1221782   5.387   4.744   6.024 -0.5368 -0.4097  0.1187
  189SLPC  H12A21783   5.486   4.707   6.003 -0.0159 -0.2134  2.1268
  189SLPC  H12B21784   5.336   4.652   6.050 -1.4956 -0.3139 -1.3417
  189SLPC   C1121785   5.398   4.837   6.149 -0.2689 -0.2911  0.2390
  189SLPC  H11A21786   5.434   4.768   6.228 -2.6079 -4.1833 -1.9210
  189SLPC  H11B21787   5.296   4.873   6.174  0.2055  0.1573  1.5846
  189SLPC     P21788   5.507   5.050   6.254 -0.0138  0.0293 -0.0899
  189SLPC   O1321789   5.616   5.002   6.340 -0.2662 -0.1784 -0.0359
  189SLPC   O1421790   5.520   5.190   6.208  0.1006  0.2201 -0.0047
  189SLPC   O1221791   5.488   4.948   6.133 -0.2620  0.3084  0.6332
  189SLPC   O1121792   5.363   5.032   6.330 -0.0425 -0.0906 -0.4895
  189SLPC    C121793   5.318   5.120   6.430 -0.0068  0.3013  0.2578
  189SLPC    HA21794   5.380   5.213   6.432 -1.0404  1.1609 -3.3901
  189SLPC    HB21795   5.211   5.147   6.415  0.2387  1.5429  0.6646
  189SLPC    C221796   5.321   5.056   6.571  0.8222 -0.4503 -0.4025
  189SLPC    HS21797   5.261   5.122   6.637  1.6986 -0.2400  0.1884
  189SLPC   O2121798   5.457   5.046   6.627  0.0273  0.2508 -0.2950
  189SLPC   C2121799   5.503   5.163   6.673  0.0189 -0.2230  0.0504
  189SLPC   O2221800   5.438   5.269   6.674  0.2117  0.4296 -0.0696
  189SLPC   C2221801   5.638   5.152   6.730 -0.3229 -0.1041 -0.1710
  189SLPC   H2R21802   5.679   5.052   6.701 -1.0197 -0.2707 -0.5988
  189SLPC   H2S21803   5.693   5.242   6.694 -1.0120 -0.0133 -0.9970
  189SLPC    C321804   5.256   4.923   6.558  0.0088  0.1839  0.0500
  189SLPC    HX21805   5.312   4.848   6.498 -1.4910 -0.4604 -0.5522
  189SLPC    HY21806   5.167   4.946   6.495 -0.8121 -0.8636  0.8221
  189SLPC   O3121807   5.203   4.865   6.680  0.1952  0.2836 -0.1233
  189SLPC   C3121808   5.101   4.781   6.664  0.4129  0.4244 -0.2264
  189SLPC   O3221809   5.061   4.740   6.556  0.1230  0.1877  0.1455
  189SLPC   C3221810   5.051   4.747   6.799  0.0937  0.0186 -0.6774
  189SLPC   H2X21811   5.064   4.834   6.867 -0.1068  1.1569 -2.0823
  189SLPC   H2Y21812   5.118   4.666   6.834  1.6362  0.4820 -2.4997
  189SLPC   C2321813   5.634   5.158   6.882  0.4060 -0.6086 -0.2055
  189SLPC   H3R21814   5.589   5.066   6.926 -2.2862 -0.3750 -2.3249
  189SLPC   H3S21815   5.568   5.244   6.906  0.6875 -0.7746  1.1850
  189SLPC   C2421816   5.760   5.200   6.954 -0.4664 -0.7548 -0.2730
  189SLPC   H4R21817   5.779   5.308   6.935 -0.2210 -0.8488 -0.5706
  189SLPC   H4S21818   5.852   5.156   6.910 -0.3386 -1.0100  0.2421
  189SLPC   C2521819   5.758   5.189   7.114 -0.0856 -0.3787 -0.4240
  189SLPC   H5R21820   5.660   5.229   7.147  0.4070  0.8955 -0.4485
  189SLPC   H5S21821   5.826   5.260   7.167 -1.6679 -1.2533  2.9225
  189SLPC   C2621822   5.763   5.045   7.172 -0.2665  0.0483 -0.3031
  189SLPC   H6R21823   5.860   4.991   7.165 -1.2665 -1.8707  0.1701
  189SLPC   H6S21824   5.690   4.988   7.111 -2.3765  0.8428  1.4353
  189SLPC   C2721825   5.706   5.048   7.320  0.6623 -0.2404  0.4999
  189SLPC   H7R21826   5.606   5.096   7.324 -0.0194 -1.8580  4.2526
  189SLPC   H7S21827   5.769   5.119   7.377  0.8059  0.2650 -0.2641
  189SLPC   C2821828   5.691   4.908   7.390  0.5174  0.3489 -0.3092
  189SLPC   H8R21829   5.658   4.838   7.310  0.3736 -0.7733  0.7189
  189SLPC   H8S21830   5.604   4.906   7.459  0.6920 -0.4285 -0.1102
  189SLPC   C2921831   5.816   4.861   7.453 -0.6232 -0.5852 -0.4075
  189SLPC   H9R21832   5.894   4.827   7.382  1.6931 -2.0113  2.7040
  189SLPC  C21021833   5.834   4.844   7.586  0.6769  0.0156 -0.4834
  189SLPC  H10R21834   5.931   4.803   7.619  0.3842  0.9169  1.5664
  189SLPC  C21121835   5.740   4.865   7.697  0.4955 -1.0974 -0.0846
  189SLPC  H11R21836   5.664   4.940   7.667  0.7509 -0.5047  0.7198
  189SLPC  H11S21837   5.799   4.912   7.779  3.0659 -2.4474 -1.1015
  189SLPC  C21221838   5.678   4.736   7.744  0.1427 -0.1265 -0.3387
  189SLPC  H12R21839   5.711   4.644   7.695  1.4051 -1.0386  2.1271
  189SLPC  C21321840   5.613   4.718   7.858 -0.4996  0.7342 -0.1760
  189SLPC  H13R21841   5.580   4.619   7.892  0.2038  0.9049  1.0383
  189SLPC  C21421842   5.587   4.835   7.945 -0.5177 -0.5085 -0.0318
  189SLPC  H14R21843   5.495   4.819   8.006 -1.4464  0.5267 -1.1258
  189SLPC  H14S21844   5.551   4.928   7.896 -0.3482  0.1742  1.1192
  189SLPC  C21521845   5.701   4.864   8.046  0.5329 -0.4339  0.1890
  189SLPC  H15R21846   5.695   4.968   8.083  0.3148 -1.0739  1.9784
  189SLPC  H15S21847   5.802   4.861   7.998  0.7896  0.8940  0.6433
  189SLPC  C21621848   5.708   4.773   8.167  0.0459 -0.1637 -0.4136
  189SLPC  H16R21849   5.739   4.668   8.147  0.7418 -0.2019  0.7801
  189SLPC  H16S21850   5.605   4.753   8.203 -0.3391  0.6188 -1.0756
  189SLPC  C21721851   5.795   4.839   8.277  0.3765  0.4598 -0.0153
  189SLPC  H17R21852   5.738   4.931   8.303  0.3050  0.0459  1.3405
  189SLPC  H17S21853   5.888   4.878   8.231  0.0422 -0.2828 -1.3368
  189SLPC  C21821854   5.824   4.749   8.396  0.9016  0.1390 -0.5556
  189SLPC  H18R21855   5.733   4.691   8.425 -0.2107  0.9269 -2.3957
  189SLPC  H18S21856   5.860   4.808   8.483  1.3446 -1.3608  0.2948
  189SLPC  H18T21857   5.906   4.679   8.372  1.7463 -0.1770  2.9966
  189SLPC   C3321858   4.906   4.695   6.805  0.4115  0.3815 -1.2170
  189SLPC   H3X21859   4.887   4.600   6.751 -1.3719 -0.1735  0.3195
  189SLPC   H3Y21860   4.833   4.771   6.771 -2.6264 -1.7646  0.2299
  189SLPC   C3421861   4.874   4.664   6.951  0.2019  0.3040  0.2778
  189SLPC   H4X21862   4.953   4.594   6.987 -1.8186 -1.1017  2.1773
  189SLPC   H4Y21863   4.774   4.615   6.958  0.2170 -0.3295 -3.4036
  189SLPC   C3521864   4.892   4.783   7.047  0.0369  0.2792  0.1207
  189SLPC   H5X21865   4.815   4.854   7.009  0.0911  0.2741  0.0022
  189SLPC   H5Y21866   4.994   4.825   7.060  0.0114  0.4556 -0.2376
  189SLPC   C3621867   4.842   4.759   7.194  0.3431  0.0154 -0.5733
  189SLPC   H6X21868   4.902   4.673   7.230 -0.6524  0.5949  2.6422
  189SLPC   H6Y21869   4.735   4.728   7.191  0.0174  1.0831 -0.3455
  189SLPC   C3721870   4.874   4.880   7.287  0.4244  0.2148  0.2649
  189SLPC   H7X21871   4.857   4.969   7.223  0.0777 -1.1482 -1.5763
  189SLPC   H7Y21872   4.979   4.875   7.323  0.3513 -2.5856  0.2604
  189SLPC   C3821873   4.789   4.876   7.419  0.1733 -0.1088  0.5429
  189SLPC   H8X21874   4.831   4.793   7.481  1.5006 -0.7491 -1.1683
  189SLPC   H8Y21875   4.679   4.867   7.406 -0.0448  2.4229  0.3901
  189SLPC   C3921876   4.815   5.009   7.498 -0.1574 -0.3571 -0.0967
  189SLPC   H9X21877   4.791   5.098   7.436 -0.6115 -0.0078  0.5702
  189SLPC   H9Y21878   4.924   5.009   7.521  0.2331  2.6547 -1.6150
  189SLPC  C31021879   4.723   5.013   7.625 -0.3758 -0.1212 -0.0578
  189SLPC  H10X21880   4.742   4.924   7.689  1.8169  0.2081 -0.2042
  189SLPC  H10Y21881   4.617   5.004   7.594 -0.5903  0.3363  0.5300
  189SLPC  C31121882   4.756   5.139   7.716 -0.0276 -1.0482  0.1627
  189SLPC  H11X21883   4.688   5.224   7.693  0.9747 -0.5380 -0.9560
  189SLPC  H11Y21884   4.853   5.189   7.691 -0.0470 -1.3193 -0.4587
  189SLPC  C31221885   4.758   5.104   7.872 -0.1116  0.3400  0.7199
  189SLPC  H12X21886   4.840   5.033   7.892  0.2307  0.7903  0.9312
  189SLPC  H12Y21887   4.661   5.068   7.912 -0.2780 -0.5510 -0.4760
  189SLPC  C31321888   4.784   5.237   7.953  0.2457  0.4354  0.3506
  189SLPC  H13X21889   4.702   5.310   7.937  1.0600  1.4858  0.8820
  189SLPC  H13Y21890   4.884   5.274   7.923  0.0825 -0.2107 -0.9933
  189SLPC  C31421891   4.791   5.209   8.105  0.4353  0.3282  0.6056
  189SLPC  H14X21892   4.690   5.174   8.136  0.6479 -2.6410 -1.7779
  189SLPC  H14Y21893   4.817   5.298   8.166 -0.8180  1.0066  0.1836
  189SLPC  C31521894   4.902   5.110   8.143  0.7545  0.0316  0.1814
  189SLPC  H15X21895   4.994   5.117   8.082  0.3399 -0.7733 -0.5358
  189SLPC  H15Y21896   4.865   5.009   8.116  2.2207 -0.2073 -1.0229
  189SLPC  C31621897   4.936   5.119   8.291 -0.0335  0.2102 -0.5788
  189SLPC  H16X21898   4.835   5.122   8.337  0.3630 -1.2018  0.4060
  189SLPC  H16Y21899   4.990   5.213   8.317  0.9954 -0.4644 -0.2675
  189SLPC  C31721900   5.009   5.001   8.341  0.8396 -0.1117  0.1055
  189SLPC  H17X21901   5.116   5.030   8.353  0.8453  0.1925 -0.6848
  189SLPC  H17Y21902   5.008   4.922   8.263  0.2134  0.4846 -0.4997
  189SLPC  C31821903   4.959   4.949   8.479  0.1649  0.6963  0.0710
  189SLPC  H18X21904   4.854   4.912   8.477  1.5330 -3.4011 -0.7836
  189SLPC  H18Y21905   4.968   5.029   8.556 -1.1633 -0.2954  1.2937
  189SLPC  H18Z21906   5.016   4.861   8.516 -1.1897 -0.4047 -0.4142
  190SLPC     N21907   5.728   4.393   6.564  0.5636  0.7894  0.1748
  190SLPC   C1321908   5.830   4.281   6.587 -0.7435 -0.1539  0.5098
  190SLPC  H13A21909   5.787   4.187   6.554  2.1003 -1.6037  0.7601
  190SLPC  H13B21910   5.907   4.302   6.515  0.2235 -2.1536  0.9077
  190SLPC  H13C21911   5.871   4.277   6.687  0.9710 -1.0698 -0.2093
  190SLPC   C1421912   5.798   4.527   6.576  0.3930  0.9325 -0.0292
  190SLPC  H14A21913   5.889   4.535   6.518  0.5730 -0.5449  0.0389
  190SLPC  H14B21914   5.728   4.602   6.542  0.5873  1.9302  1.7034
  190SLPC  H14C21915   5.821   4.551   6.679  0.1908 -0.1128  0.2604
  190SLPC   C1521916   5.633   4.390   6.681 -0.5671 -0.2342 -0.4134
  190SLPC  H15A21917   5.555   4.463   6.667  0.5984  1.0988 -0.0185
  190SLPC  H15B21918   5.592   4.290   6.690  0.6367 -0.6377  0.8986
  190SLPC  H15C21919   5.697   4.423   6.762  2.9199 -1.1684 -2.6920
  190SLPC   C1221920   5.655   4.380   6.425  0.4447  0.1381 -0.8508
  190SLPC  H12A21921   5.737   4.383   6.355  0.8913  1.2726 -0.2911
  190SLPC  H12B21922   5.593   4.467   6.410  0.7180  0.0611 -2.5345
  190SLPC   C1121923   5.572   4.251   6.378  0.6941  0.4239  0.7380
  190SLPC  H11A21924   5.584   4.256   6.267 -2.1988 -2.8985  0.1952
  190SLPC  H11B21925   5.462   4.253   6.398  0.5622  0.3321  0.0540
  190SLPC     P21926   5.572   4.005   6.387  0.5777  0.2860 -0.2658
  190SLPC   O1321927   5.621   3.977   6.254  0.3907  0.0450  0.8155
  190SLPC   O1421928   5.613   3.898   6.483  0.2698 -0.6016 -0.0144
  190SLPC   O1221929   5.639   4.140   6.432 -0.1313  1.1192 -0.1314
  190SLPC   O1121930   5.418   4.029   6.376  0.1220 -0.3536  0.7166
  190SLPC    C121931   5.328   3.939   6.439  0.1018  0.4465  0.3546
  190SLPC    HA21932   5.238   3.938   6.373  0.0860  1.2083  0.3638
  190SLPC    HB21933   5.377   3.839   6.433 -1.0674 -0.2419  2.0521
  190SLPC    C221934   5.287   3.967   6.590 -0.0662 -0.2980  0.8114
  190SLPC    HS21935   5.238   4.067   6.595 -2.1464 -1.1739 -1.0131
  190SLPC   O2121936   5.408   3.974   6.674 -0.0018 -0.3254  0.1872
  190SLPC   C2121937   5.404   4.045   6.778  0.6538 -0.3540  1.2218
  190SLPC   O2221938   5.320   4.134   6.808 -0.2417 -0.6579 -0.1494
  190SLPC   C2221939   5.526   4.012   6.868 -0.4944 -0.2915  0.1167
  190SLPC   H2R21940   5.596   3.945   6.814 -0.4184 -0.8616  0.9119
  190SLPC   H2S21941   5.566   4.115   6.876 -0.5968 -0.2799  0.4987
  190SLPC    C321942   5.180   3.868   6.641  0.3276  0.7095 -0.1523
  190SLPC    HX21943   5.215   3.763   6.627 -0.5120  0.3301  0.5927
  190SLPC    HY21944   5.092   3.868   6.574 -0.0346 -0.6683  0.3137
  190SLPC   O3121945   5.126   3.896   6.773 -0.0042 -0.2781 -0.0885
  190SLPC   C3121946   5.183   3.830   6.873  0.5565 -0.6784 -0.7129
  190SLPC   O3221947   5.271   3.743   6.869 -0.8633  0.6463 -0.1625
  190SLPC   C3221948   5.115   3.882   7.001 -0.3712  0.4958  0.7256
  190SLPC   H2X21949   5.006   3.892   6.982  0.2479  0.8968 -2.8262
  190SLPC   H2Y21950   5.145   3.986   7.025 -1.3874  0.9867 -0.1203
  190SLPC   C2321951   5.496   3.979   7.018  0.0213 -0.3444  0.1964
  190SLPC   H3R21952   5.598   3.967   7.059 -0.7770 -0.4980  2.2264
  190SLPC   H3S21953   5.446   3.879   7.023 -1.4109  0.3088 -0.6730
  190SLPC   C2421954   5.426   4.094   7.102 -0.0469 -0.4017 -0.1740
  190SLPC   H4R21955   5.334   4.135   7.054  0.8521  0.1427 -1.4532
  190SLPC   H4S21956   5.505   4.172   7.100 -0.6019  0.3508  3.6139
  190SLPC   C2521957   5.389   4.059   7.244  0.7080 -0.0743 -0.2576
  190SLPC   H5R21958   5.345   3.957   7.249  0.3610  0.0161 -1.3828
  190SLPC   H5S21959   5.309   4.129   7.274  1.9835  1.1228  0.4031
  190SLPC   C2621960   5.511   4.089   7.331 -0.0347 -0.1759 -0.1274
  190SLPC   H6R21961   5.546   4.194   7.324  3.0505 -1.2325 -1.1054
  190SLPC   H6S21962   5.597   4.029   7.295 -1.8722 -2.2907 -1.1790
  190SLPC   C2721963   5.478   4.054   7.479  0.0049 -0.0922  0.0816
  190SLPC   H7R21964   5.465   3.945   7.493  1.8724 -0.0656  2.2884
  190SLPC   H7S21965   5.386   4.109   7.507 -0.3379 -0.8101  0.3596
  190SLPC   C2821966   5.583   4.100   7.579  0.2008  0.0368  0.3468
  190SLPC   H8R21967   5.554   4.088   7.686  0.4218 -0.6275  0.3319
  190SLPC   H8S21968   5.593   4.210   7.568 -0.0307  0.1979  1.5878
  190SLPC   C2921969   5.715   4.031   7.568 -0.2232 -0.1429  0.4287
  190SLPC   H9R21970   5.717   3.921   7.565  2.2189 -0.1040 -0.5309
  190SLPC  C21021971   5.829   4.098   7.556 -0.3483  0.3335 -0.4684
  190SLPC  H10R21972   5.922   4.040   7.545 -0.6448 -0.7574  2.4581
  190SLPC  C21121973   5.853   4.244   7.540 -0.4056 -0.1099  0.8987
  190SLPC  H11R21974   5.865   4.296   7.637  0.2983 -1.1129  1.3681
  190SLPC  H11S21975   5.764   4.288   7.490  0.2051  0.9825  0.7651
  190SLPC  C21221976   5.973   4.277   7.444  1.3331  0.0509  0.9526
  190SLPC  H12R21977   6.069   4.258   7.495  1.1469 -0.0466  1.2692
  190SLPC  C21321978   5.977   4.304   7.315  0.0228 -0.6571  0.5089
  190SLPC  H13R21979   6.072   4.323   7.264 -0.4101 -0.1858 -0.1179
  190SLPC  C21421980   5.862   4.329   7.227  0.7411  0.0717  0.2502
  190SLPC  H14R21981   5.879   4.418   7.164 -0.3794  1.7848  2.2777
  190SLPC  H14S21982   5.766   4.358   7.276  1.4040  2.4807  0.1700
  190SLPC  C21521983   5.840   4.203   7.138 -0.4804 -0.1702  0.6448
  190SLPC  H15R21984   5.744   4.197   7.083  0.6493 -0.7456 -1.3214
  190SLPC  H15S21985   5.842   4.112   7.202  0.5262 -1.3119 -0.9652
  190SLPC  C21621986   5.955   4.178   7.037 -0.8620 -0.7227  0.2683
  190SLPC  H16R21987   6.050   4.165   7.094 -0.1050  0.0046 -0.8111
  190SLPC  H16S21988   5.961   4.270   6.975 -0.3934 -1.0097 -0.1189
  190SLPC  C21721989   5.942   4.057   6.937 -0.1331  0.4238  0.0560
  190SLPC  H17R21990   5.877   4.072   6.848  0.2892 -1.8492 -0.6730
  190SLPC  H17S21991   5.903   3.969   6.992  0.4861  0.8218  1.1394
  190SLPC  C21821992   6.077   4.016   6.887  0.9704  0.6671  0.2859
  190SLPC  H18R21993   6.062   3.932   6.815 -0.2922  1.2137 -0.0929
  190SLPC  H18S21994   6.145   3.989   6.971  0.8761 -2.0553 -0.4393
  190SLPC  H18T21995   6.127   4.090   6.821 -1.7957  0.2651 -2.4314
  190SLPC   C3321996   5.145   3.798   7.123  0.0234 -0.3432 -0.2505
  190SLPC   H3X21997   5.253   3.773   7.127 -0.2295 -1.3593  0.1500
  190SLPC   H3Y21998   5.097   3.698   7.114  1.0207 -1.0619  2.1393
  190SLPC   C3421999   5.089   3.863   7.247 -0.6122 -0.6132 -0.0341
  190SLPC   H4X22000   5.066   3.972   7.244 -1.3293 -0.8106 -2.7820
  190SLPC   H4Y22001   5.160   3.844   7.331  1.1719  1.8333 -0.9305
  190SLPC   C3522002   4.959   3.794   7.295  0.0504 -0.2137 -1.0919
  190SLPC   H5X22003   4.995   3.695   7.331  0.9260  0.2992 -0.5592
  190SLPC   H5Y22004   4.889   3.780   7.210  0.5075  1.4075 -1.7606
  190SLPC   C3622005   4.895   3.873   7.420 -0.6255 -0.5750 -0.5265
  190SLPC   H6X22006   4.787   3.849   7.430 -0.9530  0.6392 -1.1179
  190SLPC   H6Y22007   4.881   3.979   7.390  2.0525  0.6942  2.3844
  190SLPC   C3722008   4.959   3.863   7.566 -0.0664 -0.0034 -0.3331
  190SLPC   H7X22009   5.063   3.897   7.545  0.1559 -0.3274  0.2176
  190SLPC   H7Y22010   4.948   3.759   7.604  3.2415 -0.7521 -1.2680
  190SLPC   C3822011   4.919   3.966   7.675  0.0768  0.8186  0.7127
  190SLPC   H8X22012   4.808   3.967   7.680  0.0642 -2.6559  2.3942
  190SLPC   H8Y22013   4.948   4.064   7.632  2.7316  0.6203  1.9804
  190SLPC   C3922014   4.978   3.944   7.812  0.8665  0.0070  0.2935
  190SLPC   H9X22015   4.931   3.849   7.843  0.7315 -0.8916 -2.4859
  190SLPC   H9Y22016   4.949   4.027   7.880  0.3875  0.5667 -0.5707
  190SLPC  C31022017   5.127   3.919   7.823  0.4829 -0.2989 -0.0110
  190SLPC  H10X22018   5.184   4.006   7.783 -0.8255  0.7956  0.4430
  190SLPC  H10Y22019   5.166   3.837   7.759 -0.3157 -1.8033  1.3952
  190SLPC  C31122020   5.174   3.895   7.964 -0.0221 -0.3689  0.1564
  190SLPC  H11X22021   5.133   3.803   8.010 -2.0110  0.1140 -0.5827
  190SLPC  H11Y22022   5.144   3.982   8.027 -1.0124 -1.5311  1.3259
  190SLPC  C31222023   5.319   3.872   7.967 -0.1871 -0.7715 -0.0536
  190SLPC  H12X22024   5.358   3.848   7.866  2.7423  2.2321  0.3053
  190SLPC  H12Y22025   5.347   3.788   8.034  0.0308 -0.9395 -0.3564
  190SLPC  C31322026   5.399   3.994   8.020 -0.4495 -0.0351 -0.2323
  190SLPC  H13X22027   5.378   4.000   8.128 -0.9516  0.9718 -0.3782
  190SLPC  H13Y22028   5.354   4.083   7.971 -0.5812 -1.2192 -2.3202
  190SLPC  C31422029   5.550   3.988   7.998  0.9237  0.0222  0.4017
  190SLPC  H14X22030   5.580   3.941   7.902  2.9446  1.0654  0.4936
  190SLPC  H14Y22031   5.593   3.924   8.077  2.1380 -0.4786 -0.6351
  190SLPC  C31522032   5.617   4.128   7.993  0.0777 -0.2009 -0.5452
  190SLPC  H15X22033   5.599   4.148   7.886 -0.8854  0.6725 -0.2324
  190SLPC  H15Y22034   5.727   4.114   8.002  0.0082 -0.3699  0.1095
  190SLPC  C31622035   5.560   4.241   8.076 -0.0474  0.3095 -0.5228
  190SLPC  H16X22036   5.579   4.206   8.180  0.0712  0.0103 -0.6463
  190SLPC  H16Y22037   5.450   4.253   8.066 -0.0522 -0.1114 -0.9694
  190SLPC  C31722038   5.631   4.377   8.052 -0.4396 -0.3443  0.3975
  190SLPC  H17X22039   5.568   4.453   8.103 -2.3491 -2.2954  1.0146
  190SLPC  H17Y22040   5.617   4.387   7.942  1.8325  0.4933  0.1585
  190SLPC  C31822041   5.776   4.379   8.079 -0.0683  0.0780 -0.1712
  190SLPC  H18X22042   5.798   4.355   8.185  0.6960  2.0501  0.1373
  190SLPC  H18Y22043   5.818   4.479   8.056  1.8795 -0.3848  1.2530
  190SLPC  H18Z22044   5.839   4.311   8.018  0.0106  1.4184 -1.6217
  191SLPC     N22045   5.891   6.506   5.921  0.7930 -0.3111 -0.0209
  191SLPC   C1322046   6.042   6.474   5.915  0.2939 -0.3890 -0.5806
  191SLPC  H13A22047   6.071   6.449   5.814 -1.9698 -0.6518 -1.1757
  191SLPC  H13B22048   6.093   6.561   5.955  1.9778 -2.3672  1.7296
  191SLPC  H13C22049   6.061   6.387   5.975  0.2493  0.8739  1.3078
  191SLPC   C1422050   5.836   6.412   5.821 -0.0437  0.3122 -0.0940
  191SLPC  H14A22051   5.866   6.311   5.843 -0.6549  0.2094  0.2941
  191SLPC  H14B22052   5.729   6.421   5.823 -0.1704 -0.9971 -0.5809
  191SLPC  H14C22053   5.878   6.448   5.728  0.7667 -0.1971  0.0659
  191SLPC   C1522054   5.864   6.650   5.882 -0.0513  0.1834 -0.1516
  191SLPC  H15A22055   5.761   6.681   5.886  0.3546  1.4719  0.8081
  191SLPC  H15B22056   5.907   6.708   5.963 -0.7965 -2.2784  2.0488
  191SLPC  H15C22057   5.918   6.688   5.796  1.6021 -0.2716  0.6606
  191SLPC   C1222058   5.838   6.470   6.056 -0.1214  0.0305  0.1528
  191SLPC  H12A22059   5.732   6.484   6.042 -0.1962  0.7931  1.3894
  191SLPC  H12B22060   5.869   6.552   6.119 -0.8757  0.4535 -0.0236
  191SLPC   C1122061   5.851   6.333   6.119  0.7417 -0.0087  0.1889
  191SLPC  H11A22062   5.798   6.338   6.216  1.2147 -0.4899  0.4750
  191SLPC  H11B22063   5.958   6.325   6.147  0.8493  0.1477 -0.1700
  191SLPC     P22064   5.660   6.149   6.050 -0.4236 -0.0241 -0.4373
  191SLPC   O1322065   5.556   6.234   5.997  0.0875  0.2795  0.3471
  191SLPC   O1422066   5.666   6.016   5.984  0.2983  0.1431  0.0189
  191SLPC   O1222067   5.801   6.222   6.038  0.6678  0.3563 -0.2182
  191SLPC   O1122068   5.642   6.130   6.198  0.1858  0.4592 -0.1552
  191SLPC    C122069   5.537   6.185   6.280 -0.2191  0.3458  0.2929
  191SLPC    HA22070   5.575   6.279   6.325  3.0354 -1.3408  1.3101
  191SLPC    HB22071   5.447   6.220   6.226 -0.4799 -0.2606  0.3288
  191SLPC    C222072   5.482   6.090   6.393 -0.4235 -0.0013 -0.3254
  191SLPC    HS22073   5.376   6.063   6.373 -1.1089  2.2295  0.1155
  191SLPC   O2122074   5.502   6.155   6.518 -0.4131  0.2539  0.0700
  191SLPC   C2122075   5.407   6.252   6.536  0.2731  0.4947 -0.1084
  191SLPC   O2222076   5.305   6.263   6.475 -0.0550 -0.5182  0.0808
  191SLPC   C2222077   5.451   6.331   6.668  0.0899  0.0129  0.6864
  191SLPC   H2R22078   5.533   6.274   6.716  0.9454  0.3207 -0.4023
  191SLPC   H2S22079   5.486   6.436   6.667  2.7411 -0.8278  1.8239
  191SLPC    C322080   5.566   5.960   6.396  0.1001 -0.1100 -0.8828
  191SLPC    HX22081   5.673   5.990   6.400 -0.2207  1.3198 -2.5102
  191SLPC    HY22082   5.546   5.903   6.303 -1.7751 -0.0364 -0.5350
  191SLPC   O3122083   5.518   5.876   6.512  0.3255  0.0127 -0.2699
  191SLPC   C3122084   5.620   5.799   6.555 -0.5293 -0.3173  0.0712
  191SLPC   O3222085   5.726   5.785   6.498  0.0716  0.0784  0.6365
  191SLPC   C3222086   5.595   5.741   6.694  0.7171  0.1917 -0.3058
  191SLPC   H2X22087   5.497   5.690   6.698  0.5166  0.6013  0.0488
  191SLPC   H2Y22088   5.592   5.831   6.759 -2.2304 -0.6829  0.8563
  191SLPC   C2322089   5.338   6.333   6.768 -0.6149  0.3133  0.4468
  191SLPC   H3R22090   5.257   6.402   6.735 -1.2596 -0.0581  1.2489
  191SLPC   H3S22091   5.371   6.379   6.864 -1.3876 -1.0617  1.3884
  191SLPC   C2422092   5.283   6.191   6.799  0.1389 -0.8871 -0.2249
  191SLPC   H4R22093   5.228   6.152   6.710 -1.4639  1.6052 -0.3660
  191SLPC   H4S22094   5.212   6.199   6.884  0.2965  1.6609 -0.3041
  191SLPC   C2522095   5.383   6.080   6.852 -0.6679  0.1118 -0.2447
  191SLPC   H5R22096   5.451   6.052   6.768 -0.5422  0.9289 -0.4158
  191SLPC   H5S22097   5.323   5.999   6.900 -0.3860 -1.5072 -2.5526
  191SLPC   C2622098   5.474   6.123   6.970  0.4947  0.3627  0.0657
  191SLPC   H6R22099   5.424   6.198   7.036  2.3673  1.5366  0.2077
  191SLPC   H6S22100   5.562   6.175   6.924  1.6937 -2.3981 -0.8359
  191SLPC   C2722101   5.542   6.015   7.055 -0.1513  0.1093 -0.5144
  191SLPC   H7R22102   5.639   5.979   7.014  0.9521  1.3591  0.9408
  191SLPC   H7S22103   5.486   5.919   7.051  0.4366 -0.2821  0.4122
  191SLPC   C2822104   5.568   6.067   7.194 -0.0631 -0.9602  0.3755
  191SLPC   H8R22105   5.476   6.103   7.245  1.5864 -0.8946  3.4374
  191SLPC   H8S22106   5.630   6.158   7.182  0.5888 -0.9720  3.3589
  191SLPC   C2922107   5.646   5.971   7.277 -0.5994 -0.4685  0.4665
  191SLPC   H9R22108   5.745   5.943   7.237 -0.8113 -2.4912  1.2814
  191SLPC  C21022109   5.609   5.923   7.401  0.0252 -0.5385  0.3965
  191SLPC  H10R22110   5.688   5.867   7.451  1.8209  0.2441 -1.4624
  191SLPC  C21122111   5.478   5.949   7.478  0.1671 -0.4533 -0.4811
  191SLPC  H11R22112   5.389   5.952   7.412  1.2913  1.2387 -1.9744
  191SLPC  H11S22113   5.488   6.054   7.512 -1.2799 -0.3570 -0.3239
  191SLPC  C21222114   5.448   5.855   7.585 -0.6159 -0.2127 -0.5041
  191SLPC  H12R22115   5.404   5.768   7.534  0.4311  0.0578 -1.8819
  191SLPC  C21322116   5.459   5.875   7.725 -0.3324 -0.0736  0.2768
  191SLPC  H13R22117   5.451   5.791   7.796  0.0236 -0.4963 -0.1788
  191SLPC  C21422118   5.511   6.004   7.779  0.6006 -0.2218  0.0562
  191SLPC  H14R22119   5.433   6.083   7.771  0.6227 -0.3426 -1.5131
  191SLPC  H14S22120   5.588   6.041   7.709 -0.0738 -1.1597 -1.2066
  191SLPC  C21522121   5.559   5.991   7.923  0.3179  0.3716  0.4514
  191SLPC  H15R22122   5.471   5.963   7.985 -1.5195  0.1927 -2.1596
  191SLPC  H15S22123   5.602   6.086   7.960 -0.2767  0.8212 -0.0143
  191SLPC  C21622124   5.673   5.890   7.946  0.5822 -0.2609  0.6324
  191SLPC  H16R22125   5.768   5.946   7.957  0.4319 -0.0469  0.8433
  191SLPC  H16S22126   5.691   5.835   7.851 -0.1907  1.3454 -0.4611
  191SLPC  C21722127   5.651   5.791   8.059 -0.3054  0.6088  0.3750
  191SLPC  H17R22128   5.728   5.711   8.054 -2.6799 -1.6568 -1.6310
  191SLPC  H17S22129   5.555   5.738   8.038  0.7557 -1.8104  1.4357
  191SLPC  C21822130   5.646   5.862   8.194  0.3829 -0.2916 -0.2634
  191SLPC  H18R22131   5.575   5.947   8.194 -0.6622 -1.1348  0.7609
  191SLPC  H18S22132   5.744   5.909   8.216 -0.6072  1.3863  0.6460
  191SLPC  H18T22133   5.613   5.795   8.277  2.3936 -1.2844 -0.2148
  191SLPC   C3322134   5.705   5.634   6.737  0.0955 -0.3059  0.3655
  191SLPC   H3X22135   5.801   5.689   6.733 -0.9482  1.6679  1.4890
  191SLPC   H3Y22136   5.715   5.556   6.658 -0.3667  0.1946 -0.1954
  191SLPC   C3422137   5.685   5.562   6.866  0.1077  0.1917  0.5445
  191SLPC   H4X22138   5.773   5.496   6.873 -0.0539 -0.1149 -0.2614
  191SLPC   H4Y22139   5.598   5.492   6.862  1.2814 -1.3048  0.8843
  191SLPC   C3522140   5.683   5.665   6.979  0.2874 -0.0411 -0.2666
  191SLPC   H5X22141   5.592   5.729   6.977  0.8289  0.7797  0.6941
  191SLPC   H5Y22142   5.772   5.730   6.967  0.1073  0.0710 -1.0530
  191SLPC   C3622143   5.685   5.613   7.122 -1.0596  0.0781 -0.0530
  191SLPC   H6X22144   5.717   5.698   7.187 -0.4854  1.0508 -1.5709
  191SLPC   H6Y22145   5.775   5.548   7.130 -1.5800 -0.6810 -0.3360
  191SLPC   C3722146   5.555   5.543   7.169 -0.0310 -0.7385 -0.9340
  191SLPC   H7X22147   5.548   5.447   7.114 -0.7006 -2.0231  1.3160
  191SLPC   H7Y22148   5.464   5.600   7.140  0.7098  0.8480 -0.2169
  191SLPC   C3822149   5.556   5.509   7.321  0.0163  0.1007 -0.2022
  191SLPC   H8X22150   5.549   5.599   7.386  1.9599 -0.1947  0.4488
  191SLPC   H8Y22151   5.662   5.481   7.342 -0.0765 -0.9262 -1.0827
  191SLPC   C3922152   5.463   5.400   7.366 -0.1335 -0.4329 -0.0489
  191SLPC   H9X22153   5.471   5.306   7.308 -0.8139 -0.0071 -0.8488
  191SLPC   H9Y22154   5.362   5.446   7.352  0.5452  0.1735 -3.4749
  191SLPC  C31022155   5.473   5.368   7.521 -0.4696 -0.2922  0.0755
  191SLPC  H10X22156   5.404   5.284   7.540 -0.7953 -1.1489 -4.4854
  191SLPC  H10Y22157   5.454   5.458   7.584 -1.0823 -1.1676  1.1492
  191SLPC  C31122158   5.612   5.321   7.550  0.7036  0.4546  0.2887
  191SLPC  H11X22159   5.675   5.405   7.586  2.1720 -0.8547  0.8499
  191SLPC  H11Y22160   5.645   5.281   7.452 -1.3156  2.0538 -1.0575
  191SLPC  C31222161   5.612   5.200   7.653 -0.7350  0.0688 -0.0860
  191SLPC  H12X22162   5.707   5.143   7.648 -1.9715 -1.8597 -3.1798
  191SLPC  H12Y22163   5.540   5.130   7.605 -1.0997  1.9981 -2.4547
  191SLPC  C31322164   5.558   5.249   7.786 -0.1262 -0.6899  0.0798
  191SLPC  H13X22165   5.571   5.164   7.856  0.3159 -0.2426  0.5453
  191SLPC  H13Y22166   5.453   5.282   7.773  0.3892  1.8693  1.9761
  191SLPC  C31422167   5.629   5.367   7.852  0.2833 -0.4109 -0.8007
  191SLPC  H14X22168   5.632   5.457   7.787  1.3298 -0.2290 -0.5039
  191SLPC  H14Y22169   5.733   5.331   7.862 -0.5576 -2.6159  0.3902
  191SLPC  C31522170   5.570   5.417   7.984  0.3623  0.1365 -0.5083
  191SLPC  H15X22171   5.466   5.450   7.969  0.5388  1.4208  0.8972
  191SLPC  H15Y22172   5.632   5.503   8.019  0.1996  0.6095 -1.3717
  191SLPC  C31622173   5.562   5.302   8.093 -0.4056  0.3474 -0.0042
  191SLPC  H16X22174   5.582   5.349   8.191 -0.6580 -3.1227  1.7884
  191SLPC  H16Y22175   5.640   5.222   8.089  0.8103  1.5736 -1.8323
  191SLPC  C31722176   5.421   5.244   8.098  0.8241 -0.2493 -0.2981
  191SLPC  H17X22177   5.390   5.200   8.001  0.2347 -0.8376  0.1471
  191SLPC  H17Y22178   5.352   5.329   8.121 -0.0793 -1.0353 -0.0759
  191SLPC  C31822179   5.398   5.132   8.204 -0.3050 -0.5346  0.5575
  191SLPC  H18X22180   5.455   5.039   8.183  0.6281  0.0962  0.3296
  191SLPC  H18Y22181   5.293   5.117   8.238 -0.5805  2.1349  0.9485
  191SLPC  H18Z22182   5.457   5.168   8.291 -1.0781 -2.8433  2.1083
  192SLPC     N22183   6.057   0.739   6.452  0.3905 -0.2152 -0.1542
  192SLPC   C1322184   6.133   0.781   6.326 -0.0063  0.2133 -0.5159
  192SLPC  H13A22185   6.236   0.751   6.338  0.0688  0.7079  0.1075
  192SLPC  H13B22186   6.091   0.734   6.238  1.0517 -0.4514 -0.6753
  192SLPC  H13C22187   6.124   0.889   6.319  2.1741  0.3164 -2.2619
  192SLPC   C1422188   5.918   0.787   6.440 -0.3183  0.1314 -0.0083
  192SLPC  H14A22189   5.930   0.893   6.420 -0.6164 -0.1427 -1.7447
  192SLPC  H14B22190   5.872   0.739   6.355  0.2328  0.9556 -0.7882
  192SLPC  H14C22191   5.856   0.758   6.523  0.5066 -3.4432 -0.5639
  192SLPC   C1522192   6.123   0.806   6.572  0.3936  0.0384 -0.2458
  192SLPC  H15A22193   6.117   0.913   6.577  0.2557 -0.0156  1.1323
  192SLPC  H15B22194   6.078   0.774   6.665 -0.0751 -0.6893 -0.7157
  192SLPC  H15C22195   6.228   0.779   6.568  0.1910 -0.6710 -0.9631
  192SLPC   C1222196   6.066   0.590   6.479 -0.8492  0.6434 -0.2951
  192SLPC  H12A22197   6.015   0.558   6.569  0.9189  0.8304  0.8030
  192SLPC  H12B22198   6.171   0.565   6.482 -0.0886  3.4552 -1.6131
  192SLPC   C1122199   6.009   0.489   6.377 -0.0478 -0.3409 -0.1194
  192SLPC  H11A22200   6.030   0.385   6.409  0.2130 -0.0283  0.7130
  192SLPC  H11B22201   6.060   0.503   6.279  1.4940  1.2645  0.8970
  192SLPC     P22202   5.751   0.459   6.443  0.1994 -0.2189  0.4364
  192SLPC   O1322203   5.634   0.545   6.423 -1.1616  0.1547  0.5267
  192SLPC   O1422204   5.721   0.315   6.433  0.1386  0.2298  0.2652
  192SLPC   O1222205   5.866   0.497   6.341 -0.1830 -0.0029 -0.1962
  192SLPC   O1122206   5.814   0.497   6.581 -0.5139  0.5156 -0.1505
  192SLPC    C122207   5.772   0.461   6.714  0.2771  0.1720  0.3236
  192SLPC    HA22208   5.802   0.526   6.799 -0.7208 -1.7964  2.2254
  192SLPC    HB22209   5.661   0.451   6.721  0.2795 -0.3521 -0.3315
  192SLPC    C222210   5.825   0.322   6.759  0.4410  0.2024 -0.5341
  192SLPC    HS22211   5.774   0.243   6.700 -0.9205  0.0134  0.8565
  192SLPC   O2122212   5.800   0.311   6.899 -0.1084  0.4371  0.0282
  192SLPC   C2122213   5.752   0.196   6.945  0.4262 -0.9869 -0.1840
  192SLPC   O2222214   5.732   0.095   6.877  0.3123  0.2809 -0.2238
  192SLPC   C2222215   5.747   0.202   7.094 -0.1940 -0.4617  0.0672
  192SLPC   H2R22216   5.857   0.209   7.112 -0.6075 -0.4814  2.8687
  192SLPC   H2S22217   5.692   0.292   7.128  0.4409  0.4777 -1.3878
  192SLPC    C322218   5.976   0.310   6.732 -0.5154 -0.1701  0.3833
  192SLPC    HX22219   6.015   0.411   6.756 -1.6640  0.1987  0.7494
  192SLPC    HY22220   6.005   0.308   6.625 -0.0916 -0.3268  0.5040
  192SLPC   O3122221   6.044   0.205   6.805 -0.2141  0.5736  0.1243
  192SLPC   C3122222   6.021   0.086   6.752 -1.1278 -0.2157 -0.2178
  192SLPC   O3222223   5.944   0.064   6.662 -0.9569 -0.0620 -0.1554
  192SLPC   C3222224   6.088  -0.031   6.833 -0.1981  0.2503  0.2134
  192SLPC   H2X22225   6.147  -0.092   6.761 -0.8491 -1.0449  0.7651
  192SLPC   H2Y22226   6.004  -0.098   6.862  0.7945 -2.0385 -2.0120
  192SLPC   C2322227   5.693   0.077   7.160 -0.6652 -0.2404  0.3299
  192SLPC   H3R22228   5.739  -0.017   7.122  0.2913 -0.4691  2.0026
  192SLPC   H3S22229   5.585   0.074   7.137 -0.1330  2.7185 -2.9235
  192SLPC   C2422230   5.710   0.071   7.310  0.2991 -0.0873  0.0405
  192SLPC   H4R22231   5.678  -0.031   7.341 -0.2997 -0.5613 -2.0565
  192SLPC   H4S22232   5.632   0.139   7.351 -0.9578 -0.5968 -1.4754
  192SLPC   C2522233   5.851   0.097   7.366  0.3027  0.1338 -0.2044
  192SLPC   H5R22234   5.865   0.202   7.333 -1.4835  0.1393 -0.9936
  192SLPC   H5S22235   5.915   0.019   7.319 -0.0734 -0.2891 -0.0174
  192SLPC   C2622236   5.864   0.084   7.520 -0.1744  0.1243 -0.3314
  192SLPC   H6R22237   5.777   0.126   7.574 -1.3522  0.9286 -2.7600
  192SLPC   H6S22238   5.950   0.151   7.545 -1.2498  1.5146 -0.3434
  192SLPC   C2722239   5.887  -0.060   7.562 -0.1815 -0.1762  0.7043
  192SLPC   H7R22240   5.952  -0.106   7.486 -0.8219  0.6127 -0.3393
  192SLPC   H7S22241   5.800  -0.128   7.550  0.7344 -1.1299 -0.6299
  192SLPC   C2822242   5.950  -0.074   7.705 -0.3872  0.0625 -0.3883
  192SLPC   H8R22243   5.947  -0.181   7.733 -0.2238 -0.3502 -1.9191
  192SLPC   H8S22244   5.887  -0.012   7.772  0.6673  1.8223 -0.9684
  192SLPC   C2922245   6.094  -0.032   7.712  0.2260 -0.1751 -0.6758
  192SLPC   H9R22246   6.153  -0.020   7.619 -0.4739  1.6512 -0.9084
  192SLPC  C21022247   6.156   0.015   7.820  0.2143  0.0181  0.3211
  192SLPC  H10R22248   6.258   0.051   7.800  0.3584 -0.6780 -0.2313
  192SLPC  C21122249   6.100   0.025   7.957 -0.1380  0.0347  0.3937
  192SLPC  H11R22250   5.991   0.046   7.952 -0.1558 -0.1972 -0.2680
  192SLPC  H11S22251   6.136   0.118   8.006 -1.4649  1.0813 -0.5887
  192SLPC  C21222252   6.133  -0.102   8.036 -0.3226 -0.0603 -0.3321
  192SLPC  H12R22253   6.109  -0.197   7.986  0.1384  0.4032 -1.4454
  192SLPC  C21322254   6.175  -0.105   8.167  0.6832  0.7314  0.8593
  192SLPC  H13R22255   6.190  -0.206   8.208  0.4277  0.8890  1.3390
  192SLPC  C21422256   6.199   0.010   8.258  0.5334  0.2123 -0.9123
  192SLPC  H14R22257   6.194   0.109   8.209 -0.9218 -0.4999 -2.2303
  192SLPC  H14S22258   6.297  -0.005   8.310 -1.1737 -1.5084  1.9178
  192SLPC  C21522259   6.113   0.022   8.383  0.3460 -0.1904 -0.0646
  192SLPC  H15R22260   6.130  -0.070   8.443 -2.8256 -0.0056  1.2163
  192SLPC  H15S22261   6.005   0.030   8.356  0.3759 -1.7593 -0.7015
  192SLPC  C21622262   6.153   0.145   8.465 -0.0883  0.1582 -0.3027
  192SLPC  H16R22263   6.163   0.240   8.410 -1.2250  0.2835 -0.2995
  192SLPC  H16S22264   6.257   0.126   8.501 -0.2038  0.3353  0.1316
  192SLPC  C21722265   6.053   0.187   8.583  0.5634  0.6452  0.6286
  192SLPC  H17R22266   6.105   0.270   8.635  0.1230  1.0345  0.4461
  192SLPC  H17S22267   5.961   0.234   8.542  1.8789  2.7056 -0.0019
  192SLPC  C21822268   6.023   0.070   8.676 -0.2156 -0.9234  0.3017
  192SLPC  H18R22269   6.108   0.052   8.746  1.2362  1.0995 -0.8833
  192SLPC  H18S22270   5.998  -0.029   8.631 -0.6419 -0.3926 -0.6282
  192SLPC  H18T22271   5.941   0.118   8.732  2.0654  3.2336  0.2717
  192SLPC   C3322272   6.174   0.009   6.953  0.1129  0.0276 -0.7570
  192SLPC   H3X22273   6.108   0.055   7.030  0.3977  0.5115 -0.7980
  192SLPC   H3Y22274   6.257   0.079   6.930  1.6509 -1.5088  0.0648
  192SLPC   C3422275   6.238  -0.125   7.016 -0.1996  0.0098 -0.0942
  192SLPC   H4X22276   6.302  -0.167   6.935 -0.0262 -0.2669  0.1870
  192SLPC   H4Y22277   6.165  -0.199   7.057 -0.9691 -0.3917 -2.1176
  192SLPC   C3522278   6.336  -0.094   7.133 -0.1869  0.5277 -0.5629
  192SLPC   H5X22279   6.280  -0.056   7.221  3.0653  0.5535  1.5863
  192SLPC   H5Y22280   6.407  -0.011   7.114  0.6026  0.3424  1.4553
  192SLPC   C3622281   6.406  -0.221   7.181 -0.0464 -0.3075  0.6861
  192SLPC   H6X22282   6.473  -0.264   7.104 -0.3803 -0.6415  0.5765
  192SLPC   H6Y22283   6.320  -0.290   7.201  0.2005 -0.3544  1.5935
  192SLPC   C3722284   6.505  -0.207   7.299 -0.0139  0.4869  0.3674
  192SLPC   H7X22285   6.599  -0.153   7.276  0.5045 -0.8392 -0.6739
  192SLPC   H7Y22286   6.540  -0.310   7.321  0.2116  0.4016 -0.3913
  192SLPC   C3822287   6.434  -0.150   7.419 -0.5231 -0.5096  0.5622
  192SLPC   H8X22288   6.338  -0.205   7.430  0.6536 -2.5244  0.9289
  192SLPC   H8Y22289   6.431  -0.039   7.411 -2.7946 -0.4787  1.4498
  192SLPC   C3922290   6.529  -0.184   7.538 -0.2224  0.1982  0.0124
  192SLPC   H9X22291   6.637  -0.163   7.525 -0.6652  1.9862 -0.9328
  192SLPC   H9Y22292   6.523  -0.293   7.557 -0.4170  0.6586  2.7843
  192SLPC  C31022293   6.479  -0.130   7.668  0.1823  0.3040 -0.0931
  192SLPC  H10X22294   6.375  -0.165   7.690  0.2002  0.2587 -0.0842
  192SLPC  H10Y22295   6.488  -0.021   7.683 -0.2769  0.4585 -0.8901
  192SLPC  C31122296   6.569  -0.185   7.781 -0.0669  0.0755  0.3765
  192SLPC  H11X22297   6.678  -0.186   7.758 -0.4612  0.7497 -1.5929
  192SLPC  H11Y22298   6.533  -0.288   7.801 -0.2831 -0.0267 -0.4832
  192SLPC  C31222299   6.561  -0.098   7.912  0.3182  0.2138  0.1214
  192SLPC  H12X22300   6.457  -0.084   7.948  0.3056  0.3462  0.0334
  192SLPC  H12Y22301   6.605   0.003   7.897  3.1637 -1.0544 -0.3901
  192SLPC  C31322302   6.634  -0.166   8.038  0.1357  0.8218  0.1358
  192SLPC  H13X22303   6.740  -0.183   8.011  0.0749 -0.0456  0.4362
  192SLPC  H13Y22304   6.575  -0.259   8.055 -0.7207  1.1613 -0.9306
  192SLPC  C31422305   6.629  -0.091   8.173 -0.0922 -0.2319 -0.2952
  192SLPC  H14X22306   6.662  -0.159   8.254 -1.9816 -0.3616  0.3912
  192SLPC  H14Y22307   6.521  -0.073   8.187  0.5102  2.1839  1.5887
  192SLPC  C31522308   6.711   0.034   8.173 -0.1239  0.1599 -0.2079
  192SLPC  H15X22309   6.710   0.087   8.075 -0.7183  0.4941 -0.0230
  192SLPC  H15Y22310   6.813   0.004   8.205 -0.4527 -1.6737 -0.8188
  192SLPC  C31622311   6.667   0.132   8.286 -0.2958  0.1188 -0.3330
  192SLPC  H16X22312   6.590   0.201   8.246  0.4467 -0.3055 -2.5887
  192SLPC  H16Y22313   6.743   0.196   8.336 -1.5651  0.4191  1.2701
  192SLPC  C31722314   6.599   0.056   8.404 -0.5643 -0.6948 -0.2228
  192SLPC  H17X22315   6.652  -0.031   8.448 -2.7211 -1.9109  0.0649
  192SLPC  H17Y22316   6.503   0.014   8.367 -0.3719 -0.6742 -0.7630
  192SLPC  C31822317   6.552   0.160   8.506 -0.0551 -0.0150 -0.4501
  192SLPC  H18X22318   6.646   0.191   8.556 -0.7001  0.4440  0.4785
  192SLPC  H18Y22319   6.483   0.117   8.582  1.1369  0.5462  0.9714
  192SLPC  H18Z22320   6.505   0.247   8.454  2.1522  1.2559 -0.3948
  193SOD    SOD22321   2.306   5.347   5.627  0.1439  0.1731  0.0715
  194SOD    SOD22322   4.716   2.474   3.636  0.3406  0.9872  0.4685
  195SOD    SOD22323   1.420   4.335  13.009  0.3746  0.2400 -0.5065
  196SOD    SOD22324   1.676   6.303   5.017  0.5874 -0.0594  0.0892
  197SOD    SOD22325   3.126   4.564  11.189  0.1075 -0.2627 -0.0997
  198SOD    SOD22326   6.105   3.411   1.424  0.3077  0.1454  0.0867
  199SOD    SOD22327   0.917   4.997   0.048 -0.1175  0.6369  0.0489
  200SOD    SOD22328   1.094   1.127  14.973  0.0311  0.0069 -0.2609
  201SOD    SOD22329   3.613   0.253   6.586  0.2163 -0.1435  0.1468
  202SOD    SOD22330   2.747   1.117  15.240  0.5168 -0.0756 -0.1134
  203SOD    SOD22331   1.526   3.032  11.278  0.1335 -0.0394  0.0076
  204SOD    SOD22332   6.787   4.157  12.172 -0.1424  0.1585 -0.1808
  205SOD    SOD22333   1.733   0.966   4.344 -0.2370  0.4977 -0.5763
  206SOD    SOD22334   0.105   2.182   1.982  0.1760 -0.1659 -0.0444
  207SOD    SOD22335   3.065   2.486   5.642  0.2327 -0.6026  0.4068
  208SOD    SOD22336   3.928   6.491   4.811 -0.3855  0.4078 -0.3282
  209SOD    SOD22337   1.504   3.014  15.123  0.2919 -0.1091 -0.1764
  210SOD    SOD22338   5.167   4.400   1.622  0.1536  0.1693  0.3525
  211SOD    SOD22339   2.525   0.737  11.853 -0.2653 -0.1005 -0.4785
  212SOD    SOD22340   1.597   2.373  13.405  0.3537  0.5867  0.1990
  213SOD    SOD22341   5.086   6.113  15.831 -0.4502  0.1495 -0.0382
  214SOD    SOD22342   2.532   6.037   3.190 -0.2685 -0.6366 -0.0110
  215SOD    SOD22343   4.048   3.473   3.113 -0.3205  0.6958  0.3901
  216SOD    SOD22344   0.339   1.408  15.798 -0.7096 -0.0643 -0.1971
  217SOD    SOD22345   4.054   5.662   4.092 -0.6942 -0.1259 -0.0004
  218SOD    SOD22346   4.014   1.128   4.308 -0.1433 -0.4205 -0.1716
  219SOD    SOD22347   5.004   5.727  14.625 -0.1258  0.2252 -0.3216
  220SOD    SOD22348   2.321   3.800  15.368  0.1289 -0.0382  0.0770
  221SOD    SOD22349   5.479   0.269   1.833 -0.1279  0.5989  0.0733
  222SOD    SOD22350   6.071   6.476  11.098 -0.2573 -0.0664 -0.3285
  223SOD    SOD22351   5.416   1.105   1.442  0.3118 -0.4671  0.3942
  224SOD    SOD22352   5.010   6.451  12.243 -0.2305  0.2416 -0.0751
  225SOD    SOD22353   1.201   1.067  11.965  0.5047  0.0285  0.2837
  226SOD    SOD22354   6.251   0.287  14.898  0.4006  0.3151  0.0265
  227SOD    SOD22355   0.277   3.230  10.757  0.3161 -0.5050 -0.5602
  228SOD    SOD22356   0.714   1.403   0.231  0.2728 -0.4683  0.2528
  229SOD    SOD22357   3.313   0.463  15.186 -0.0889 -0.0222  0.5919
  230SOD    SOD22358   6.340   4.778  10.911 -0.3107  0.2602 -0.2804
  231SOD    SOD22359   4.277   4.073  11.380  0.0472 -0.2504 -0.0431
  232SOD    SOD22360   6.508   3.259   2.758  0.3385  0.0030 -0.0083
  233SOD    SOD22361   2.620   2.601   0.220  0.6219  0.3289  0.2144
  234SOD    SOD22362   5.294   2.351  11.977 -0.3216  0.2687 -0.1770
  235SOD    SOD22363   1.794   5.930  14.062  0.1386 -0.2723  0.3968
  236SOD    SOD22364   4.329   5.277  13.823 -0.0720  0.5429  0.2193
  237SOD    SOD22365   3.336   3.552  13.605  0.6961 -0.3131 -0.0201
  238SOD    SOD22366   3.747   3.311   5.398  0.2254  0.3094  0.2440
  239SOD    SOD22367   5.639   3.030   0.187 -0.0477 -0.4360 -0.3832
  240SOD    SOD22368   4.075   1.782  11.177  0.1011 -0.1096 -0.2602
  241SOD    SOD22369   5.941   1.951   6.193 -0.3422 -0.2056  0.2558
  242SOD    SOD22370   4.446   4.634   5.258  0.2276 -0.0491 -0.1407
  243SOD    SOD22371   5.101   1.655   5.992  0.6655 -0.4861  0.0054
  244SOD    SOD22372   1.272   0.425   4.534 -0.0130  0.0162  0.3241
  245SOD    SOD22373   2.841   3.282   0.561  0.5159  0.2416 -0.6153
  246SOD    SOD22374   1.431   1.612   6.618 -0.1870 -0.6192 -0.1923
  247SOD    SOD22375   6.173   0.216   3.964 -0.3106 -0.1613  0.2441
  248SOD    SOD22376   4.653   2.750  16.282 -0.1469 -0.1980 -0.1725
  249SOD    SOD22377   0.055   3.232  11.827  0.2885  0.3236  0.0736
  250SOD    SOD22378   1.296   4.904  15.596 -0.2695  0.4355  0.2681
  251SOD    SOD22379   2.740   0.371   2.193 -0.4401 -0.0404 -0.0454
  252SOD    SOD22380   5.751   4.508  11.114  0.7864  0.3312  0.0827
  253SOD    SOD22381   2.318   4.236   3.214 -0.2006  0.1569  0.4041
  254SOD    SOD22382   1.179   2.543   5.447 -0.2161  0.1279  0.6187
  255SOD    SOD22383   4.920   5.115   4.699  0.2350 -0.2032 -0.3805
  256SOD    SOD22384   0.868   5.224   6.253  0.3776  0.2516  0.0880
  257SOD    SOD22385   3.227   4.382   1.457 -0.2644  0.2079 -0.6071
  258SOD    SOD22386   4.153   0.393  11.876 -0.0001  0.0610 -0.1026
  259SOD    SOD22387   2.990   5.678  11.311 -0.0162  0.1849  0.1439
  260SOD    SOD22388   3.212   4.103   3.959 -0.1622 -0.7583 -0.0535
  261SOD    SOD22389   4.436   4.468  13.737  0.7043 -0.1292 -0.3306
  262SOD    SOD22390   6.010   5.852   5.078 -0.1900 -0.3425 -1.0207
  263SOD    SOD22391   2.632   0.984   5.498 -0.1348  0.4158  0.2851
  264SOD    SOD22392   5.779   5.653   6.304  0.7188  0.0901 -0.4081
  265SOD    SOD22393   0.100   3.008   6.057  0.2315 -0.4205  0.2031
  266CLA    CLA22394   3.842   6.266   4.374 -0.2980  0.1322 -0.5130
  267CLA    CLA22395   3.994   3.930   3.759  0.1041  0.4045 -0.2131
  268CLA    CLA22396   4.370   6.206  12.870  0.0627  0.1186 -0.1934
  269CLA    CLA22397   5.969   0.275  12.946  0.1374  0.1094 -0.0530
  270CLA    CLA22398   2.421   6.556   4.011  0.0230  0.2720 -0.2308
  271CLA    CLA22399   3.975   0.289  14.310  0.3493  0.2539  0.1187
  272CLA    CLA22400   0.808   2.580   1.827 -0.2054  0.2383  0.0242
  273CLA    CLA22401   5.390   6.357  15.518 -0.0559 -0.0238  0.2170
  274CLA    CLA22402   3.411   2.737  11.598  0.2906 -0.2333 -0.1214
  275CLA    CLA22403   5.899   4.602  12.590  0.3939  0.0862 -0.1575
  276CLA    CLA22404   6.614   2.804   2.849 -0.1169  0.0607 -0.2244
  277CLA    CLA22405   6.201   4.101   5.681 -0.6613 -0.2303  0.1316
  278CLA    CLA22406   6.659   5.493   2.404  0.1126  0.4643  0.2696
  279CLA    CLA22407   2.207   0.420   2.284  0.2735 -0.3704 -0.0668
  280CLA    CLA22408   6.547   6.027  13.439  0.1915 -0.5478  0.5008
  281CLA    CLA22409   1.281   5.629   0.319  0.2381 -0.4070  0.3990
  282CLA    CLA22410   0.828   4.452   0.413  0.3334  0.5820  0.2382
  283CLA    CLA22411   5.867   2.285   3.109 -0.3963 -0.0101  0.0425
  284CLA    CLA22412   2.107   2.286   1.037  0.3461  0.0349  0.2724
  285CLA    CLA22413   2.079   0.047   5.647 -0.0029 -0.5282  0.2403
  286CLA    CLA22414   1.667   6.049  11.894  0.2050  0.2535  0.2828
  287CLA    CLA22415   6.749   1.356  11.865  0.3712  0.2109 -0.0102
  288CLA    CLA22416   6.591   6.332   3.477  0.0811 -0.1425  0.0129
  289CLA    CLA22417   0.525   2.591   0.781  0.3042 -0.3099 -0.2849
  290CLA    CLA22418   5.747   5.030  13.067  0.1886 -0.0153 -0.1505
  291CLA    CLA22419   1.269   5.226  12.967  0.2505  0.0184  0.0517
  292CLA    CLA22420   4.113   1.952  17.171 -0.0407  0.3252 -0.1222
  293CLA    CLA22421   4.723   4.716   4.864 -0.5259 -0.0584 -0.6106
  294CLA    CLA22422   1.025   3.136  15.435 -0.3065  0.4475  0.4766
  295CLA    CLA22423   0.316   4.555   1.727  0.1379  0.2747 -0.1191
  296CLA    CLA22424   2.487   1.467   4.814  0.0523 -0.1547  0.0849
  297CLA    CLA22425   1.838   2.203  14.402 -0.1975  0.4543 -0.1209
  298CLA    CLA22426   4.910   5.788   3.850  0.1706 -0.1121  0.0103
  299CLA    CLA22427   4.812   1.242   1.551  0.0747 -0.1535 -0.1371
  300CLA    CLA22428   5.024   1.338  16.054  0.1454 -0.2804 -0.2482
  301CLA    CLA22429   4.026   5.044   1.234 -0.5248  0.1582 -0.0998
  302CLA    CLA22430   3.570   1.648  15.961 -0.2479  0.3193  0.2569
  303CLA    CLA22431   1.678   6.526   1.626 -0.1458 -0.1268 -0.2479
  304CLA    CLA22432   2.458   3.801   2.091 -0.0316  0.3908 -0.0682
  305CLA    CLA22433   0.492   0.185   1.464  0.3719  0.2182  0.0239
  306CLA    CLA22434   2.388   1.155   5.910  0.2509 -0.6415  0.2341
  307CLA    CLA22435   6.495   2.733  12.825 -0.1109  0.1185 -0.3180
  308CLA    CLA22436   3.304   1.074   5.893  0.3817 -0.4622  0.3179
  309CLA    CLA22437   0.267   2.684  14.838  0.1933  0.1980  0.0181
  310CLA    CLA22438   2.563   1.431   3.603  0.0267 -0.0773  0.0811
  311CLA    CLA22439   0.782   2.313   4.433 -0.0768  0.2454  0.1307
  312CLA    CLA22440   4.274   1.117   2.979  0.6020  0.0722 -0.2581
  313CLA    CLA22441   5.271   4.747  13.575  0.7858 -0.0307 -0.1229
  314CLA    CLA22442   2.534   0.355  12.511  0.0055 -0.0986  0.3275
  315CLA    CLA22443   2.232   2.895  13.000  0.2270  0.2299  0.6045
  316CLA    CLA22444   2.823   3.841  15.966 -0.2110  0.1516  0.0807
  317CLA    CLA22445   5.920   3.304   4.001  0.1456 -0.1180 -0.1927
  318CLA    CLA22446   2.787   2.588  16.336  0.3260 -0.3860  0.2360
  319TIP3   OH222447   0.316   3.780  11.082 -0.6164 -0.2780  0.1768
  319TIP3    H122448   0.275   3.865  11.062  0.8651  0.1801 -1.0147
  319TIP3    H222449   0.260   3.716  11.039 -1.1884  0.1801  0.2314
  320TIP3   OH222450   0.757   3.146  11.092 -0.7798 -0.3831 -0.2393
  320TIP3    H122451   0.723   3.162  11.004 -0.0113 -1.1842 -0.6850
  320TIP3    H222452   0.757   3.051  11.102 -0.5515 -0.3109  0.5053
  321TIP3   OH222453   5.569   0.823   3.098 -0.5684 -0.4781 -0.2632
  321TIP3    H122454   5.543   0.887   3.033  1.3744  0.4598 -0.1382
  321TIP3    H222455   5.494   0.816   3.157 -1.5846  0.0998 -1.4911
  322TIP3   OH222456   4.373   0.183   6.074 -0.4411 -0.3456 -0.2585
  322TIP3    H122457   4.330   0.146   6.151  0.2246  0.7762  0.6653
  322TIP3    H222458   4.332   0.269   6.063 -0.0154 -0.2034 -0.7274
  323TIP3   OH222459   0.632   6.425  12.441 -0.5794 -0.1354  0.1183
  323TIP3    H122460   0.682   6.346  12.419 -2.0039 -1.0515  0.1098
  323TIP3    H222461   0.659   6.445  12.530 -1.1079 -1.3535  0.5674
  324TIP3   OH222462   2.152   2.556   4.685  0.3148  0.7722  0.3767
  324TIP3    H122463   2.078   2.495   4.679  0.2729  0.8165  0.4456
  324TIP3    H222464   2.226   2.502   4.713  1.0511  0.1030 -2.6297
  325TIP3   OH222465   0.464   1.585   3.699 -0.0546 -0.3283  0.3171
  325TIP3    H122466   0.499   1.583   3.611 -1.7662 -0.8181 -0.3816
  325TIP3    H222467   0.539   1.570   3.756  1.0089 -0.2849 -1.0697
  326TIP3   OH222468   2.265   3.825  12.222 -0.3072  0.5554  0.3795
  326TIP3    H122469   2.311   3.907  12.203  0.2485 -0.4457 -2.8039
  326TIP3    H222470   2.173   3.843  12.200  0.1412 -0.2391 -2.2855
  327TIP3   OH222471   6.659   6.324  13.350 -0.2447  0.3762 -0.3242
  327TIP3    H122472   6.640   6.232  13.334  1.1025 -0.1073  0.7417
  327TIP3    H222473   6.746   6.324  13.390 -1.2237  1.9224  1.9385
  328TIP3   OH222474   6.207   4.946  16.356  0.1409 -0.5029  0.1245
  328TIP3    H122475   6.148   5.011  16.396 -1.3729 -2.4970  1.2422
  328TIP3    H222476   6.255   4.909  16.430  0.9588 -0.6950 -0.5002
  329TIP3   OH222477   0.986   6.433   5.005 -0.0957 -0.6281  0.0105
  329TIP3    H122478   1.005   6.506   4.946  2.3720  0.0235  1.5014
  329TIP3    H222479   0.979   6.357   4.948  1.6442  0.0896 -1.1973
  330TIP3   OH222480   1.206   3.166  12.549  0.3790  0.0630  0.2017
  330TIP3    H122481   1.274   3.103  12.525 -0.0932 -0.3088 -0.1760
  330TIP3    H222482   1.251   3.250  12.547  0.7602 -0.1453 -0.3376
  331TIP3   OH222483   4.675   3.429   5.583 -0.8930  0.4933 -0.3486
  331TIP3    H122484   4.663   3.364   5.652 -0.3750  0.5169 -0.2333
  331TIP3    H222485   4.588   3.469   5.572 -0.7105  1.3577  1.1616
  332TIP3   OH222486   6.704   1.353  11.015  0.2813 -0.2230  0.2241
  332TIP3    H122487   6.619   1.372  10.977  1.3459 -0.9447 -2.5941
  332TIP3    H222488   6.720   1.425  11.076 -1.3700  1.0221 -0.7918
  333TIP3   OH222489   5.587   4.805   6.558 -0.1472  0.1524 -0.8715
  333TIP3    H122490   5.512   4.847   6.600  0.0512 -0.3729  0.0178
  333TIP3    H222491   5.595   4.849   6.473 -1.6948 -0.0390 -1.1366
  334TIP3   OH222492   6.631   3.004  12.807 -0.1607 -0.6601  0.5506
  334TIP3    H122493   6.560   2.939  12.806 -1.5263  0.7794 -2.1100
  334TIP3    H222494   6.709   2.953  12.826 -1.5483 -2.7250  0.8854
  335TIP3   OH222495   4.096   1.462  16.796  0.9041  0.1973  0.0694
  335TIP3    H122496   4.185   1.451  16.831  0.4233 -0.2668  1.1751
  335TIP3    H222497   4.039   1.431  16.867 -0.1428  0.6599 -0.5701
  336TIP3   OH222498   1.492   5.714  13.878 -0.5301  0.5499 -0.2387
  336TIP3    H122499   1.468   5.626  13.849  2.5238 -0.6539  0.7319
  336TIP3    H222500   1.469   5.771  13.804 -1.3376 -1.2153 -1.3686
  337TIP3   OH222501   4.295   4.034   3.144 -0.1559  0.4345 -0.4514
  337TIP3    H122502   4.379   4.041   3.188  0.4118 -1.0627 -1.2905
  337TIP3    H222503   4.233   4.015   3.214  0.2257  1.2564  0.1265
  338TIP3   OH222504   5.480   1.978  13.322  0.4300 -0.3757  0.0313
  338TIP3    H122505   5.434   1.944  13.399 -0.6342 -0.2934 -0.5595
  338TIP3    H222506   5.535   2.048  13.357 -0.3255 -0.0854  0.6770
  339TIP3   OH222507   5.082   3.417  11.187 -0.1809 -0.1351 -0.1458
  339TIP3    H122508   4.999   3.372  11.205 -0.0992  0.1554  1.0050
  339TIP3    H222509   5.143   3.347  11.164 -0.4153 -0.4765  0.2689
  340TIP3   OH222510   1.711   4.110   3.940 -0.4905  0.3314  0.6185
  340TIP3    H122511   1.739   4.022   3.916 -1.3809  0.5904 -1.4319
  340TIP3    H222512   1.631   4.125   3.890  0.4998  2.8755 -0.3103
  341TIP3   OH222513   5.612   3.898   5.985  0.3394 -0.3024 -0.3617
  341TIP3    H122514   5.691   3.944   6.014  0.5916  0.0121 -1.5098
  341TIP3    H222515   5.544   3.925   6.046  1.3170 -1.3065  1.2261
  342TIP3   OH222516   4.212   2.827   2.206 -0.5040 -0.0758 -0.6948
  342TIP3    H122517   4.209   2.841   2.301  0.9246  0.8753 -0.7752
  342TIP3    H222518   4.253   2.742   2.195 -1.0549 -0.3730 -0.4470
  343TIP3   OH222519   5.946   6.286   4.703  0.3030 -0.4637 -0.2440
  343TIP3    H122520   5.911   6.260   4.788  1.1713  1.2703  0.6813
  343TIP3    H222521   5.870   6.296   4.647 -0.3779 -0.4384  0.6781
  344TIP3   OH222522   2.576   0.384  11.373  0.1832  0.0463  0.1720
  344TIP3    H122523   2.528   0.311  11.334  0.5152  0.4680 -1.0701
  344TIP3    H222524   2.512   0.455  11.375 -0.0608 -0.1962  1.1284
  345TIP3   OH222525   6.663   1.311   5.089 -0.6149 -0.3271 -0.0652
  345TIP3    H122526   6.596   1.243   5.093 -2.7450  1.5470 -2.3657
  345TIP3    H222527   6.730   1.275   5.032 -0.4220 -1.5595  0.9236
  346TIP3   OH222528   1.338   5.423  16.658  0.4480  0.2304  0.2243
  346TIP3    H122529   1.391   5.503  16.651  0.1005  0.3598 -1.0268
  346TIP3    H222530   1.268   5.435  16.594 -1.2134  0.1238  1.9575
  347TIP3   OH222531   3.052   4.864   1.285 -0.2471 -0.1626 -0.3692
  347TIP3    H122532   2.993   4.877   1.359  1.4128  0.2083  0.9147
  347TIP3    H222533   3.013   4.791   1.236 -3.2705  1.8763 -1.1236
  348TIP3   OH222534   0.659   0.292  15.739  0.0720  0.3720 -0.1954
  348TIP3    H122535   0.708   0.301  15.821  0.1187  1.3048 -0.3201
  348TIP3    H222536   0.646   0.382  15.709 -0.0824  0.0403 -1.1336
  349TIP3   OH222537   4.092   6.118   0.088 -0.0733 -0.1530  0.3066
  349TIP3    H122538   4.114   6.063   0.164  0.8659 -0.3769 -0.1232
  349TIP3    H222539   4.112   6.063   0.012 -0.5768  0.2382 -0.1103
  350TIP3   OH222540   2.310   5.910  15.600 -0.4759  0.2218 -0.2421
  350TIP3    H122541   2.313   5.989  15.655 -1.2856  1.4638 -1.9241
  350TIP3    H222542   2.393   5.865  15.619  0.1774  1.6668  0.4757
  351TIP3   OH222543   4.558   2.150   1.482  0.6571 -0.4322  0.8521
  351TIP3    H122544   4.622   2.137   1.412 -1.7909 -1.1495 -1.3261
  351TIP3    H222545   4.607   2.133   1.563  3.4569  0.0831 -0.6718
  352TIP3   OH222546   0.956   6.003  12.754 -0.2652 -0.1276 -0.3289
  352TIP3    H122547   1.002   6.014  12.671 -1.5141 -0.7846 -1.1184
  352TIP3    H222548   0.979   5.915  12.783  0.0964  0.0675 -0.0153
  353TIP3   OH222549   1.634   6.620   6.757  0.0432  0.3582  0.2589
  353TIP3    H122550   1.632   6.671   6.838 -0.2947 -1.0733  1.1674
  353TIP3    H222551   1.551   6.572   6.757  0.6453 -0.7048 -0.2419
  354TIP3   OH222552   5.311   0.334  12.252 -0.1100  0.3719  0.1102
  354TIP3    H122553   5.303   0.362  12.161  1.2627  2.5876  0.6351
  354TIP3    H222554   5.405   0.318  12.263 -0.1173  1.2306  1.4463
  355TIP3   OH222555   2.764   2.737   3.729  0.0187 -0.4638 -0.1878
  355TIP3    H122556   2.695   2.674   3.709 -0.4101 -0.3570  0.9263
  355TIP3    H222557   2.732   2.785   3.806  2.0120 -1.4757  1.3198
  356TIP3   OH222558   2.493   1.161   3.783 -0.1193 -0.1488  0.0336
  356TIP3    H122559   2.545   1.159   3.863 -0.6991 -1.2790  0.3996
  356TIP3    H222560   2.534   1.228   3.728  0.5216  0.3441  1.1104
  357TIP3   OH222561   4.029   0.295  15.240  0.0480 -0.2517  0.1122
  357TIP3    H122562   4.094   0.298  15.310  1.3662  0.1391 -1.1144
  357TIP3    H222563   3.970   0.224  15.266  1.6558 -1.4233  0.6563
  358TIP3   OH222564   6.512   4.760  17.276 -0.4757 -0.3162  0.2049
  358TIP3    H122565   6.483   4.849  17.294  0.1850  0.5515 -2.6959
  358TIP3    H222566   6.510   4.753  17.180  1.3385 -2.7882  0.2969
  359TIP3   OH222567   5.109   2.327   3.765 -0.1769  0.2050  0.3225
  359TIP3    H122568   5.169   2.400   3.779  0.0272 -0.2875  2.2439
  359TIP3    H222569   5.160   2.263   3.716  0.7433 -0.0221  1.5462
  360TIP3   OH222570   5.305   5.335   6.172  0.2212  0.2468  0.0314
  360TIP3    H122571   5.325   5.347   6.079 -0.2163 -2.0698 -0.3830
  360TIP3    H222572   5.377   5.281   6.205 -0.0661  0.3528  0.8405
  361TIP3   OH222573   6.219   5.662  15.836 -0.1790 -0.2328 -0.1677
  361TIP3    H122574   6.241   5.569  15.846 -0.5599 -0.6206 -2.5646
  361TIP3    H222575   6.126   5.662  15.813 -0.1605  0.7230 -0.2431
  362TIP3   OH222576   3.048   6.611  16.033 -0.4928 -0.2175 -0.0470
  362TIP3    H122577   3.115   6.671  16.064 -0.4195  0.0517 -0.7131
  362TIP3    H222578   3.079   6.524  16.060  0.3471 -0.1388 -0.7381
  363TIP3   OH222579   3.112   0.461  15.298  0.3212  0.0726  0.0911
  363TIP3    H122580   3.059   0.526  15.344  1.4789  0.2233  1.2499
  363TIP3    H222581   3.069   0.378  15.316  0.1818  0.2496  0.5933
  364TIP3   OH222582   4.853   4.925  15.985 -0.4568  0.5174  0.4670
  364TIP3    H122583   4.828   4.891  15.899  0.4219  0.7752  0.1111
  364TIP3    H222584   4.780   4.900  16.042 -1.0320  0.3257 -0.3408
  365TIP3   OH222585   3.885   6.680   5.272  0.2359 -0.8453 -0.0368
  365TIP3    H122586   3.852   6.642   5.191  1.4018  1.1440 -1.4916
  365TIP3    H222587   3.818   6.742   5.299 -1.2027 -3.0881  1.8036
  366TIP3   OH222588   6.557   5.602  12.174  0.0966  0.1813 -0.2416
  366TIP3    H122589   6.463   5.617  12.180  0.3312  1.4493  0.5132
  366TIP3    H222590   6.591   5.681  12.132  0.6954 -0.7494 -1.5160
  367TIP3   OH222591   6.348   5.094   3.592 -0.0459  0.2347  0.1982
  367TIP3    H122592   6.299   5.142   3.525 -0.8604 -0.8332  0.0081
  367TIP3    H222593   6.433   5.136   3.595  0.4547 -0.4851 -2.4144
  368TIP3   OH222594   2.250   2.783   5.200  0.0880 -0.3232 -0.3408
  368TIP3    H122595   2.343   2.787   5.181 -0.1001 -1.8973 -1.8150
  368TIP3    H222596   2.240   2.708   5.258 -0.1709  0.2986  0.4209
  369TIP3   OH222597   2.787   6.046  13.918 -0.3862 -0.1912  0.4402
  369TIP3    H122598   2.698   6.010  13.916 -0.6938  0.6086 -0.2151
  369TIP3    H222599   2.836   5.984  13.972 -1.3059 -0.7165  0.6846
  370TIP3   OH222600   0.652   2.321  15.651 -0.1545 -0.3808 -0.1318
  370TIP3    H122601   0.661   2.392  15.714  0.4641 -1.1870  0.7157
  370TIP3    H222602   0.702   2.350  15.575 -0.4570  0.3709 -0.0498
  371TIP3   OH222603   2.267   6.497  13.486  0.0906 -0.1496  0.8148
  371TIP3    H122604   2.255   6.586  13.453 -0.1753 -0.4777  0.0011
  371TIP3    H222605   2.362   6.487  13.492  0.1424 -0.0356  0.2564
  372TIP3   OH222606   1.413   6.177  14.254  0.1474  0.0729  0.0836
  372TIP3    H122607   1.439   6.259  14.295  0.8038 -0.5288  0.9058
  372TIP3    H222608   1.426   6.111  14.323  2.0369 -1.0798 -1.3016
  373TIP3   OH222609   1.503   0.226   4.877  0.2203  0.1701  0.7601
  373TIP3    H122610   1.478   0.318   4.889 -1.0720  0.0235 -0.7327
  373TIP3    H222611   1.546   0.224   4.791  0.6741 -0.5430  1.0012
  374TIP3   OH222612   2.318   2.436   1.253 -0.0707  0.0263 -0.5746
  374TIP3    H122613   2.268   2.410   1.175 -0.2369  1.1228 -0.8397
  374TIP3    H222614   2.257   2.420   1.326  0.6275 -2.4732 -0.4979
  375TIP3   OH222615   0.723   6.175  12.802  0.0138  0.6973 -0.8485
  375TIP3    H122616   0.718   6.144  12.892  1.8186  2.7190 -0.0053
  375TIP3    H222617   0.788   6.117  12.761 -1.9125 -1.1811 -1.2890
  376TIP3   OH222618   5.516   5.585  14.283 -0.3602  0.1581  0.2696
  376TIP3    H122619   5.597   5.533  14.283  0.6736  1.7223  1.8972
  376TIP3    H222620   5.545   5.676  14.277 -2.0735  0.6787 -0.4699
  377TIP3   OH222621   4.830   3.096   0.731  0.1333 -0.0384  0.1566
  377TIP3    H122622   4.847   3.084   0.637  0.7259 -0.7531  0.3509
  377TIP3    H222623   4.783   3.179   0.736  1.9247  1.0558 -0.5713
  378TIP3   OH222624   0.508   5.009   3.539  0.0161 -0.3324  0.5293
  378TIP3    H122625   0.586   5.001   3.484 -0.0053  1.6190  0.1816
  378TIP3    H222626   0.541   5.036   3.625 -0.2400  0.1744  0.4716
  379TIP3   OH222627   4.133   5.846   2.200  0.2171  0.6073 -0.5866
  379TIP3    H122628   4.210   5.882   2.156 -0.7676  0.4802 -2.4836
  379TIP3    H222629   4.163   5.825   2.288  2.1645  1.2231 -1.0798
  380TIP3   OH222630   6.088   6.012  16.877  0.2806  0.1899 -0.5246
  380TIP3    H122631   6.144   6.043  16.805  0.3123  0.6205 -0.3178
  380TIP3    H222632   6.133   6.041  16.956 -0.3198  0.6793 -0.3642
  381TIP3   OH222633   4.220   6.366  16.464 -0.2782 -0.1708 -0.6102
  381TIP3    H122634   4.150   6.421  16.500  1.4382  1.8195 -0.1297
  381TIP3    H222635   4.249   6.413  16.386  0.5150 -0.9696 -0.8007
  382TIP3   OH222636   6.613   6.807   2.327  0.7335 -0.3181 -1.1320
  382TIP3    H122637   6.614   6.750   2.404  2.8107 -0.9442 -1.5745
  382TIP3    H222638   6.527   6.794   2.288  0.9284 -2.6193 -0.8257
  383TIP3   OH222639   6.468   4.624  15.733  0.0353 -0.2001 -0.3851
  383TIP3    H122640   6.466   4.719  15.744  1.8246  0.0558 -2.0746
  383TIP3    H222641   6.386   4.603  15.689  0.0706  0.6748 -0.8751
  384TIP3   OH222642   3.196   3.391   4.930 -0.7369 -0.1133 -0.4543
  384TIP3    H122643   3.155   3.409   5.015 -0.8552 -0.6034 -0.4029
  384TIP3    H222644   3.157   3.308   4.902 -0.9304  0.2026 -1.1374
  385TIP3   OH222645   3.020   2.411  10.979  0.7000 -0.5182  0.2976
  385TIP3    H122646   3.072   2.489  10.995  0.4694 -0.6220  1.6543
  385TIP3    H222647   3.082   2.338  10.985  1.2153 -0.3585 -2.5509
  386TIP3   OH222648   1.503   0.096  14.932 -0.0912 -0.3612 -0.4015
  386TIP3    H122649   1.576   0.149  14.963  0.6014  0.5003 -3.4134
  386TIP3    H222650   1.538   0.007  14.926  0.4071 -0.1312 -0.8738
  387TIP3   OH222651   4.127   6.162   0.611 -0.0419  0.1472 -0.0297
  387TIP3    H122652   4.094   6.237   0.562  0.9922  1.2367  0.9170
  387TIP3    H222653   4.216   6.149   0.578 -0.1677 -0.5856 -0.0924
  388TIP3   OH222654   4.237   0.867  16.217 -0.3266 -0.0642 -0.2267
  388TIP3    H122655   4.152   0.825  16.207 -0.3971  0.2638 -1.0935
  388TIP3    H222656   4.216   0.956  16.245 -0.2777  0.0600 -0.5832
  389TIP3   OH222657   2.488   2.326   0.890 -0.1938  0.4989 -0.2170
  389TIP3    H122658   2.466   2.414   0.920  0.2881  0.2044  1.0373
  389TIP3    H222659   2.502   2.276   0.970  0.6065 -0.4454 -0.9274
  390TIP3   OH222660   5.070   6.075   1.132 -0.0492 -0.0203  0.6208
  390TIP3    H122661   4.985   6.036   1.108  0.4838 -0.3372 -0.8168
  390TIP3    H222662   5.053   6.169   1.133 -0.6163 -0.1204  1.1674
  391TIP3   OH222663   3.460   3.576   0.389  0.4162 -0.3352  0.0154
  391TIP3    H122664   3.512   3.654   0.409 -0.8954  0.8556 -1.2078
  391TIP3    H222665   3.524   3.513   0.354  1.6276 -0.1579  1.8452
  392TIP3   OH222666   1.361   5.504   1.403  0.2985  0.0722  0.0291
  392TIP3    H122667   1.381   5.525   1.494 -0.3443 -0.6247  0.3365
  392TIP3    H222668   1.347   5.589   1.361 -0.7601  0.3434  0.8951
  393TIP3   OH222669   1.794   4.526  16.355 -0.6577  0.1104 -0.0673
  393TIP3    H122670   1.742   4.562  16.283 -0.1369  1.1111  0.0495
  393TIP3    H222671   1.834   4.447  16.318 -0.6011  0.4748 -0.8001
  394TIP3   OH222672   0.518   6.088   1.166  0.2398 -0.1090 -0.0489
  394TIP3    H122673   0.569   6.085   1.085  1.3379 -1.2991  0.6648
  394TIP3    H222674   0.432   6.053   1.141  0.4874 -0.2375 -0.7445
  395TIP3   OH222675   1.783   5.071   5.525  0.1846  1.0089 -0.2704
  395TIP3    H122676   1.816   5.082   5.614 -1.7149  0.9330  0.4769
  395TIP3    H222677   1.800   4.980   5.503 -2.6445  0.0036  1.4639
  396TIP3   OH222678   2.878   2.600   1.338  0.4217  0.3193 -0.0758
  396TIP3    H122679   2.833   2.529   1.292  0.8336 -0.9245  1.4025
  396TIP3    H222680   2.815   2.672   1.336 -1.2523 -1.0549  1.0183
  397TIP3   OH222681   4.643   4.964   0.720  0.0637 -0.0156 -0.0247
  397TIP3    H122682   4.611   4.988   0.633  1.4594 -0.0943 -0.5676
  397TIP3    H222683   4.651   4.869   0.717 -2.2268 -0.2831  1.0173
  398TIP3   OH222684   2.431   5.761  11.870 -0.5590  0.1124 -0.4517
  398TIP3    H122685   2.383   5.704  11.809  0.0000 -0.0648 -0.7303
  398TIP3    H222686   2.432   5.846  11.826  0.2423 -0.1273 -0.9056
  399TIP3   OH222687   6.006   3.543   6.626  0.7916  0.0846 -0.5049
  399TIP3    H122688   6.003   3.466   6.683  0.7660 -0.1079 -0.7657
  399TIP3    H222689   5.916   3.553   6.595  1.6757 -2.6843 -4.3144
  400TIP3   OH222690   3.125   4.181   3.506  1.0399 -0.4465 -0.1071
  400TIP3    H122691   3.101   4.229   3.426  2.9724 -0.0541 -0.4812
  400TIP3    H222692   3.196   4.123   3.478  1.1623 -0.9158  1.1569
  401TIP3   OH222693   6.065   3.636   4.377 -0.6673 -0.6074  0.2258
  401TIP3    H122694   6.020   3.661   4.297 -3.6181  0.7330  2.2041
  401TIP3    H222695   6.046   3.543   4.388 -0.9616 -0.5954 -0.1990
  402TIP3   OH222696   0.266   5.314   5.556 -0.0836 -0.5137  0.4116
  402TIP3    H122697   0.171   5.306   5.548  0.0151 -1.2128 -0.0524
  402TIP3    H222698   0.300   5.227   5.535  0.8477  0.4784 -2.4891
  403TIP3   OH222699   6.293   1.420   4.877 -0.1307  0.0798 -0.0531
  403TIP3    H122700   6.223   1.402   4.815  1.4791 -1.0226 -1.5878
  403TIP3    H222701   6.272   1.506   4.912 -1.3139  0.5324 -1.8042
  404TIP3   OH222702   3.905   2.444  12.540  0.2901  0.0416 -0.6974
  404TIP3    H122703   3.926   2.355  12.513  0.4170 -0.7641  1.9284
  404TIP3    H222704   3.986   2.478  12.578 -0.6158  0.1430  1.1871
  405TIP3   OH222705   3.496   5.454  17.027 -0.1089  0.4096 -0.3664
  405TIP3    H122706   3.463   5.365  17.041  0.2885  0.0619 -1.4955
  405TIP3    H222707   3.480   5.471  16.934  2.2235  0.4756 -0.8026
  406TIP3   OH222708   3.787   0.392  15.119 -0.3967 -0.6554  0.5148
  406TIP3    H122709   3.875   0.357  15.101 -0.0475  0.4736 -0.0506
  406TIP3    H222710   3.795   0.485  15.099 -1.5925 -0.4549  0.9777
  407TIP3   OH222711   0.327   0.404  15.612 -0.3511 -0.1945  0.3764
  407TIP3    H122712   0.340   0.479  15.670 -1.4526 -0.5376  1.0843
  407TIP3    H222713   0.381   0.334  15.649 -0.1035 -0.0478  0.2900
  408TIP3   OH222714   0.210   1.695   4.353 -0.1319 -0.1451  0.2629
  408TIP3    H122715   0.165   1.766   4.306 -0.2498 -0.3113  0.1239
  408TIP3    H222716   0.287   1.676   4.299 -2.2369 -2.9136 -1.8881
  409TIP3   OH222717   6.653   1.337   4.079  0.1857 -0.5572  0.7085
  409TIP3    H122718   6.654   1.364   3.987  0.8080  1.2052  1.2041
  409TIP3    H222719   6.745   1.337   4.105 -0.1040  0.7085  1.8036
  410TIP3   OH222720   4.787   4.803   1.206  0.0350 -0.3775  0.3480
  410TIP3    H122721   4.836   4.852   1.272  2.6928  1.3554 -2.7625
  410TIP3    H222722   4.742   4.870   1.155 -0.4065 -1.5428 -0.8168
  411TIP3   OH222723   2.110   2.241  12.256  0.4661 -0.4971  0.1222
  411TIP3    H122724   2.119   2.204  12.168  0.0754 -1.4014  0.4615
  411TIP3    H222725   2.086   2.167  12.311 -1.6854  0.4873  0.5538
  412TIP3   OH222726   6.109   4.946   3.122 -0.1433  0.0876  0.0210
  412TIP3    H122727   6.027   4.922   3.166 -0.4304  1.5817  0.3421
  412TIP3    H222728   6.088   5.026   3.074  0.8627 -0.0855 -0.7204
  413TIP3   OH222729   5.287   5.823   4.235  0.3522 -0.5431  0.3550
  413TIP3    H122730   5.220   5.889   4.249  1.2385  0.5737 -0.5010
  413TIP3    H222731   5.288   5.771   4.315  1.1757  1.8794  1.9624
  414TIP3   OH222732   4.342   2.432  16.248  0.3905 -0.5272 -0.6893
  414TIP3    H122733   4.327   2.477  16.165  0.6785 -0.8646 -0.9261
  414TIP3    H222734   4.436   2.415  16.249  0.2197 -1.5290 -0.8174
  415TIP3   OH222735   6.043   0.027  15.487  0.9315  0.6097 -0.1334
  415TIP3    H122736   6.030  -0.067  15.501 -0.1134  0.8275  0.4089
  415TIP3    H222737   6.094   0.032  15.407 -1.5308 -0.3519 -1.8476
  416TIP3   OH222738   6.691   2.120   0.324  0.5205 -0.8760  0.1888
  416TIP3    H122739   6.742   2.185   0.275  0.1677  0.3878  1.4383
  416TIP3    H222740   6.752   2.086   0.389  0.4619 -1.1554  0.0959
  417TIP3   OH222741   1.953   2.022   6.873 -0.0151 -0.3049 -0.3259
  417TIP3    H122742   2.009   2.065   6.809  0.3661 -0.6868 -0.2465
  417TIP3    H222743   2.014   1.985   6.938 -0.3782 -0.2635  0.0430
  418TIP3   OH222744   0.193   0.485  12.583 -0.2148  0.3191  0.1342
  418TIP3    H122745   0.288   0.482  12.576 -0.2637 -1.0935  0.0022
  418TIP3    H222746   0.162   0.419  12.522 -1.2909  0.7456  0.2033
  419TIP3   OH222747   3.951   4.343   4.072  0.1246 -0.2098 -0.1062
  419TIP3    H122748   3.859   4.322   4.089  0.3485  0.6311  2.3348
  419TIP3    H222749   3.951   4.436   4.047  0.4949  0.3809  1.9770
  420TIP3   OH222750   3.481   3.201  10.439 -0.2104  0.1293 -0.2255
  420TIP3    H122751   3.440   3.285  10.462 -0.1988  0.4348 -1.2584
  420TIP3    H222752   3.451   3.140  10.506  0.4049  1.1445  0.9834
  421TIP3   OH222753   1.642   6.467  13.544 -0.1319  0.1153  0.1010
  421TIP3    H122754   1.663   6.374  13.554 -0.7156 -0.0178  0.0977
  421TIP3    H222755   1.620   6.476  13.451 -0.8433  0.0959  0.2619
  422TIP3   OH222756   3.759   5.499   0.393 -0.6113  0.4801  0.1108
  422TIP3    H122757   3.761   5.406   0.371 -1.5213  0.3343  0.6107
  422TIP3    H222758   3.830   5.538   0.342 -1.7393 -0.0904 -1.9361
  423TIP3   OH222759   2.834   6.688  11.569  0.9208 -0.2601 -0.5421
  423TIP3    H122760   2.820   6.597  11.595 -0.5787  0.1055 -0.0506
  423TIP3    H222761   2.792   6.695  11.483 -1.4358  0.6656  0.6441
  424TIP3   OH222762   3.785   0.218   0.951  0.4956  0.0697 -1.1222
  424TIP3    H122763   3.696   0.253   0.961  0.3809  0.0138 -1.9230
  424TIP3    H222764   3.775   0.123   0.961  0.8770  0.2636  1.5391
  425TIP3   OH222765   2.977   5.452  16.249 -0.4182 -0.0988 -0.4987
  425TIP3    H122766   2.972   5.529  16.306 -1.0994  1.2152 -2.2989
  425TIP3    H222767   2.967   5.378  16.309  2.3407  1.0911  1.5514
  426TIP3   OH222768   3.915   6.123  15.022 -0.3337  0.0398  0.2932
  426TIP3    H122769   3.964   6.175  15.086 -1.0278 -0.3837  1.1858
  426TIP3    H222770   3.836   6.174  15.005  0.0081  0.3101 -0.4836
  427TIP3   OH222771   4.106   2.217  14.653 -0.2722 -0.2908 -0.3965
  427TIP3    H122772   4.067   2.204  14.739  1.7140 -0.4528  0.4983
  427TIP3    H222773   4.141   2.131  14.629 -0.4362 -0.1462 -1.1919
  428TIP3   OH222774   2.224   3.241   5.717  0.6206  0.1477  0.4316
  428TIP3    H122775   2.220   3.290   5.799  1.9121  0.6505  0.2123
  428TIP3    H222776   2.288   3.289   5.664  1.4710 -1.4392 -0.0164
  429TIP3   OH222777   2.179   6.367   2.043 -0.3004 -0.5552  0.4383
  429TIP3    H122778   2.241   6.341   1.975  0.1330  1.6794 -0.0604
  429TIP3    H222779   2.108   6.303   2.036  0.9543 -1.9098 -0.3565
  430TIP3   OH222780   5.024   4.354  16.103  0.3271 -0.6511  0.4069
  430TIP3    H122781   5.018   4.326  16.194  2.8332 -0.6055  0.6277
  430TIP3    H222782   5.020   4.273  16.053 -0.8625 -0.6911  0.5563
  431TIP3   OH222783   4.381   1.825   3.447 -0.0303  0.3815  0.4198
  431TIP3    H122784   4.462   1.845   3.400  0.2025  1.5432  1.2949
  431TIP3    H222785   4.407   1.759   3.512 -0.3937 -1.3717 -1.1650
  432TIP3   OH222786   0.108   4.322   2.916  0.0964 -0.0295  0.5046
  432TIP3    H122787   0.197   4.352   2.900 -0.7648  1.4341 -1.9085
  432TIP3    H222788   0.085   4.355   3.002  1.6086  0.2326  0.8096
  433TIP3   OH222789   0.551   0.689  15.329 -0.0470 -0.2005 -0.6230
  433TIP3    H122790   0.520   0.754  15.266 -1.7266 -0.6126 -0.2506
  433TIP3    H222791   0.473   0.638  15.351  1.1622 -2.0542 -0.5670
  434TIP3   OH222792   1.012   1.565   0.589  0.3597 -0.1380  0.0975
  434TIP3    H122793   1.026   1.547   0.682 -2.2466  0.1773  0.5925
  434TIP3    H222794   1.097   1.548   0.548  0.8814 -2.8258  2.1350
  435TIP3   OH222795   6.379   5.780   5.407  0.1274  0.5340 -1.2103
  435TIP3    H122796   6.346   5.690   5.413  3.0535 -0.5282 -0.1515
  435TIP3    H222797   6.451   5.774   5.343 -0.3556  2.3583 -1.9476
  436TIP3   OH222798   0.779   0.866  14.273 -0.2716  0.0958 -0.5161
  436TIP3    H122799   0.798   0.916  14.194 -0.8576  1.2270  0.0606
  436TIP3    H222800   0.847   0.894  14.335 -0.0764 -0.4722 -0.4664
  437TIP3   OH222801   2.370   5.105   3.717 -0.3040 -0.6240 -0.3424
  437TIP3    H122802   2.289   5.129   3.674 -0.1251 -1.6105 -1.2663
  437TIP3    H222803   2.355   5.122   3.810 -1.9982 -1.9310 -0.3560
  438TIP3   OH222804   1.496   0.226   2.826 -0.0908 -0.5939 -0.2355
  438TIP3    H122805   1.487   0.293   2.893 -0.0420 -0.0346 -0.7791
  438TIP3    H222806   1.540   0.271   2.753 -0.5430 -1.0640 -0.8090
  439TIP3   OH222807   4.499   2.352   0.943 -0.2524 -0.1182  0.0981
  439TIP3    H122808   4.533   2.439   0.966 -1.0838  0.0840  0.5903
  439TIP3    H222809   4.493   2.354   0.847  3.5048 -1.0800 -0.2282
  440TIP3   OH222810   1.067   1.515  13.775  0.4248 -0.2885 -0.3975
  440TIP3    H122811   1.112   1.462  13.710  0.2998 -0.6071 -0.2288
  440TIP3    H222812   0.974   1.503  13.756  0.3175 -2.0540  1.1238
  441TIP3   OH222813   6.212   3.172  14.359  0.2674 -0.0536 -0.1909
  441TIP3    H122814   6.304   3.192  14.341  0.4028 -0.3385  0.1805
  441TIP3    H222815   6.165   3.205  14.282  0.7679 -0.5935 -0.7415
  442TIP3   OH222816   2.503   4.399  12.364 -0.4521  0.2381  0.2835
  442TIP3    H122817   2.538   4.382  12.276 -1.9686  0.1030 -0.3183
  442TIP3    H222818   2.460   4.317  12.388  0.6991 -0.0209  1.5359
  443TIP3   OH222819   5.592   6.598   1.186  0.6586  0.1301 -0.2738
  443TIP3    H122820   5.523   6.656   1.155 -1.4388 -1.8403  0.5827
  443TIP3    H222821   5.626   6.556   1.107 -0.9563 -0.8522 -0.4640
  444TIP3   OH222822   0.902   3.750  10.740 -0.2790 -0.1582 -0.1679
  444TIP3    H122823   0.978   3.807  10.733  0.9192 -1.6332  0.4812
  444TIP3    H222824   0.916   3.681  10.675 -1.5023  0.0283 -0.6585
  445TIP3   OH222825   3.555   0.177  13.146 -0.2900  0.1675  0.1235
  445TIP3    H122826   3.559   0.252  13.206  0.1718  0.4832 -0.3070
  445TIP3    H222827   3.640   0.135  13.154  0.2608  0.9922 -1.3234
  446TIP3   OH222828   0.152   4.577  16.358 -0.8103  0.1755  0.2257
  446TIP3    H122829   0.058   4.598  16.365 -0.6457  0.5391  1.3700
  446TIP3    H222830   0.177   4.549  16.446 -0.1301 -1.1610 -0.3764
  447TIP3   OH222831   6.167   6.603  14.459 -0.8581 -0.4758  0.0864
  447TIP3    H122832   6.162   6.694  14.432  0.6940 -0.6891 -1.0526
  447TIP3    H222833   6.077   6.577  14.476 -1.2177  1.5398  1.3978
  448TIP3   OH222834   2.816   4.920   5.145  0.3691 -0.1084 -0.2447
  448TIP3    H122835   2.911   4.924   5.142  0.4335  0.3694  1.5963
  448TIP3    H222836   2.790   5.004   5.184 -0.6682 -1.0704  1.1865
  449TIP3   OH222837   5.921   6.153   1.202  0.5358  0.1569  0.0955
  449TIP3    H122838   5.843   6.204   1.221  1.2277  1.1297  0.3432
  449TIP3    H222839   5.917   6.137   1.107 -0.4274 -0.5896  0.2539
  450TIP3   OH222840   5.966   0.014   0.441 -0.0367  0.3642 -0.1479
  450TIP3    H122841   6.051  -0.011   0.478 -0.3934  1.4962  1.4687
  450TIP3    H222842   5.988   0.055   0.357  1.1049  1.8105  0.8362
  451TIP3   OH222843   1.745   2.369  12.161  0.1358  0.0683  0.4653
  451TIP3    H122844   1.817   2.431  12.154  0.6281 -0.4952  0.4612
  451TIP3    H222845   1.682   2.398  12.095  2.0591 -1.6480 -2.2327
  452TIP3   OH222846   6.475   1.082  11.801 -0.3653 -0.4638 -0.3105
  452TIP3    H122847   6.569   1.075  11.783 -0.4452 -0.1930 -0.8235
  452TIP3    H222848   6.460   1.020  11.873  0.1084 -0.9044 -0.5843
  453TIP3   OH222849   4.093   0.823  13.807 -0.3346  0.4351  0.1127
  453TIP3    H122850   4.109   0.766  13.731  1.6166 -3.0061  2.9509
  453TIP3    H222851   4.011   0.791  13.843 -0.3635  0.9005  0.4597
  454TIP3   OH222852   6.074   0.246  15.026  0.2056 -0.3174  0.4077
  454TIP3    H122853   6.009   0.177  15.013 -0.4184  0.1881  0.7848
  454TIP3    H222854   6.034   0.305  15.091 -0.4587  1.8107 -1.8241
  455TIP3   OH222855   3.224   1.660   5.619  0.3345 -0.3139  0.4230
  455TIP3    H122856   3.230   1.704   5.704 -0.7677 -1.8777  1.3344
  455TIP3    H222857   3.130   1.650   5.603  0.5723 -2.6941  0.4298
  456TIP3   OH222858   0.670   2.578   0.400 -0.1946  0.0520 -0.0666
  456TIP3    H122859   0.699   2.510   0.460 -1.9161  0.0323  0.7703
  456TIP3    H222860   0.643   2.531   0.321 -0.9782 -0.2268  0.3545
  457TIP3   OH222861   1.387   2.579   4.325 -0.2239  0.4555 -0.4603
  457TIP3    H122862   1.335   2.610   4.251 -0.4821 -2.0642 -1.4001
  457TIP3    H222863   1.329   2.589   4.401 -0.4401  1.8328 -0.8006
  458TIP3   OH222864   4.250   5.941  15.475  0.1116 -0.2674  0.6629
  458TIP3    H122865   4.253   5.856  15.431  0.1694  0.7245 -1.2933
  458TIP3    H222866   4.189   5.994  15.423  1.7423  1.5757  0.5321
  459TIP3   OH222867   2.660   0.802   0.313  0.5552 -0.1277  0.1599
  459TIP3    H122868   2.747   0.841   0.325  0.2742  0.5887 -0.0827
  459TIP3    H222869   2.637   0.766   0.398 -0.1099  2.1627  0.9892
  460TIP3   OH222870   4.284   1.901   1.171 -0.3175  0.3251  0.2261
  460TIP3    H122871   4.257   1.981   1.125  2.1928  0.5070 -1.0300
  460TIP3    H222872   4.203   1.854   1.186 -1.4689  1.3982 -2.3339
  461TIP3   OH222873   0.109   3.263   0.082  0.1202  0.5330 -0.0570
  461TIP3    H122874   0.193   3.305   0.063  0.7020 -0.9263 -0.7685
  461TIP3    H222875   0.129   3.197   0.148 -0.5172  0.3642 -0.0290
  462TIP3   OH222876   3.777   3.700   3.792 -0.1760  0.3670  0.3331
  462TIP3    H122877   3.842   3.767   3.772 -0.0641  0.5574  1.3363
  462TIP3    H222878   3.814   3.620   3.756  0.0956  0.6746 -0.0871
  463TIP3   OH222879   4.357   2.905   5.374 -0.4381 -0.4473 -0.0365
  463TIP3    H122880   4.275   2.925   5.419  0.3873  1.1974  0.7628
  463TIP3    H222881   4.354   2.958   5.294 -1.5823 -2.8245 -1.6337
  464TIP3   OH222882   5.410   4.481  13.257  0.2579  0.2955  0.3330
  464TIP3    H122883   5.458   4.400  13.240  1.9300  1.1447  0.8787
  464TIP3    H222884   5.450   4.515  13.337 -1.2214  1.0724  0.7556
  465TIP3   OH222885   5.505   1.344   5.476 -0.4669 -0.3901  0.2179
  465TIP3    H122886   5.553   1.410   5.526  1.0517 -0.7251 -0.7458
  465TIP3    H222887   5.567   1.272   5.466 -1.2687 -0.9540 -0.8238
  466TIP3   OH222888   3.132   4.424  15.282  0.3754 -0.1314 -0.0374
  466TIP3    H122889   3.145   4.390  15.194 -0.7243 -0.4208 -0.0941
  466TIP3    H222890   3.039   4.449  15.284  0.7015  1.0530  0.6215
  467TIP3   OH222891   0.470   6.227  15.162 -0.9384  0.3549  0.1491
  467TIP3    H122892   0.448   6.318  15.178  0.4664  0.8927 -0.8663
  467TIP3    H222893   0.510   6.197  15.245  1.8548  1.7205 -0.6307
  468TIP3   OH222894   3.772   1.006   2.916  0.4023  0.0221 -0.4389
  468TIP3    H122895   3.782   0.923   2.963 -0.9822 -0.3454 -0.7703
  468TIP3    H222896   3.861   1.040   2.908  0.7458 -0.2428  1.8544
  469TIP3   OH222897   6.808   1.333  15.932 -0.4459 -0.2084  0.5244
  469TIP3    H122898   6.851   1.411  15.896  0.1073 -0.2695  1.0413
  469TIP3    H222899   6.737   1.314  15.871 -1.3827  1.4530  1.0607
  470TIP3   OH222900   0.169   6.805   5.727 -0.0748  0.4267 -0.1266
  470TIP3    H122901   0.167   6.899   5.746  0.6647  0.2307  0.9799
  470TIP3    H222902   0.089   6.789   5.678 -0.0568  1.6958 -0.5900
  471TIP3   OH222903   2.385   0.614  13.958 -0.1710 -0.1821 -0.3807
  471TIP3    H122904   2.322   0.543  13.972  0.2196 -0.5217 -0.3234
  471TIP3    H222905   2.464   0.585  14.004 -1.0409  1.7825  2.4962
  472TIP3   OH222906   3.733   0.155  14.452 -0.1687  0.2217  0.7632
  472TIP3    H122907   3.810   0.191  14.408 -0.8025  0.7860  0.1059
  472TIP3    H222908   3.748   0.061  14.456 -1.1611 -0.1491 -2.7653
  473TIP3   OH222909   0.259   4.949  16.338 -0.5825 -0.5451  0.5309
  473TIP3    H122910   0.177   4.999  16.336  1.0725  2.2543 -0.8450
  473TIP3    H222911   0.295   4.969  16.424  0.3091  1.1085 -0.1987
  474TIP3   OH222912   4.707   4.960   1.676  0.3267 -0.3131 -0.3518
  474TIP3    H122913   4.613   4.949   1.661 -0.4235  1.7162  2.3274
  474TIP3    H222914   4.731   5.033   1.618 -0.7384  1.9878  1.9843
  475TIP3   OH222915   4.756   1.394   2.011 -0.0993 -0.0039 -0.2738
  475TIP3    H122916   4.741   1.471   2.066  2.3302  0.5811 -0.3526
  475TIP3    H222917   4.675   1.382   1.962 -0.7435  2.0870  0.2548
  476TIP3   OH222918   4.739   4.307  10.778  0.2511  0.2435  0.1435
  476TIP3    H122919   4.687   4.297  10.698  0.0076  0.4747  0.2720
  476TIP3    H222920   4.829   4.311  10.748  0.3457 -2.0022  0.0522
  477TIP3   OH222921   1.687   2.364   2.326  0.0513  0.5093  0.0635
  477TIP3    H122922   1.655   2.453   2.310 -0.7874  0.6114  2.1362
  477TIP3    H222923   1.683   2.321   2.241 -2.5535  1.5288 -0.3731
  478TIP3   OH222924   0.710   6.546   6.833  0.3735  0.0098 -0.8415
  478TIP3    H122925   0.617   6.568   6.832  0.4423  0.2980 -1.9791
  478TIP3    H222926   0.736   6.547   6.741  1.6108  0.3885 -0.5036
  479TIP3   OH222927   5.543   0.754  13.661 -0.1173  0.4823 -0.0952
  479TIP3    H122928   5.517   0.830  13.714 -2.4289  2.4092 -3.7677
  479TIP3    H222929   5.464   0.701  13.656  0.1654  0.1719 -1.3588
  480TIP3   OH222930   4.687   4.337  17.239 -0.3407  0.0372  0.1092
  480TIP3    H122931   4.657   4.250  17.265  0.4195  0.0203  0.9541
  480TIP3    H222932   4.662   4.344  17.147  1.3526 -1.8841 -0.5547
  481TIP3   OH222933   1.170   4.833   5.520  0.2709  0.7415 -0.0148
  481TIP3    H122934   1.096   4.836   5.458  0.4553  0.8703 -0.2293
  481TIP3    H222935   1.218   4.755   5.495 -1.1812 -0.7558  1.7232
  482TIP3   OH222936   0.131   2.199   4.769 -0.0091  0.3652 -0.5804
  482TIP3    H122937   0.051   2.206   4.820  0.2713  0.8369 -0.1992
  482TIP3    H222938   0.188   2.268   4.804  0.4040  0.3052 -1.1291
  483TIP3   OH222939   4.677   2.122   1.720  0.3812 -0.6340 -0.6647
  483TIP3    H122940   4.635   2.157   1.799  1.2196 -1.1909  0.0348
  483TIP3    H222941   4.771   2.126   1.738  0.5923 -0.5917 -1.7124
  484TIP3   OH222942   5.593   2.525  16.663  0.1659  0.3604  0.0384
  484TIP3    H122943   5.537   2.449  16.646 -0.3354  0.4029  1.4271
  484TIP3    H222944   5.541   2.600  16.634  1.2425  0.0962 -2.7099
  485TIP3   OH222945   4.719   1.018   2.255 -0.1819  0.2366  0.3293
  485TIP3    H122946   4.796   0.964   2.270 -0.7156 -0.4723  0.5572
  485TIP3    H222947   4.738   1.101   2.298  0.7549  0.3225 -0.2486
  486TIP3   OH222948   4.148   1.510  12.543  1.1937  0.0150 -0.3021
  486TIP3    H122949   4.098   1.533  12.465 -1.0605 -0.2797  1.0056
  486TIP3    H222950   4.187   1.425  12.523  0.2377 -0.2756 -0.9216
  487TIP3   OH222951   2.395   6.674  17.160  0.5739 -0.3281 -0.4548
  487TIP3    H122952   2.322   6.631  17.204  0.8565 -1.0083 -0.6506
  487TIP3    H222953   2.435   6.606  17.106  0.4056  0.4292 -1.5599
  488TIP3   OH222954   6.583   3.677  13.801 -0.4392  0.1264  0.0313
  488TIP3    H122955   6.657   3.725  13.837  0.6810 -0.4889 -1.3947
  488TIP3    H222956   6.599   3.586  13.825 -0.7493 -0.0067 -0.2650
  489TIP3   OH222957   1.655   3.860  15.496 -0.0606 -0.2038 -0.0859
  489TIP3    H122958   1.571   3.824  15.469  0.0609  0.2392 -1.0639
  489TIP3    H222959   1.682   3.805  15.570 -1.1174 -0.4576  0.1156
  490TIP3   OH222960   0.057   3.386  15.565 -0.1257  0.9286 -0.0831
  490TIP3    H122961  -0.003   3.347  15.501  0.7323 -1.9178  0.7954
  490TIP3    H222962   0.140   3.393  15.518  0.3603 -0.6364  0.5471
  491TIP3   OH222963   0.932   4.647   2.127  0.1886  0.5634  0.2864
  491TIP3    H122964   0.966   4.647   2.037  0.8049  1.5676  0.5066
  491TIP3    H222965   0.868   4.576   2.129 -1.3230  1.8135 -1.5256
  492TIP3   OH222966   5.187   0.924  16.216  0.1798  0.1162 -0.0031
  492TIP3    H122967   5.282   0.931  16.224  0.3932 -2.7473  0.3412
  492TIP3    H222968   5.167   0.963  16.131  1.5345  1.6711  0.3825
  493TIP3   OH222969   5.486   4.266  11.733  0.1933 -0.0864 -0.2105
  493TIP3    H122970   5.579   4.288  11.735 -0.2777  1.9363  0.0715
  493TIP3    H222971   5.441   4.345  11.763 -1.6367 -0.9816 -0.4849
  494TIP3   OH222972   0.616   4.243  11.833  0.4706  0.0936  0.4707
  494TIP3    H122973   0.610   4.174  11.767 -0.6168  0.1380  0.5038
  494TIP3    H222974   0.525   4.272  11.845  0.9366  1.6995  0.2680
  495TIP3   OH222975   4.135   4.380  16.848 -0.1251 -0.0248 -0.5285
  495TIP3    H122976   4.204   4.399  16.912  1.6994 -2.6727 -1.6208
  495TIP3    H222977   4.057   4.366  16.901  0.5943  1.1389  0.8779
  496TIP3   OH222978   1.504   5.368  17.143 -0.5422 -0.2944 -0.3106
  496TIP3    H122979   1.558   5.372  17.222 -2.3927 -0.9812  1.0218
  496TIP3    H222980   1.548   5.428  17.082  0.7770  0.4599  1.3109
  497TIP3   OH222981   0.244   5.416   2.767  0.0869 -0.5653  0.1808
  497TIP3    H122982   0.207   5.334   2.733  0.8312 -0.4194 -0.9980
  497TIP3    H222983   0.240   5.477   2.693 -0.0631  0.3404  0.9284
  498TIP3   OH222984   1.919   1.770  15.547  0.1927 -0.2879  0.1710
  498TIP3    H122985   1.851   1.714  15.585 -0.2757  0.1205 -0.0539
  498TIP3    H222986   1.981   1.709  15.508  0.8232 -0.7185  1.8018
  499TIP3   OH222987   2.560   0.603   2.268 -0.2826 -0.3144  0.6826
  499TIP3    H122988   2.522   0.522   2.302 -0.9385  0.5129  1.9363
  499TIP3    H222989   2.606   0.641   2.343 -1.3525  1.2958  0.5264
  500TIP3   OH222990   3.962   4.051  14.070 -0.3414 -0.0906  0.4341
  500TIP3    H122991   3.955   4.131  14.122 -0.2401  0.0124  0.2911
  500TIP3    H222992   4.007   3.989  14.127  1.4654  0.6034 -0.1698
  501TIP3   OH222993   2.248   0.370  13.974 -0.9395  0.4200 -0.5155
  501TIP3    H122994   2.155   0.360  13.996 -0.4622  0.4546  1.6706
  501TIP3    H222995   2.294   0.325  14.045  0.7114 -0.2984 -2.0085
  502TIP3   OH222996   6.755   3.256  17.149  0.1686  0.1791 -0.1575
  502TIP3    H122997   6.787   3.175  17.111  0.0857  0.3902 -0.6871
  502TIP3    H222998   6.805   3.267  17.230  0.6709 -0.0396 -0.4411
  503TIP3   OH222999   4.013   3.051  14.858  0.1588 -0.0996 -0.0285
  503TIP3    H123000   4.036   3.033  14.949  0.4710  1.8524  0.2904
  503TIP3    H223001   4.096   3.043  14.810  0.5394  1.6723  0.3070
  504TIP3   OH223002   2.448   3.440   4.462 -0.0098 -0.2692 -0.3010
  504TIP3    H123003   2.399   3.494   4.524 -0.4470  0.8082 -1.5635
  504TIP3    H223004   2.481   3.502   4.398  0.8056 -1.3233 -0.9117
  505TIP3   OH223005   4.793   4.511  12.024 -0.2327 -0.3915  0.5927
  505TIP3    H123006   4.885   4.505  12.049 -0.3557  0.1575  1.1896
  505TIP3    H223007   4.791   4.577  11.955 -0.0494 -1.0867 -0.0778
  506TIP3   OH223008   0.729   2.842  13.744 -0.3849 -0.1834 -0.2698
  506TIP3    H123009   0.707   2.900  13.817 -2.3756  2.1921 -2.6536
  506TIP3    H223010   0.778   2.897  13.684  1.2629 -2.1269 -0.7514
  507TIP3   OH223011   2.846   4.158   3.638  0.7302 -0.1485 -0.0295
  507TIP3    H123012   2.895   4.177   3.718 -1.1020  1.6553  0.7040
  507TIP3    H223013   2.914   4.148   3.571  2.1718  1.2412  1.1712
  508TIP3   OH223014   6.005   3.128   4.276 -0.3174 -0.6136  0.3358
  508TIP3    H123015   5.948   3.176   4.216 -0.2172 -0.3829  0.4275
  508TIP3    H223016   6.014   3.041   4.235 -1.9930 -1.1720  1.1078
  509TIP3   OH223017   5.568   4.468  14.740  0.0727 -0.0371  0.1569
  509TIP3    H123018   5.522   4.538  14.694 -2.5968 -0.5792  1.8744
  509TIP3    H223019   5.593   4.506  14.824  0.4389 -0.5360  0.2814
  510TIP3   OH223020   1.951   1.863  12.270  0.1278  0.2208 -0.3351
  510TIP3    H123021   1.893   1.939  12.262 -1.1875 -0.6432  0.7838
  510TIP3    H223022   1.989   1.871  12.357  2.5932  1.3608 -1.4441
  511TIP3   OH223023   2.976   5.124  16.326 -0.4062 -0.1245  0.4956
  511TIP3    H123024   2.979   5.029  16.339 -0.2787 -0.5179 -2.0451
  511TIP3    H223025   3.025   5.160  16.400 -3.7173 -1.7524  3.6275
  512TIP3   OH223026   3.144   2.653   0.354 -0.5356 -0.2971 -0.9161
  512TIP3    H123027   3.229   2.695   0.367 -1.0728  0.5917 -0.2131
  512TIP3    H223028   3.080   2.723   0.371 -1.3904 -0.5406 -2.9410
  513TIP3   OH223029   5.892   6.197   1.889 -0.5297  0.0065 -0.3264
  513TIP3    H123030   5.919   6.229   1.975  0.8430 -1.3953 -0.2142
  513TIP3    H223031   5.800   6.174   1.899 -0.2777 -0.5154  0.8949
  514TIP3   OH223032   0.769   4.996   0.876  0.8429  0.7278  0.3801
  514TIP3    H123033   0.673   4.996   0.875  0.8333 -0.6960  0.0597
  514TIP3    H223034   0.792   4.979   0.967  0.7595 -1.0875  0.0836
  515TIP3   OH223035   5.227   3.117  10.477 -0.3761 -0.4140 -0.1202
  515TIP3    H123036   5.275   3.093  10.557 -1.6557 -1.7136  0.2928
  515TIP3    H223037   5.264   3.060  10.409 -1.0029 -1.0877  0.0987
  516TIP3   OH223038   3.282   4.993   0.949 -0.4362 -0.2015  0.1110
  516TIP3    H123039   3.308   5.058   1.014 -1.1970  0.8963 -0.6631
  516TIP3    H223040   3.321   5.025   0.867  0.8304 -1.7686  0.0853
  517TIP3   OH223041   1.550   4.292  11.016 -0.1560 -0.9022 -0.1728
  517TIP3    H123042   1.532   4.363  11.077 -0.0352  1.0167 -2.3071
  517TIP3    H223043   1.622   4.324  10.962 -1.6078 -1.6816 -2.6515
  518TIP3   OH223044   6.031   5.000  11.508 -0.1897  0.0599  0.2033
  518TIP3    H123045   5.975   4.923  11.495  1.7979 -1.2470 -0.8586
  518TIP3    H223046   6.024   5.019  11.601 -0.3667 -1.6655  0.5527
  519TIP3   OH223047   0.015   2.392  12.397 -0.1742  0.1964 -0.2504
  519TIP3    H123048   0.000   2.435  12.481 -1.7880 -0.5177 -0.1590
  519TIP3    H223049   0.026   2.299  12.418  2.8013  0.4371 -0.5052
  520TIP3   OH223050   6.322   4.317  12.171 -0.1828  0.2231 -0.0564
  520TIP3    H123051   6.408   4.327  12.213 -0.2822  1.3780 -0.0962
  520TIP3    H223052   6.274   4.258  12.228  0.3844  0.1622  0.3668
  521TIP3   OH223053   4.155   4.076  14.550 -0.5528 -0.4152 -0.2252
  521TIP3    H123054   4.201   4.132  14.612  1.0449 -0.1644 -1.5904
  521TIP3    H223055   4.179   4.111  14.464 -2.4319 -0.9777 -0.9980
  522TIP3   OH223056   1.400   4.910  11.721  0.3370 -0.3919 -0.1792
  522TIP3    H123057   1.340   4.889  11.792  0.6702  0.3246  0.3226
  522TIP3    H223058   1.414   5.004  11.729  0.7916 -0.3987 -0.8716
  523TIP3   OH223059   2.557   6.308   3.870 -0.7016 -0.8720  0.6320
  523TIP3    H123060   2.652   6.304   3.880 -0.7591 -0.5923  1.3309
  523TIP3    H223061   2.529   6.375   3.933 -1.1924  0.2359 -0.7389
  524TIP3   OH223062   5.264   0.953   5.117 -0.1365 -0.1217 -0.4425
  524TIP3    H123063   5.312   0.927   5.038  0.6699 -1.1413  0.3707
  524TIP3    H223064   5.330   0.993   5.173 -0.7039  0.5624 -0.2585
  525TIP3   OH223065   0.670   1.095  10.672 -0.2329  0.1380  0.9182
  525TIP3    H123066   0.721   1.150  10.731 -1.5390  0.9867  1.2824
  525TIP3    H223067   0.715   1.011  10.672  0.9779  0.7766  1.4679
  526TIP3   OH223068   3.204   6.740  11.834 -0.4052 -0.0678 -0.1287
  526TIP3    H123069   3.183   6.765  11.924  0.5748 -0.7204  0.2902
  526TIP3    H223070   3.183   6.818  11.782 -0.3033  0.5585  0.7531
  527TIP3   OH223071   6.203   5.055  15.824  0.0605  0.7781  0.5130
  527TIP3    H123072   6.165   5.087  15.906 -0.5340  2.0281 -0.2243
  527TIP3    H223073   6.183   5.124  15.760  2.3707  0.8062 -0.2227
  528TIP3   OH223074   0.086   5.793   2.597 -0.3162 -0.3454 -0.0290
  528TIP3    H123075   0.154   5.840   2.645  0.3231 -0.3090 -0.9600
  528TIP3    H223076   0.005   5.814   2.644 -0.0851  1.9104 -0.5523
  529TIP3   OH223077   4.674   5.875  16.469 -0.5760 -0.8419  0.5183
  529TIP3    H123078   4.725   5.917  16.538 -1.5782  0.1600  0.6652
  529TIP3    H223079   4.686   5.781  16.484  0.3625 -0.6189  1.1850
  530TIP3   OH223080   0.219   1.910  15.185 -0.5826  0.2614  0.0332
  530TIP3    H123081   0.215   2.005  15.177 -0.3536  0.3221  0.5884
  530TIP3    H223082   0.137   1.886  15.228  0.5747  0.5051  2.4683
  531TIP3   OH223083   5.218   6.735  11.571 -0.5111  0.5095  0.5369
  531TIP3    H123084   5.263   6.701  11.648 -1.2140  0.3735  0.8858
  531TIP3    H223085   5.245   6.676  11.500 -0.5169  0.1402  0.8388
  532TIP3   OH223086   5.473   5.226  13.658 -0.4688  0.0888  0.0974
  532TIP3    H123087   5.400   5.238  13.597 -1.4830 -1.4396  0.9981
  532TIP3    H223088   5.468   5.135  13.685 -0.1203  0.7901  2.6075
  533TIP3   OH223089   2.916   3.675  12.106  0.2509 -0.2719  0.3233
  533TIP3    H123090   2.899   3.686  12.012  0.1741 -0.1073  0.3554
  533TIP3    H223091   2.902   3.582  12.122 -0.7101 -0.1339  0.3550
  534TIP3   OH223092   6.645   2.883  15.284 -0.3179 -0.5399  0.3073
  534TIP3    H123093   6.632   2.801  15.237 -3.0839  0.2814 -0.4456
  534TIP3    H223094   6.570   2.937  15.259 -0.4132  0.9205  3.5498
  535TIP3   OH223095   5.224   6.179   0.218 -0.2745 -0.2576  0.2168
  535TIP3    H123096   5.210   6.269   0.189  0.3611 -0.0953  0.4166
  535TIP3    H223097   5.184   6.175   0.305  0.1718 -0.0188  0.4358
  536TIP3   OH223098   0.086   4.616   3.051 -0.1138  0.0372  0.0265
  536TIP3    H123099   0.059   4.550   3.115  1.1324 -0.6510 -0.1442
  536TIP3    H223100   0.039   4.695   3.076 -1.4607 -0.8493  0.3734
  537TIP3   OH223101   1.297   2.487  14.341  0.2095 -0.0095 -0.0286
  537TIP3    H123102   1.281   2.428  14.267  2.4396  0.1070 -0.6118
  537TIP3    H223103   1.374   2.537  14.317  1.5846 -0.6741  2.7942
  538TIP3   OH223104   0.217   3.184   6.151 -0.3371 -0.3250 -0.0848
  538TIP3    H123105   0.297   3.193   6.204 -1.1228  0.0494  1.0629
  538TIP3    H223106   0.212   3.265   6.100 -0.3700 -0.0178  0.3999
  539TIP3   OH223107   4.057   4.816   4.756  0.2823 -0.0820 -0.1715
  539TIP3    H123108   3.987   4.758   4.784  0.0925 -0.4176 -1.3483
  539TIP3    H223109   4.042   4.829   4.662  0.1788  2.0459  0.1070
  540TIP3   OH223110   2.597   5.828  12.939 -0.2726 -0.3191  0.0215
  540TIP3    H123111   2.503   5.837  12.950 -0.0105  1.4140  0.9747
  540TIP3    H223112   2.624   5.768  13.009 -0.8263 -1.9051 -1.0828
  541TIP3   OH223113   3.894   0.668   4.292  0.1423 -0.0588  0.6397
  541TIP3    H123114   3.960   0.705   4.350  0.7785 -2.5266  1.5384
  541TIP3    H223115   3.810   0.689   4.334  0.5590 -0.8802  1.9089
  542TIP3   OH223116   4.052   2.393   1.882 -0.0260 -0.0300 -0.0528
  542TIP3    H123117   3.996   2.395   1.804 -0.0359  0.6289 -0.0352
  542TIP3    H223118   4.123   2.334   1.859 -0.3192 -0.2703 -0.3582
  543TIP3   OH223119   3.488   0.011   1.653 -0.2690  0.3016 -0.0725
  543TIP3    H123120   3.531  -0.073   1.673  0.0281  0.5484  0.3355
  543TIP3    H223121   3.413  -0.013   1.599  0.4979 -0.1287 -0.9636
  544TIP3   OH223122   6.143   2.976   0.424  0.4946  0.7174 -0.3167
  544TIP3    H123123   6.126   3.065   0.392  1.1448  0.7101 -0.6950
  544TIP3    H223124   6.079   2.963   0.495  0.2555  1.4035 -0.4033
  545TIP3   OH223125   4.874   0.089   3.451  0.0983 -0.1753 -0.0481
  545TIP3    H123126   4.827   0.152   3.506  0.9022  1.1368 -0.8281
  545TIP3    H223127   4.829   0.093   3.367  0.9030  0.2608 -0.4632
  546TIP3   OH223128   0.574   3.620   5.145 -0.5539 -0.0799  0.3854
  546TIP3    H123129   0.584   3.561   5.220 -1.4409  0.9926  1.3623
  546TIP3    H223130   0.537   3.565   5.076  1.0984 -1.2960  0.4182
  547TIP3   OH223131   5.997   1.821   1.068 -0.4286  0.1718  0.0986
  547TIP3    H123132   5.934   1.751   1.050  0.2572 -1.0251  2.2260
  547TIP3    H223133   6.058   1.817   0.995 -1.0007 -0.7629 -0.3423
  548TIP3   OH223134   3.923   1.540  11.419  0.1726 -0.5756 -0.2683
  548TIP3    H123135   3.919   1.633  11.396 -1.0296 -0.2139  1.3121
  548TIP3    H223136   3.932   1.495  11.335 -1.1627  0.8687 -1.2087
  549TIP3   OH223137   0.499   4.289   1.320  0.5193  0.3941 -0.2524
  549TIP3    H123138   0.468   4.377   1.295 -0.9258  0.1676  0.7152
  549TIP3    H223139   0.538   4.301   1.406 -1.6743 -0.2951  0.8772
  550TIP3   OH223140   4.510   3.949  12.434  0.4073  0.7687  0.0694
  550TIP3    H123141   4.512   3.855  12.419 -1.5202  0.4831  1.4059
  550TIP3    H223142   4.601   3.977  12.425  1.1014 -1.3206  0.3187
  551TIP3   OH223143   6.723   1.749   4.881  0.1442 -0.4063 -0.0564
  551TIP3    H123144   6.697   1.797   4.802  0.1173  0.6920  0.6094
  551TIP3    H223145   6.675   1.667   4.876  0.1532 -0.3476 -1.1943
  552TIP3   OH223146   0.284   5.583   0.348 -0.4846  0.6933 -0.4925
  552TIP3    H123147   0.364   5.574   0.400 -0.8654  1.0634  0.1657
  552TIP3    H223148   0.253   5.493   0.337  0.3899  0.4867 -1.3458
  553TIP3   OH223149   1.803   0.115  13.073 -0.1816  0.5985  0.7180
  553TIP3    H123150   1.755   0.059  13.133 -0.8006 -0.1632 -0.4577
  553TIP3    H223151   1.737   0.145  13.011  0.3194  1.9171  0.8174
  554TIP3   OH223152   0.177   0.762   0.213  0.4807 -0.2440 -0.1834
  554TIP3    H123153   0.146   0.678   0.247  1.2687 -0.4191  0.1135
  554TIP3    H223154   0.204   0.811   0.291 -2.1158  1.1813 -0.1425
  555TIP3   OH223155   2.602   1.790   2.877  0.1789 -0.1038 -0.2953
  555TIP3    H123156   2.695   1.806   2.862  0.4389 -2.3650 -1.3277
  555TIP3    H223157   2.566   1.875   2.901  2.4963  0.8058  0.0333
  556TIP3   OH223158   0.885   2.877  11.983  0.8081 -0.0475 -0.1391
  556TIP3    H123159   0.811   2.830  12.022  1.0846 -0.2364  0.1604
  556TIP3    H223160   0.962   2.831  12.015  1.1441  1.6231  1.5476
  557TIP3   OH223161   1.703   6.442  15.730 -0.3528 -0.1874 -0.1628
  557TIP3    H123162   1.672   6.468  15.644 -0.3273 -1.1300 -0.4597
  557TIP3    H223163   1.795   6.467  15.731 -0.9465  2.0580  0.4957
  558TIP3   OH223164   1.553   1.840  12.365 -0.5156  0.0484  0.2470
  558TIP3    H123165   1.534   1.844  12.271  0.0603  1.1024  0.1683
  558TIP3    H223166   1.487   1.779  12.400 -1.8037  0.9427 -0.5639
  559TIP3   OH223167   2.628   0.622  15.617  0.0298  0.3248 -0.1455
  559TIP3    H123168   2.700   0.603  15.677 -0.7172 -1.3911  0.2326
  559TIP3    H223169   2.578   0.541  15.614 -0.2683  0.5809 -2.6490
  560TIP3   OH223170   5.970   2.638   0.929  0.0705 -0.1887  0.1337
  560TIP3    H123171   5.909   2.598   0.867 -1.5089  3.1231 -0.5921
  560TIP3    H223172   5.947   2.600   1.014 -1.2893 -0.8741 -0.5250
  561TIP3   OH223173   1.887   4.129   4.932  0.2036 -0.7315 -0.8418
  561TIP3    H123174   1.966   4.107   4.981  1.7151  0.8918 -2.4807
  561TIP3    H223175   1.912   4.121   4.840 -0.6752  2.5421 -1.4299
  562TIP3   OH223176   3.542   0.447  15.505 -0.3912 -0.6220 -0.2641
  562TIP3    H123177   3.505   0.505  15.438  0.7811  0.5705  0.1121
  562TIP3    H223178   3.629   0.424  15.472 -0.0160 -0.4550  0.5983
  563TIP3   OH223179   3.493   2.312   1.501  0.1353 -0.3796  0.0360
  563TIP3    H123180   3.470   2.338   1.590  0.3792  1.8017 -0.4914
  563TIP3    H223181   3.582   2.345   1.488  0.2082 -0.9194 -0.9251
  564TIP3   OH223182   3.959   4.163  14.711  0.3809  0.9211 -0.0380
  564TIP3    H123183   4.010   4.118  14.645 -0.1095  0.4775 -0.1212
  564TIP3    H223184   3.958   4.103  14.786 -0.8201  0.4880 -0.3827
  565TIP3   OH223185   5.342   4.313  12.985  0.4295  0.0911 -0.0253
  565TIP3    H123186   5.416   4.313  13.045  1.5235  2.4832 -1.3293
  565TIP3    H223187   5.377   4.276  12.904  0.2809  1.4176 -0.7078
  566TIP3   OH223188   5.792   4.746   4.345 -0.0290  0.1251 -0.2298
  566TIP3    H123189   5.700   4.718   4.346  0.1283 -0.3760  0.7651
  566TIP3    H223190   5.812   4.766   4.437  1.0760 -0.4921 -0.3292
  567TIP3   OH223191   0.088   1.782   0.520  0.1159 -0.1919  0.6229
  567TIP3    H123192   0.017   1.775   0.456  0.3796  0.9962  0.1901
  567TIP3    H223193   0.048   1.752   0.602 -0.0193 -2.4470 -0.2021
  568TIP3   OH223194   3.131   5.768  16.154 -0.0734 -0.2317 -0.8852
  568TIP3    H123195   3.191   5.842  16.159 -0.1323 -0.2436  0.1223
  568TIP3    H223196   3.063   5.787  16.218 -0.3005 -0.9660 -0.8968
  569TIP3   OH223197   1.646   2.566   3.804 -0.1014 -0.5082 -0.0152
  569TIP3    H123198   1.592   2.520   3.869  0.6102 -1.7535 -0.2923
  569TIP3    H223199   1.594   2.565   3.724  0.5290 -2.1853 -0.4298
  570TIP3   OH223200   1.814   5.215  11.010  0.0497  0.3709  0.2340
  570TIP3    H123201   1.900   5.241  10.976  0.1137  0.5974  0.5686
  570TIP3    H223202   1.754   5.232  10.937  0.1702  0.9586  0.2688
  571TIP3   OH223203   0.993   4.219  12.237 -0.2303 -0.2464  0.3759
  571TIP3    H123204   0.932   4.182  12.301  0.5208  0.7335  1.6491
  571TIP3    H223205   1.015   4.305  12.271  1.5196 -0.4078 -0.3185
  572TIP3   OH223206   3.938   1.516   3.817 -0.0280 -0.5342  0.2185
  572TIP3    H123207   3.975   1.574   3.884 -1.0216 -1.2535  1.4174
  572TIP3    H223208   3.972   1.550   3.734 -0.4757  1.6598  0.9181
  573TIP3   OH223209   6.613   3.956  13.738 -0.1099  0.7374 -0.3231
  573TIP3    H123210   6.670   3.938  13.813  0.5655 -0.6403 -1.1562
  573TIP3    H223211   6.591   4.049  13.746  0.4053  0.7363  1.2672
  574TIP3   OH223212   2.229   3.779   4.118  0.1049 -0.0713  0.1243
  574TIP3    H123213   2.284   3.713   4.078 -0.2834 -0.6590  0.5546
  574TIP3    H223214   2.274   3.862   4.101  1.2155 -0.5629  0.6542
  575TIP3   OH223215   2.357   1.540  11.213 -0.2077 -1.0049  0.4790
  575TIP3    H123216   2.422   1.611  11.214 -1.5707  0.3019 -0.5486
  575TIP3    H223217   2.375   1.491  11.293  0.3447  0.8995  1.5750
  576TIP3   OH223218   0.158   0.853   1.699  0.2064 -0.4246  0.9650
  576TIP3    H123219   0.149   0.788   1.629  0.1899 -1.3688  1.8350
  576TIP3    H223220   0.070   0.890   1.708  0.0120 -0.8991  1.0548
  577TIP3   OH223221   5.993   6.164  15.307  0.2852  0.2369 -0.5094
  577TIP3    H123222   6.029   6.229  15.247  0.0209 -1.1437 -2.1991
  577TIP3    H223223   5.912   6.203  15.340 -0.1121  0.5879 -1.8594
  578TIP3   OH223224   1.008   4.688   1.882 -0.3901 -0.2713 -0.5866
  578TIP3    H123225   0.989   4.644   1.799  1.7981  0.6496 -1.6163
  578TIP3    H223226   1.073   4.755   1.860 -0.0765  0.2677  1.7974
  579TIP3   OH223227   3.447   3.462   2.519 -0.0053  0.0930  0.1668
  579TIP3    H123228   3.514   3.499   2.461 -0.1872 -3.2009 -2.2586
  579TIP3    H223229   3.373   3.523   2.511 -0.0148 -0.2463 -3.0621
  580TIP3   OH223230   2.591   5.297   1.217 -0.5873  0.5225  0.4221
  580TIP3    H123231   2.534   5.220   1.226  0.6376 -0.2163  2.0347
  580TIP3    H223232   2.535   5.363   1.176 -1.7749 -1.0844 -0.6082
  581TIP3   OH223233   4.068   6.184   6.301 -0.0364  0.5147  0.4794
  581TIP3    H123234   4.118   6.262   6.276  2.0756 -0.6169  1.0705
  581TIP3    H223235   4.003   6.216   6.364 -0.6336  2.1526 -0.9440
  582TIP3   OH223236   2.792   3.834   1.632  0.5004 -0.4350 -0.3385
  582TIP3    H123237   2.721   3.884   1.671  2.2074  0.9169  1.1214
  582TIP3    H223238   2.810   3.763   1.694  2.0459  0.6826  0.5323
  583TIP3   OH223239   6.789   1.038   2.702  0.0777  0.6145  0.2500
  583TIP3    H123240   6.763   1.105   2.765  0.8602  0.5482  0.6457
  583TIP3    H223241   6.864   0.995   2.742 -1.2242 -1.3997  0.6030
  584TIP3   OH223242   4.617   3.513   1.666 -0.3827 -0.2965 -0.0704
  584TIP3    H123243   4.672   3.452   1.618  0.5529 -0.6389  1.4306
  584TIP3    H223244   4.606   3.474   1.752 -0.1974  1.3939  0.7443
  585TIP3   OH223245   3.141   2.201   3.767  0.2468 -0.1930  0.0694
  585TIP3    H123246   3.098   2.163   3.843 -0.3075 -0.3355 -0.3152
  585TIP3    H223247   3.209   2.138   3.743  0.2438 -0.2748  0.2735
  586TIP3   OH223248   4.304   6.697  17.231  0.1418  0.2371  0.0707
  586TIP3    H123249   4.248   6.630  17.193  1.3481 -1.1400  0.7074
  586TIP3    H223250   4.253   6.733  17.304  0.7215 -2.2015  1.7481
  587TIP3   OH223251   2.154   5.541  14.682 -0.2908  0.1840 -0.2297
  587TIP3    H123252   2.098   5.548  14.758 -0.1019  1.2839 -0.1906
  587TIP3    H223253   2.196   5.455  14.690 -1.9084 -0.6113 -0.2346
  588TIP3   OH223254   6.450   4.408  16.231  0.5077 -0.3440 -0.5922
  588TIP3    H123255   6.417   4.427  16.143  1.5545  1.4843 -0.6238
  588TIP3    H223256   6.372   4.393  16.284 -0.2019  0.1590 -1.4895
  589TIP3   OH223257   5.945   5.716  11.906  0.6639  0.1999 -0.3487
  589TIP3    H123258   5.852   5.698  11.894  0.7712  0.4164 -1.5929
  589TIP3    H223259   5.989   5.654  11.848  1.2998  0.0321  0.3116
  590TIP3   OH223260   3.817   1.428  16.003 -0.5094  0.7808 -0.7057
  590TIP3    H123261   3.878   1.478  16.057 -0.2990  2.0360 -2.0825
  590TIP3    H223262   3.753   1.493  15.972 -0.4334  0.1500 -2.2233
  591TIP3   OH223263   4.371   4.261  13.856  0.1593 -0.5052  0.4272
  591TIP3    H123264   4.347   4.175  13.890  0.0731 -0.5778  0.1904
  591TIP3    H223265   4.409   4.308  13.930 -0.2045 -0.5907  0.6710
  592TIP3   OH223266   1.705   3.278  16.972  0.0273 -0.0729 -0.2787
  592TIP3    H123267   1.689   3.243  16.884 -0.7027  0.9673 -0.5812
  592TIP3    H223268   1.624   3.260  17.020 -0.0116  0.3677 -0.1694
  593TIP3   OH223269   6.756   5.037  11.777  0.5862  0.4752 -0.5375
  593TIP3    H123270   6.739   5.106  11.713 -1.0634 -0.7298 -1.4207
  593TIP3    H223271   6.765   5.084  11.860  1.8194  1.9598 -1.4818
  594TIP3   OH223272   4.253   3.155   2.542 -0.1489  0.8880 -0.0190
  594TIP3    H123273   4.245   3.114   2.456 -1.7562 -3.6818  2.1574
  594TIP3    H223274   4.164   3.186   2.562 -0.2420  0.0539  0.8695
  595TIP3   OH223275   1.513   1.320   2.945  0.0016 -0.8021 -0.5648
  595TIP3    H123276   1.527   1.277   3.029  0.7697 -1.0508 -0.8103
  595TIP3    H223277   1.495   1.411   2.968  0.9001 -0.7207 -0.1562
  596TIP3   OH223278   1.919   1.930  11.751  0.1091  0.4591  0.3240
  596TIP3    H123279   1.860   2.002  11.727 -1.3724 -0.8976 -0.2426
  596TIP3    H223280   1.892   1.857  11.695  2.4330 -0.1696 -0.0340
  597TIP3   OH223281   2.618   2.964   4.675  0.1826 -1.3137 -0.5061
  597TIP3    H123282   2.638   2.873   4.699 -1.7966 -1.6730 -0.1008
  597TIP3    H223283   2.535   2.958   4.628  1.8111 -0.1009 -3.6492
  598TIP3   OH223284   2.965   2.700  14.225 -0.0246  0.2929  0.2675
  598TIP3    H123285   2.933   2.628  14.280  0.0994  0.0492  0.0209
  598TIP3    H223286   2.966   2.664  14.136  0.7162  0.3767  0.2400
  599TIP3   OH223287   4.647   3.131   5.379 -0.0315  0.0677 -0.4986
  599TIP3    H123288   4.661   3.226   5.376 -0.3679  0.1741  1.0379
  599TIP3    H223289   4.571   3.120   5.437  0.5370 -1.1979  0.0176
  600TIP3   OH223290   3.693   1.873   0.712  0.2321  0.0486 -0.0869
  600TIP3    H123291   3.762   1.850   0.774  0.1461  1.0565  0.3968
  600TIP3    H223292   3.728   1.849   0.627  0.5411 -0.9189  0.3037
  601TIP3   OH223293   0.004   0.521   6.429 -0.2837 -0.4418  0.2982
  601TIP3    H123294   0.038   0.606   6.401  0.3732 -0.2894  1.5379
  601TIP3    H223295  -0.080   0.541   6.471  0.4752 -0.2402  1.7576
  602TIP3   OH223296   3.742   5.740   4.946 -0.4166  0.4992 -0.1046
  602TIP3    H123297   3.721   5.702   4.860 -2.0905 -1.4668  1.1151
  602TIP3    H223298   3.807   5.680   4.982 -1.2292  0.1846  0.8337
  603TIP3   OH223299   2.032   1.380   5.469  0.2079 -0.5786 -0.0066
  603TIP3    H123300   2.006   1.308   5.527  2.2518 -0.5457  0.9907
  603TIP3    H223301   1.956   1.439   5.469 -0.6250 -1.6201  0.9744
  604TIP3   OH223302   3.110   0.758   2.731  0.2033 -0.3196 -0.2087
  604TIP3    H123303   3.179   0.719   2.786 -0.1630 -2.0701 -0.9521
  604TIP3    H223304   3.136   0.849   2.722  1.1318 -0.3754  1.5437
  605TIP3   OH223305   2.493   0.043  10.961 -0.2407  0.2341 -0.2635
  605TIP3    H123306   2.559   0.021  10.895  3.5584  0.5551  3.2917
  605TIP3    H223307   2.477  -0.039  11.007 -0.4758  0.7079  0.5054
  606TIP3   OH223308   1.872   4.099   2.810 -0.2699 -0.6448 -0.0751
  606TIP3    H123309   1.819   4.119   2.887 -0.3330  1.5102 -0.6446
  606TIP3    H223310   1.961   4.089   2.843 -0.2347  0.6346  0.2457
  607TIP3   OH223311   3.926   1.084  12.380  0.1742 -0.5269  0.5524
  607TIP3    H123312   3.927   1.165  12.328 -1.7073 -0.6375  0.3087
  607TIP3    H223313   3.844   1.040  12.354  1.3727 -2.7160  0.3606
  608TIP3   OH223314   3.084   1.770  11.887 -0.0293 -0.2491 -0.6370
  608TIP3    H123315   3.175   1.762  11.915 -0.1894 -0.6583 -0.2238
  608TIP3    H223316   3.035   1.781  11.968 -0.3023  0.4203 -0.8889
  609TIP3   OH223317   1.906   1.574  14.253  0.4891 -0.3475 -0.3254
  609TIP3    H123318   1.833   1.573  14.314  0.4434 -0.9011 -0.3877
  609TIP3    H223319   1.929   1.666  14.245  0.3311 -0.2482  0.3303
  610TIP3   OH223320   2.047   3.690   0.188  0.4162 -0.1039 -0.5681
  610TIP3    H123321   2.014   3.601   0.175 -2.4758  0.8751 -0.4064
  610TIP3    H223322   1.978   3.746   0.152  0.4194  2.1582  2.6967
  611TIP3   OH223323   3.629   6.477  16.710  0.6573 -0.2391  0.8205
  611TIP3    H123324   3.645   6.504  16.620  0.8428  1.1653  1.2635
  611TIP3    H223325   3.560   6.412  16.704  0.9356 -0.4330 -0.3662
  612TIP3   OH223326   2.465   1.720   4.418  0.1567  0.3467  0.1524
  612TIP3    H123327   2.556   1.729   4.449  1.1137  0.6559 -2.6028
  612TIP3    H223328   2.434   1.811   4.413  0.4564  0.3899 -1.0278
  613TIP3   OH223329   3.896   4.125   1.788 -0.2857 -0.2528  0.1463
  613TIP3    H123330   3.815   4.134   1.738  0.8071 -0.3646 -1.7145
  613TIP3    H223331   3.962   4.102   1.722  1.5358  1.2332  1.3929
  614TIP3   OH223332   3.740   6.275  15.956 -0.5918  0.4047 -0.1970
  614TIP3    H123333   3.721   6.274  16.049 -1.9439  2.3814 -0.4260
  614TIP3    H223334   3.753   6.367  15.934  0.3173 -0.0744 -1.8561
  615TIP3   OH223335   5.859   1.148  15.929 -0.1071  0.3740 -0.6478
  615TIP3    H123336   5.775   1.135  15.886 -0.3323  0.5881 -0.2785
  615TIP3    H223337   5.902   1.062  15.925 -0.8638 -0.0617  0.2602
  616TIP3   OH223338   5.876   5.362   2.321  0.1446  0.3675  1.0715
  616TIP3    H123339   5.866   5.292   2.384  1.8028 -0.0910  0.8541
  616TIP3    H223340   5.926   5.323   2.249 -1.3667  0.9913 -0.3433
  617TIP3   OH223341   6.563   1.695  16.757 -0.0325 -0.0550  0.0093
  617TIP3    H123342   6.531   1.640  16.685 -0.6346 -1.5675  1.4145
  617TIP3    H223343   6.578   1.781  16.716 -3.0405 -0.0957 -1.3442
  618TIP3   OH223344   2.401   5.831   2.751 -0.5097  0.6924 -0.2639
  618TIP3    H123345   2.430   5.778   2.676 -0.3626 -0.9111  0.9025
  618TIP3    H223346   2.427   5.920   2.728 -1.6313  0.4415 -2.7180
  619TIP3   OH223347   0.061   3.707   2.386 -0.0360  0.4215 -0.2353
  619TIP3    H123348   0.081   3.717   2.293  2.0687  2.5454  0.3798
  619TIP3    H223349  -0.020   3.756   2.399  0.8045  1.9468 -0.5912
  620TIP3   OH223350   2.388   1.434  12.115 -0.0457  0.0630 -0.3885
  620TIP3    H123351   2.330   1.509  12.101  1.3905  1.2008 -0.3882
  620TIP3    H223352   2.379   1.381  12.036 -0.4505  0.6543 -0.7434
  621TIP3   OH223353   2.346   3.653   5.137  0.0706  0.2653  0.2140
  621TIP3    H123354   2.369   3.560   5.144  0.0092  0.1057 -1.5362
  621TIP3    H223355   2.391   3.694   5.210  0.0980 -1.1387  1.0181
  622TIP3   OH223356   5.601   2.126  11.583 -0.1933  0.4214 -0.0999
  622TIP3    H123357   5.513   2.091  11.598 -0.2074  0.4553 -0.1033
  622TIP3    H223358   5.660   2.054  11.608 -0.2397 -0.0320 -1.2468
  623TIP3   OH223359   2.364   2.117   2.605  0.1310 -0.2067 -0.6748
  623TIP3    H123360   2.318   2.174   2.666  2.6840  0.8127  0.4062
  623TIP3    H223361   2.313   2.036   2.602 -1.3774  0.6825  0.8657
  624TIP3   OH223362   5.168   0.596  12.686 -0.1726  0.0191  0.2419
  624TIP3    H123363   5.182   0.543  12.764 -1.1715 -0.4325  0.1209
  624TIP3    H223364   5.153   0.533  12.616 -0.1096  0.4391 -0.1565
  625TIP3   OH223365   4.608   0.027  16.594 -0.2747  0.4145 -0.0541
  625TIP3    H123366   4.581   0.098  16.652 -0.5393 -0.2282  0.6262
  625TIP3    H223367   4.528   0.004  16.547 -0.2312  0.4455 -0.1426
  626TIP3   OH223368   5.879   1.425   4.954 -0.1385 -0.1856  0.1781
  626TIP3    H123369   5.926   1.436   5.037 -0.0395 -0.3695  0.1475
  626TIP3    H223370   5.821   1.501   4.949 -0.0393 -0.0982  0.3450
  627TIP3   OH223371   4.979   1.105  16.257 -0.4420 -0.1289 -0.3297
  627TIP3    H123372   4.989   1.163  16.181 -1.4544  0.4419 -0.0246
  627TIP3    H223373   5.013   1.020  16.227  0.2377  0.3959 -1.0469
  628TIP3   OH223374   0.863   1.422  11.191  0.1018 -0.0905 -0.3224
  628TIP3    H123375   0.854   1.367  11.113  2.2156  3.1540 -2.9966
  628TIP3    H223376   0.795   1.488  11.181  0.4903  0.4372  0.5255
  629TIP3   OH223377   1.329   0.699   1.467 -0.8833  0.2853  0.0942
  629TIP3    H123378   1.421   0.713   1.444 -0.4278  0.1822  1.7795
  629TIP3    H223379   1.294   0.646   1.395  0.7504 -0.9236  0.1603
  630TIP3   OH223380   3.041   1.476  14.883  0.9886  0.3155 -0.3073
  630TIP3    H123381   3.033   1.403  14.945  2.0591  1.2304  0.9446
  630TIP3    H223382   3.124   1.459  14.839  1.3090  0.8474  0.0887
  631TIP3   OH223383   0.586   1.712   5.705 -0.2743  0.9177 -0.2632
  631TIP3    H123384   0.652   1.755   5.650 -1.0788  1.7880 -0.5472
  631TIP3    H223385   0.502   1.737   5.667 -0.7831 -0.0212  0.2265
  632TIP3   OH223386   1.275   0.411  15.635  0.0100  0.2973 -0.1004
  632TIP3    H123387   1.250   0.469  15.562  0.4496  2.1350  1.1743
  632TIP3    H223388   1.333   0.464  15.688  0.9006 -1.5506  0.8005
  633TIP3   OH223389   5.538   3.095  16.676 -0.1446 -0.4161  0.0490
  633TIP3    H123390   5.492   3.150  16.739  0.0856 -0.4711  0.2689
  633TIP3    H223391   5.483   3.095  16.598 -0.3071 -0.1452  0.1672
  634TIP3   OH223392   5.284   3.757   2.917  0.3335 -0.2368  0.6119
  634TIP3    H123393   5.239   3.685   2.874 -1.1708  0.2641  1.3196
  634TIP3    H223394   5.368   3.763   2.871 -0.7931 -0.3906 -1.5368
  635TIP3   OH223395   5.370   0.539   2.839  0.3831 -0.4331  0.0023
  635TIP3    H123396   5.453   0.540   2.887  0.4217 -0.5934 -0.0577
  635TIP3    H223397   5.315   0.603   2.883  0.8133  0.2412 -0.4429
  636TIP3   OH223398   2.134   1.600   4.528  0.9072 -0.4039 -0.0422
  636TIP3    H123399   2.115   1.687   4.492  2.1545  0.6112  1.6905
  636TIP3    H223400   2.205   1.567   4.473  0.9348 -0.0210 -0.2389
  637TIP3   OH223401   4.986   4.189  15.505 -0.2303 -0.1314  0.3917
  637TIP3    H123402   5.035   4.183  15.423 -0.8441  0.7854 -0.0525
  637TIP3    H223403   4.946   4.103  15.515  0.2853 -0.4188 -0.0029
  638TIP3   OH223404   5.388   3.520  13.480  0.2980  0.6846  0.5057
  638TIP3    H123405   5.381   3.544  13.387  0.1683  0.7399  0.5298
  638TIP3    H223406   5.469   3.561  13.510  0.8510 -0.1343  0.1649
  639TIP3   OH223407   5.466   3.197  13.873 -0.0589  0.0227 -0.1718
  639TIP3    H123408   5.407   3.271  13.886  0.1597  0.2119 -0.2727
  639TIP3    H223409   5.545   3.219  13.922  0.3698  0.2760 -0.9628
  640TIP3   OH223410   2.070   0.429   1.657 -0.3128 -0.3585 -0.5786
  640TIP3    H123411   2.014   0.444   1.732  0.0812  0.2351 -0.3974
  640TIP3    H223412   2.091   0.336   1.661  1.7861  0.1634  1.5215
  641TIP3   OH223413   1.049   4.619   2.543 -0.4910  0.0326  0.4601
  641TIP3    H123414   1.096   4.551   2.495  0.3871  1.0966 -0.2197
  641TIP3    H223415   1.118   4.678   2.574 -1.3244  1.2633  0.0063
  642TIP3   OH223416   6.017   1.700  11.067 -0.7565 -0.1069 -0.0640
  642TIP3    H123417   5.994   1.737  10.982 -1.9322 -0.3646  0.1437
  642TIP3    H223418   6.041   1.609  11.047  0.3418  0.2275 -0.3109
  643TIP3   OH223419   6.099   1.544  13.460 -0.1759  0.2005  0.3445
  643TIP3    H123420   6.157   1.620  13.464  1.0280 -0.7675  2.6146
  643TIP3    H223421   6.158   1.468  13.462 -1.4805 -0.8100  2.9889
  644TIP3   OH223422   3.564   0.991  16.093 -0.1947 -0.1771  0.6438
  644TIP3    H123423   3.625   1.065  16.096 -0.5665  0.1283  0.6938
  644TIP3    H223424   3.496   1.014  16.157  0.0837 -0.9101  1.2098
  645TIP3   OH223425   0.395   2.734  14.501 -0.1243 -0.0238 -0.2104
  645TIP3    H123426   0.374   2.659  14.446  1.2120 -0.3851 -0.2427
  645TIP3    H223427   0.443   2.698  14.575 -2.4661  0.3729  1.5718
  646TIP3   OH223428   3.394   3.161  15.558 -0.5258 -0.1476 -0.3673
  646TIP3    H123429   3.419   3.253  15.555 -1.5609  0.1182 -1.3112
  646TIP3    H223430   3.303   3.162  15.588 -0.5353 -0.8578 -0.3591
  647TIP3   OH223431   6.100   1.668   4.322  0.8921 -0.1117  0.4706
  647TIP3    H123432   6.105   1.750   4.273  0.5534 -0.1769  0.3193
  647TIP3    H223433   6.186   1.628   4.313  0.5323 -0.6089 -0.9272
  648TIP3   OH223434   6.391   0.951  11.338 -0.0127  0.3537  0.7699
  648TIP3    H123435   6.393   1.032  11.388 -0.3078  1.0357 -0.3116
  648TIP3    H223436   6.298   0.933  11.326  0.0390 -0.5763  1.6817
  649TIP3   OH223437   2.370   0.088   3.399 -0.2864 -0.4171  0.8348
  649TIP3    H123438   2.426   0.159   3.369 -0.0853 -1.1780 -0.6165
  649TIP3    H223439   2.418   0.048   3.471  0.4376 -0.2413  0.4539
  650TIP3   OH223440   5.454   5.192  11.768  0.0593  0.2927 -1.0132
  650TIP3    H123441   5.416   5.193  11.680 -0.2850  1.3797 -0.8637
  650TIP3    H223442   5.379   5.202  11.826  0.5574  2.8062 -0.7228
  651TIP3   OH223443   6.220   2.233  15.673 -0.0334 -0.1419  0.0309
  651TIP3    H123444   6.300   2.275  15.640  1.6121 -1.2958  2.4565
  651TIP3    H223445   6.170   2.305  15.712  0.1874  0.4406 -0.7256
  652TIP3   OH223446   4.022   2.783   6.180 -0.8310  0.3896  0.5580
  652TIP3    H123447   4.072   2.748   6.106  0.0069 -0.3356  1.4560
  652TIP3    H223448   3.945   2.823   6.140 -0.6647 -0.4875 -0.6710
  653TIP3   OH223449   1.207   4.569  14.347  0.1771 -0.3243  0.0721
  653TIP3    H123450   1.159   4.557  14.265 -2.1461 -1.4457  1.5514
  653TIP3    H223451   1.186   4.658  14.374 -2.0838 -1.1830  1.2927
  654TIP3   OH223452   4.702   4.124  16.207 -0.4333 -0.3304  0.0715
  654TIP3    H123453   4.647   4.053  16.174  1.2640 -0.9877 -1.4153
  654TIP3    H223454   4.784   4.082  16.231 -0.1293  0.8300  1.1366
  655TIP3   OH223455   1.940   3.841   5.593  0.1274  0.1640  0.4963
  655TIP3    H123456   1.972   3.902   5.659 -2.7232  1.5745  0.6477
  655TIP3    H223457   1.973   3.756   5.620  0.8327  1.0562  2.4973
  656TIP3   OH223458   4.353   6.364  14.498  0.6112  0.7430 -0.1962
  656TIP3    H123459   4.276   6.361  14.555 -0.3910  0.5621 -1.5396
  656TIP3    H223460   4.323   6.410  14.420  2.0058  1.0884 -0.5409
  657TIP3   OH223461   3.954   2.100   1.452 -0.3269  0.3528  0.2275
  657TIP3    H123462   4.015   2.121   1.523  0.9976  0.9617 -1.0682
  657TIP3    H223463   3.924   2.185   1.420 -1.7149  0.0559  0.7281
  658TIP3   OH223464   2.958   2.419   3.851  0.1792 -0.1912 -0.2224
  658TIP3    H123465   2.913   2.401   3.933 -0.2917 -2.0334 -0.8502
  658TIP3    H223466   3.016   2.344   3.838 -0.5755 -0.4900 -2.1042
  659TIP3   OH223467   5.496   1.471   3.192 -0.0021  0.2897 -0.5472
  659TIP3    H123468   5.491   1.385   3.151 -0.8512  0.0563  0.0230
  659TIP3    H223469   5.581   1.473   3.235  0.6394  0.3156 -1.8283
  660TIP3   OH223470   3.075   5.156  14.676  0.5365  0.3518  0.0009
  660TIP3    H123471   2.999   5.102  14.695  1.1403 -0.4386  0.1857
  660TIP3    H223472   3.081   5.156  14.580  0.7035 -0.1585  0.0068
  661TIP3   OH223473   5.828   4.510   1.490  0.0494 -0.3180 -0.6228
  661TIP3    H123474   5.813   4.522   1.584 -0.1291  0.8076 -0.7837
  661TIP3    H223475   5.851   4.597   1.458  0.8760 -0.8347 -1.4895
  662TIP3   OH223476   4.170   3.582  16.803 -0.5314 -0.0398  0.3516
  662TIP3    H123477   4.134   3.603  16.717  0.2210  0.0946  0.0646
  662TIP3    H223478   4.095   3.588  16.862 -0.9520  0.3692 -0.2131
  663TIP3   OH223479   6.022   4.784   3.979 -0.3480 -0.2458  0.1034
  663TIP3    H123480   5.945   4.779   3.922 -0.5870  1.4370  0.2352
  663TIP3    H223481   6.085   4.724   3.941 -0.7484  0.3814 -1.5631
  664TIP3   OH223482   2.333   0.856   4.315  0.3565  0.2613  0.2264
  664TIP3    H123483   2.262   0.868   4.377  0.5999  2.8501  0.0455
  664TIP3    H223484   2.388   0.933   4.325  1.1908  0.0346 -2.1811
  665TIP3   OH223485   0.600   2.346   4.925  0.6499  0.5898  0.1443
  665TIP3    H123486   0.612   2.304   4.839 -2.7743 -0.8435  0.2942
  665TIP3    H223487   0.570   2.434   4.904 -1.0222 -0.0262 -0.2067
  666TIP3   OH223488   3.572   2.145  15.986  0.0309  0.0652  0.0052
  666TIP3    H123489   3.605   2.058  15.962 -1.0602 -0.5387  0.6207
  666TIP3    H223490   3.531   2.177  15.905  1.9087  0.7274 -0.6925
  667TIP3   OH223491   1.080   0.485   1.929 -0.0556  0.3717  0.0257
  667TIP3    H123492   1.019   0.411   1.931 -0.0497  0.2777 -1.9810
  667TIP3    H223493   1.024   0.562   1.944 -0.6962  0.2767 -1.7182
  668TIP3   OH223494   0.800   3.816  13.571  0.1791 -0.3781  0.1135
  668TIP3    H123495   0.760   3.865  13.642  1.8380  1.4013 -0.1220
  668TIP3    H223496   0.728   3.770  13.529 -1.3433  1.3903  0.7495
  669TIP3   OH223497   0.625   5.012  16.694  0.0704  0.1449  0.0850
  669TIP3    H123498   0.593   4.949  16.758  0.4508 -1.3522 -1.1569
  669TIP3    H223499   0.720   5.003  16.695  0.0858  0.1394 -0.6332
  670TIP3   OH223500   3.107   2.702   4.840  0.1406  0.0789  0.2195
  670TIP3    H123501   3.135   2.638   4.774 -2.9339  0.7940 -1.8891
  670TIP3    H223502   3.101   2.652   4.921  2.0054 -1.2889 -0.4446
  671TIP3   OH223503   3.974   2.208  17.094  0.2121 -0.1776 -0.0930
  671TIP3    H123504   3.905   2.142  17.080 -0.6177  0.6063  0.2347
  671TIP3    H223505   4.044   2.161  17.139 -1.2058 -0.3863  1.9790
  672TIP3   OH223506   2.858   3.860   5.777 -0.4315  0.3596 -0.5847
  672TIP3    H123507   2.810   3.792   5.729  1.1479 -0.7660 -0.5786
  672TIP3    H223508   2.882   3.818   5.860 -1.4132  1.6578  0.3722
  673TIP3   OH223509   3.204   1.379  15.173  0.2491 -0.2669 -0.0728
  673TIP3    H123510   3.220   1.315  15.242  0.1307 -1.1975 -0.8861
  673TIP3    H223511   3.154   1.330  15.107  0.3198  0.6190 -0.7868
  674TIP3   OH223512   4.469   1.135  14.424 -0.0841  0.1009  0.0790
  674TIP3    H123513   4.494   1.186  14.347  0.2228 -0.0686  0.0667
  674TIP3    H223514   4.412   1.194  14.474 -0.6514  0.0475 -0.4984
  675TIP3   OH223515   2.982   1.188  17.133  0.2436 -0.0509  0.0176
  675TIP3    H123516   3.005   1.105  17.175 -0.7004 -1.0602 -1.4324
  675TIP3    H223517   3.046   1.250  17.167  3.0307 -2.0641 -1.3344
  676TIP3   OH223518   3.844   1.751   4.181 -0.5298  0.5623  0.1245
  676TIP3    H123519   3.767   1.729   4.234 -0.4250 -0.7612 -0.2707
  676TIP3    H223520   3.812   1.754   4.091 -0.0642 -0.2809 -0.0747
  677TIP3   OH223521   6.317   4.753  14.983  0.4447 -0.2021 -0.7322
  677TIP3    H123522   6.224   4.741  15.003  0.0686  0.4639 -2.0849
  677TIP3    H223523   6.359   4.753  15.069 -0.7192 -1.1785 -0.1438
  678TIP3   OH223524   6.074   1.462  11.851 -0.2346 -0.0259  0.2179
  678TIP3    H123525   6.144   1.508  11.804  0.5586 -0.4236  1.0045
  678TIP3    H223526   6.043   1.395  11.789  0.7983 -0.5376  0.2494
  679TIP3   OH223527   3.285   1.846  16.583 -0.3528 -0.5745 -0.6068
  679TIP3    H123528   3.325   1.928  16.556  0.7523 -0.3453  1.6464
  679TIP3    H223529   3.358   1.785  16.592 -1.0487 -1.5149 -1.2078
  680TIP3   OH223530   0.954   0.159  10.765 -0.0695  0.6518 -0.1785
  680TIP3    H123531   0.967   0.117  10.680  0.6500  1.3643 -0.4308
  680TIP3    H223532   1.042   0.186  10.792 -0.1913 -0.1767  1.1200
  681TIP3   OH223533   2.287   6.601   1.563  0.4584  0.1132  0.4421
  681TIP3    H123534   2.271   6.669   1.497  0.1996  1.7003  2.0949
  681TIP3    H223535   2.375   6.569   1.544  0.9203  1.5128  0.1485
  682TIP3   OH223536   4.561   0.764   3.975 -0.0553  0.0076  0.0693
  682TIP3    H123537   4.595   0.740   4.061 -0.0735  0.3318  0.1670
  682TIP3    H223538   4.515   0.686   3.944 -2.5824  0.8415  1.6144
  683TIP3   OH223539   2.608   6.535   6.146  0.1960 -0.2598  0.2174
  683TIP3    H123540   2.614   6.500   6.235  0.8960  0.4245  0.4374
  683TIP3    H223541   2.657   6.616   6.149  2.8189 -1.7287 -1.5826
  684TIP3   OH223542   2.297   4.602   1.998 -0.1768 -0.0066 -0.2441
  684TIP3    H123543   2.240   4.670   2.034 -0.1547  0.1378 -0.4790
  684TIP3    H223544   2.283   4.527   2.055 -0.8644 -0.0849 -0.5053
  685TIP3   OH223545   1.250   2.971   3.105  0.2515 -0.2617 -0.0061
  685TIP3    H123546   1.339   3.002   3.090  0.2646  0.1623  0.9251
  685TIP3    H223547   1.244   2.890   3.054  0.0782  1.4399 -2.8199
  686TIP3   OH223548   6.546   0.450   4.456 -0.9493 -0.5215 -0.0647
  686TIP3    H123549   6.616   0.504   4.420  2.1637 -2.8103  2.3612
  686TIP3    H223550   6.469   0.507   4.454  1.5258  2.9847 -0.3529
  687TIP3   OH223551   4.914   6.517   0.463  0.5643 -0.1733  0.0987
  687TIP3    H123552   4.846   6.460   0.497 -0.2404 -0.3897 -1.7819
  687TIP3    H223553   4.873   6.604   0.459  0.8661 -0.0186  0.2866
  688TIP3   OH223554   5.403   0.849  15.523 -0.4296  0.4719  0.3858
  688TIP3    H123555   5.403   0.936  15.482  0.4692 -0.3053 -1.2807
  688TIP3    H223556   5.495   0.822  15.524 -0.7255 -0.5522  0.7040
  689TIP3   OH223557   1.047   4.187   3.727 -0.5372 -0.8259  0.1348
  689TIP3    H123558   0.993   4.108   3.723 -0.5957 -0.7489 -0.7945
  689TIP3    H223559   1.061   4.203   3.820 -1.6136 -1.1893  0.3604
  690TIP3   OH223560   3.481   0.863   4.808  0.3852  0.4644 -0.8703
  690TIP3    H123561   3.453   0.791   4.752  0.0230  1.2350 -1.6896
  690TIP3    H223562   3.405   0.882   4.862  0.8501 -0.5187  0.1618
  691TIP3   OH223563   1.209   4.745  16.775 -0.0238  0.0956 -0.0732
  691TIP3    H123564   1.173   4.729  16.688 -0.9571  0.7807  0.1765
  691TIP3    H223565   1.251   4.831  16.769 -1.4198  0.8326  0.5552
  692TIP3   OH223566   5.567   5.126  16.255 -0.4688  0.5206  0.0201
  692TIP3    H123567   5.576   5.139  16.349  0.8883  1.6709 -0.2600
  692TIP3    H223568   5.498   5.059  16.246 -0.9867  0.8158  1.7905
  693TIP3   OH223569   0.448   2.895  13.054 -0.9081  0.0524  0.2447
  693TIP3    H123570   0.359   2.904  13.021 -0.3732  1.3809 -0.9218
  693TIP3    H223571   0.443   2.827  13.121 -2.6526 -0.3839 -0.3136
  694TIP3   OH223572   3.704   2.559   0.125  0.5614  0.6278 -0.1690
  694TIP3    H123573   3.730   2.467   0.131 -0.1029  0.3556 -1.4138
  694TIP3    H223574   3.758   2.595   0.056 -0.4400  0.7283 -0.9131
  695TIP3   OH223575   0.401   1.433   4.104 -0.1950 -0.1274  0.7278
  695TIP3    H123576   0.463   1.487   4.153  1.8019 -1.1163 -0.6313
  695TIP3    H223577   0.390   1.355   4.158 -0.4529  0.1516  1.0824
  696TIP3   OH223578   5.438   4.871  16.270 -0.3301  0.7532 -0.0476
  696TIP3    H123579   5.345   4.873  16.246 -0.7021 -1.0776  1.1366
  696TIP3    H223580   5.441   4.818  16.350  1.9604 -0.9237 -1.1862
  697TIP3   OH223581   0.282   6.514   6.126  0.0420  0.0069  0.1786
  697TIP3    H123582   0.244   6.527   6.039 -1.2921  0.0608  0.7438
  697TIP3    H223583   0.365   6.470   6.111 -0.1237  0.1423 -1.1289
  698TIP3   OH223584   4.073   3.320   4.297 -1.0174 -0.8707  0.1640
  698TIP3    H123585   4.033   3.352   4.216 -0.5861  1.8625  0.9730
  698TIP3    H223586   4.032   3.372   4.366  0.9258 -0.9136  1.3975
  699TIP3   OH223587   4.142   6.758  15.979 -0.9152 -0.4952  0.2845
  699TIP3    H123588   4.237   6.748  15.985 -0.8611 -0.4845 -0.4848
  699TIP3    H223589   4.109   6.668  15.983 -0.8810 -0.4932  0.6392
  700TIP3   OH223590   4.164   6.791   2.476  0.0172 -0.7107  0.1389
  700TIP3    H123591   4.220   6.837   2.539 -0.6084 -1.5343  1.3063
  700TIP3    H223592   4.085   6.769   2.525 -0.9918 -0.2913 -1.2800
  701TIP3   OH223593   6.735   0.769   5.164  0.1271 -0.4684 -0.4289
  701TIP3    H123594   6.649   0.801   5.136  0.3388 -0.8424 -1.5470
  701TIP3    H223595   6.785   0.848   5.181 -1.1990 -0.2298  2.7429
  702TIP3   OH223596   2.643   0.861  16.284  0.1843 -0.3659  0.3991
  702TIP3    H123597   2.598   0.945  16.277 -1.5127 -1.2679  0.0186
  702TIP3    H223598   2.682   0.861  16.372 -0.4058  0.5345  0.6600
  703TIP3   OH223599   6.488   0.903  13.636 -0.4297 -0.2002 -0.4818
  703TIP3    H123600   6.523   0.973  13.691  0.6331 -0.9447 -0.1994
  703TIP3    H223601   6.526   0.919  13.550  1.3238 -1.5226  0.0372
  704TIP3   OH223602   5.492   6.394  13.288  0.1673 -0.1984 -0.2389
  704TIP3    H123603   5.517   6.337  13.361 -0.7396  0.9786  1.0232
  704TIP3    H223604   5.477   6.480  13.328 -2.9385 -0.1449 -1.3649
  705TIP3   OH223605   1.515   5.178   4.563 -0.3028  0.0655  0.1548
  705TIP3    H123606   1.607   5.196   4.582  0.6889 -1.3514 -2.9106
  705TIP3    H223607   1.499   5.091   4.599 -0.8953  0.8993  1.9657
  706TIP3   OH223608   0.272   5.924   4.358  0.1035 -0.7669  0.1491
  706TIP3    H123609   0.295   5.934   4.266 -0.7123 -0.0990  0.0061
  706TIP3    H223610   0.356   5.914   4.403  0.7958  2.6607 -0.2274
  707TIP3   OH223611   5.733   1.614  15.816  0.3430  0.2779 -0.2163
  707TIP3    H123612   5.638   1.614  15.807  0.2833 -2.0020  0.1251
  707TIP3    H223613   5.750   1.663  15.896 -0.4838  1.4277 -0.7343
  708TIP3   OH223614   1.763   3.909   4.650 -0.4744  0.0509 -0.0706
  708TIP3    H123615   1.682   3.959   4.652 -0.5340 -0.0588  0.2867
  708TIP3    H223616   1.832   3.975   4.639 -0.4337  0.3551  1.8691
  709TIP3   OH223617   2.588   6.608  14.394 -0.6670  0.6164 -0.0607
  709TIP3    H123618   2.558   6.542  14.333  2.2874 -0.3402 -0.5566
  709TIP3    H223619   2.508   6.643  14.433 -2.3274 -2.4417 -0.6049
  710TIP3   OH223620   2.820   3.777  15.061  0.2611 -0.2657 -0.0778
  710TIP3    H123621   2.757   3.748  14.995  0.2464  1.4098 -0.8362
  710TIP3    H223622   2.886   3.825  15.011  0.7308  0.2387  1.0151
  711TIP3   OH223623   1.366   3.650   5.897 -0.0959 -0.0898 -0.3909
  711TIP3    H123624   1.287   3.660   5.844 -0.9301 -1.1431  0.6374
  711TIP3    H223625   1.352   3.570   5.947  0.7319  0.8280  1.3685
  712TIP3   OH223626   2.050   6.049   0.262 -0.3068  0.5854  0.0973
  712TIP3    H123627   2.068   6.143   0.268 -1.0019  0.6570  1.1607
  712TIP3    H223628   2.119   6.008   0.313 -0.6405  0.5896  0.5543
  713TIP3   OH223629   6.124   0.234   4.440 -0.0199 -0.6022 -0.1718
  713TIP3    H123630   6.064   0.219   4.513 -0.0717 -1.9584 -0.4868
  713TIP3    H223631   6.202   0.182   4.461  0.4687  0.0009 -0.4739
  714TIP3   OH223632   2.177   5.478  11.789  0.1833  0.4697 -0.0727
  714TIP3    H123633   2.147   5.400  11.836  0.7900  1.7421  2.5094
  714TIP3    H223634   2.097   5.518  11.754 -0.4681  0.4440  1.3897
  715TIP3   OH223635   3.448   0.103   5.622  0.0996  0.3487  0.1135
  715TIP3    H123636   3.537   0.069   5.611 -0.0712  0.4343 -1.8963
  715TIP3    H223637   3.460   0.197   5.636  0.3051  0.5322 -1.2024
  716TIP3   OH223638   5.472   4.746  16.556  0.4459  0.8666 -0.7435
  716TIP3    H123639   5.486   4.815  16.621 -1.4017 -0.2428  0.8969
  716TIP3    H223640   5.560   4.721  16.529  1.3598  0.1947  2.6049
  717TIP3   OH223641   1.842   1.899   5.847 -0.3526  0.1606 -0.5568
  717TIP3    H123642   1.934   1.921   5.828 -0.5136  1.2629 -0.0882
  717TIP3    H223643   1.832   1.809   5.815  1.4710 -0.7261  1.3023
  718TIP3   OH223644   4.708   0.339   5.810 -0.0309  0.2790 -0.5973
  718TIP3    H123645   4.615   0.357   5.801 -0.0717  0.4935  0.2251
  718TIP3    H223646   4.713   0.246   5.828 -0.2024  0.5698  1.0290
  719TIP3   OH223647   5.285   1.158   2.533 -0.2594 -0.2118 -0.1455
  719TIP3    H123648   5.349   1.223   2.564  0.0599 -1.6070  2.2358
  719TIP3    H223649   5.278   1.175   2.439  2.5355  0.9123 -0.2122
  720TIP3   OH223650   3.409   6.315   4.193  0.1660  0.4488  0.0392
  720TIP3    H123651   3.467   6.361   4.131 -1.5697 -0.9374 -2.7076
  720TIP3    H223652   3.335   6.287   4.140  0.3667 -4.0895  1.9661
  721TIP3   OH223653   5.606   5.490   2.769 -0.1354  0.3780 -0.1754
  721TIP3    H123654   5.616   5.584   2.755  0.3502  0.2373 -0.8263
  721TIP3    H223655   5.518   5.470   2.738 -0.5209  0.7482  0.6870
  722TIP3   OH223656   4.772   4.567   3.896  0.1461  0.1341  0.1980
  722TIP3    H123657   4.807   4.518   3.971  1.1191  1.3079  0.5258
  722TIP3    H223658   4.724   4.639   3.936 -1.3400 -0.5647 -0.2875
  723TIP3   OH223659   5.026   4.901   5.222 -0.5824 -0.1351  0.6858
  723TIP3    H123660   5.025   4.855   5.138  1.9586 -0.3733  0.7425
  723TIP3    H223661   4.937   4.934   5.232 -0.7803  0.4181 -2.3865
  724TIP3   OH223662   5.631   1.333  12.754 -0.1128 -0.3359 -0.4550
  724TIP3    H123663   5.634   1.247  12.794 -0.1371 -0.3731 -0.5331
  724TIP3    H223664   5.709   1.337  12.699  1.1596  0.5850  1.3814
  725TIP3   OH223665   5.985   0.161  17.153 -0.1323 -0.1533  0.9067
  725TIP3    H123666   5.930   0.174  17.075  1.1761  0.9169  0.1385
  725TIP3    H223667   5.923   0.159  17.226 -1.1605  1.5733  0.1050
  726TIP3   OH223668   3.177   0.585   5.360 -0.3566 -0.3996 -0.0881
  726TIP3    H123669   3.228   0.508   5.387 -0.2897  0.2472  1.6770
  726TIP3    H223670   3.233   0.629   5.296 -0.0252 -1.3657 -0.4700
  727TIP3   OH223671   0.577   5.735   0.249 -0.1938  0.7909  0.0724
  727TIP3    H123672   0.548   5.695   0.167 -0.2326 -0.7595  0.8217
  727TIP3    H223673   0.527   5.690   0.317 -0.4934  2.3647  0.9321
  728TIP3   OH223674   5.838   3.975   6.125 -0.5649  0.5118 -0.0305
  728TIP3    H123675   5.761   3.982   6.182 -0.6907  1.5194 -0.3183
  728TIP3    H223676   5.903   4.031   6.165 -0.0411 -0.1833  0.0982
  729TIP3   OH223677   0.598   2.596  14.263 -0.4673  0.1181  0.0577
  729TIP3    H123678   0.659   2.576  14.334  0.3167  2.5489  0.1263
  729TIP3    H223679   0.641   2.562  14.184  0.9514  1.6651  0.1261
  730TIP3   OH223680   2.205   6.488   0.594 -0.4313 -0.0847 -0.0474
  730TIP3    H123681   2.253   6.487   0.511 -0.2718  1.0783  0.0204
  730TIP3    H223682   2.130   6.545   0.577 -0.1586  0.5074  0.7423
  731TIP3   OH223683   5.240   4.999   3.257  0.7998 -0.2588 -0.3886
  731TIP3    H123684   5.170   5.061   3.273  0.0680 -0.8859 -1.1326
  731TIP3    H223685   5.313   5.052   3.224 -0.2184  0.0348 -2.1637
  732TIP3   OH223686   2.832   3.463  15.744  0.3846 -0.2504 -0.5454
  732TIP3    H123687   2.750   3.472  15.791 -0.0020 -0.6883 -1.1285
  732TIP3    H223688   2.879   3.393  15.791  0.8034  0.6020  0.3168
  733TIP3   OH223689   5.863   6.614  17.291  0.2717 -0.0703  0.3985
  733TIP3    H123690   5.865   6.693  17.346  0.0861 -0.9404  1.6884
  733TIP3    H223691   5.861   6.647  17.202  0.5108  1.3927  0.9133
  734TIP3   OH223692   4.123   4.676   4.356  0.0396  0.0739 -0.2120
  734TIP3    H123693   4.121   4.596   4.303  0.2874 -0.2026  0.1955
  734TIP3    H223694   4.216   4.696   4.365  0.0450 -0.3888  0.8819
  735TIP3   OH223695   2.591   3.443  10.658  0.1579 -0.0557 -0.5300
  735TIP3    H123696   2.511   3.399  10.631 -0.2263 -0.2392  0.8780
  735TIP3    H223697   2.645   3.374  10.696  1.2970 -0.0718 -2.0936
  736TIP3   OH223698   1.920   6.048  15.976  0.1975 -0.1992 -0.7276
  736TIP3    H123699   1.937   5.966  16.023 -2.0167 -0.7657 -0.8834
  736TIP3    H223700   1.930   6.025  15.884  2.4931  0.4339 -0.6768
  737TIP3   OH223701   1.290   3.397   4.536  0.2964 -0.1646 -0.0872
  737TIP3    H123702   1.233   3.322   4.520  1.0194 -0.8565  0.5020
  737TIP3    H223703   1.232   3.473   4.533 -0.0255 -0.4600 -3.4361
  738TIP3   OH223704   1.139   0.253  14.557  0.4823 -0.4074  0.1777
  738TIP3    H123705   1.156   0.243  14.463  0.5931  1.2516  0.0147
  738TIP3    H223706   1.225   0.259  14.597  0.4245  2.3584 -0.0235
  739TIP3   OH223707   5.891   3.858  15.663 -0.1246  0.8431  0.3391
  739TIP3    H123708   5.815   3.876  15.607  0.9018  1.8500 -0.7748
  739TIP3    H223709   5.868   3.778  15.710 -0.4754 -0.8399 -2.5792
  740TIP3   OH223710   0.925   2.529   3.511  0.1743  0.2967  0.4799
  740TIP3    H123711   0.893   2.439   3.513  1.4682 -0.1781  0.4048
  740TIP3    H223712   0.874   2.574   3.578 -1.1629 -0.2514 -0.1393
  741TIP3   OH223713   4.127   6.205   1.611  0.2206 -0.2888 -0.7287
  741TIP3    H123714   4.044   6.178   1.571 -0.4319  2.7386 -1.5698
  741TIP3    H223715   4.113   6.193   1.705 -1.0897 -0.0898 -0.8762
  742TIP3   OH223716   2.386   5.803   4.993  0.4902 -0.2319  0.3870
  742TIP3    H123717   2.342   5.719   4.999  1.0378 -0.5560 -0.0440
  742TIP3    H223718   2.437   5.798   4.912 -0.7598  1.1304 -0.4988
  743TIP3   OH223719   0.990   5.848  16.485 -0.4751  0.0124  0.5037
  743TIP3    H123720   1.046   5.923  16.466 -0.7321  0.2553  0.7055
  743TIP3    H223721   0.919   5.855  16.422 -0.2845 -0.2881  0.2587
  744TIP3   OH223722   6.202   5.584  12.937  0.5736  0.0875 -0.3354
  744TIP3    H123723   6.260   5.660  12.933  2.1885 -0.8939  2.6409
  744TIP3    H223724   6.251   5.514  12.894  0.3645 -0.0275 -0.3852
  745TIP3   OH223725   2.959   2.108  12.830 -0.1034  0.3624  0.0593
  745TIP3    H123726   3.054   2.122  12.838  0.2313 -2.7354  3.0254
  745TIP3    H223727   2.950   2.013  12.819 -2.8306  0.7883 -1.8161
  746TIP3   OH223728   4.859   6.613   3.469  0.0120 -0.0298  0.1249
  746TIP3    H123729   4.887   6.560   3.394 -1.4695 -0.2667 -0.2627
  746TIP3    H223730   4.897   6.700   3.451  0.8969 -0.4687 -0.1517
  747TIP3   OH223731   2.406   5.999   3.995 -0.3369  0.2012 -0.3528
  747TIP3    H123732   2.501   5.990   4.004 -0.2452  0.5374 -0.9567
  747TIP3    H223733   2.382   6.070   4.054 -0.1119  0.5927 -0.7268
  748TIP3   OH223734   4.775   1.401  14.263 -0.3757 -0.3032 -0.4651
  748TIP3    H123735   4.849   1.454  14.235 -0.7132 -0.3169 -1.4014
  748TIP3    H223736   4.812   1.315  14.281 -0.0170 -0.0643 -0.0489
  749TIP3   OH223737   5.664   0.232  16.573 -0.5095  0.0223  0.0559
  749TIP3    H123738   5.691   0.201  16.486 -0.4300 -1.4510  0.5876
  749TIP3    H223739   5.648   0.325  16.562  0.7815  0.1009 -1.2453
  750TIP3   OH223740   0.552   2.828  16.327  0.2454 -0.3132  0.2375
  750TIP3    H123741   0.508   2.905  16.291  1.3156 -0.1313 -0.7091
  750TIP3    H223742   0.577   2.854  16.416  2.7766  1.3363 -0.8967
  751TIP3   OH223743   0.397   4.151  11.477  0.4998  0.2131 -0.2538
  751TIP3    H123744   0.313   4.105  11.485 -0.6422  2.3746  0.4088
  751TIP3    H223745   0.379   4.222  11.415  1.7808  0.8195  0.0672
  752TIP3   OH223746   1.031   6.578  16.568  0.1802  0.0942  0.1328
  752TIP3    H123747   1.011   6.564  16.476 -0.0045 -1.6264  0.4152
  752TIP3    H223748   0.989   6.661  16.589 -1.1673 -0.2974 -0.9270
  753TIP3   OH223749   4.037   6.214   5.876  0.5403  0.0357 -0.5653
  753TIP3    H123750   3.973   6.285   5.875  0.8207  0.3454  1.2729
  753TIP3    H223751   4.069   6.209   5.786 -0.8796  0.9510 -1.1457
  754TIP3   OH223752   4.104   6.608   4.909 -0.0559  0.1590 -0.5909
  754TIP3    H123753   4.192   6.593   4.876 -0.2486 -0.4044 -0.8417
  754TIP3    H223754   4.111   6.690   4.959  0.4687  0.4501 -1.1306
  755TIP3   OH223755   5.170   1.528   4.842 -0.1492 -0.3438 -0.0119
  755TIP3    H123756   5.143   1.449   4.796 -0.2044 -2.1013  2.9177
  755TIP3    H223757   5.163   1.597   4.777 -0.2567 -2.7108 -2.6010
  756TIP3   OH223758   0.079   2.670   2.733 -0.1077  0.2930  0.4059
  756TIP3    H123759  -0.008   2.699   2.761 -0.2253 -0.1471  0.5116
  756TIP3    H223760   0.082   2.577   2.758  1.0041  0.6999  1.9020
  757TIP3   OH223761   5.990   0.004   3.414  0.2951 -0.7062  0.7669
  757TIP3    H123762   6.071   0.055   3.405 -0.7042  1.5266  3.5601
  757TIP3    H223763   5.922   0.061   3.379 -0.4690 -1.3068  1.2521
  758TIP3   OH223764   0.487   1.791   1.503  0.6860  0.3986  0.0272
  758TIP3    H123765   0.501   1.757   1.591  1.8054  0.2535 -0.1890
  758TIP3    H223766   0.478   1.885   1.514 -1.4556  0.1514  0.5307
  759TIP3   OH223767   6.391   4.400  13.056 -0.1709  0.2350  0.0192
  759TIP3    H123768   6.428   4.449  12.982  0.7726  0.6598  0.7571
  759TIP3    H223769   6.298   4.392  13.036 -0.1520  1.4564 -0.6035
  760TIP3   OH223770   5.822   3.085   1.827  0.1813  0.0444 -0.0607
  760TIP3    H123771   5.911   3.100   1.795  0.0180  2.5369  0.5636
  760TIP3    H223772   5.814   3.142   1.904 -2.4671  1.0064 -1.0013
  761TIP3   OH223773   6.635   5.385  15.043 -0.3157 -0.2525 -0.0709
  761TIP3    H123774   6.602   5.452  14.983  0.1216 -0.1284 -0.1759
  761TIP3    H223775   6.645   5.307  14.989  1.8047  0.3474 -0.5882
  762TIP3   OH223776   0.947   6.543   3.087  0.2187  0.2285 -0.3792
  762TIP3    H123777   1.023   6.599   3.069  0.4096  0.0356 -0.1876
  762TIP3    H223778   0.903   6.534   3.003  0.0169  0.9125 -0.3503
  763TIP3   OH223779   2.930   1.933  11.712  0.6625  0.0895 -0.7536
  763TIP3    H123780   2.999   1.869  11.731  0.8633  0.5578  0.0954
  763TIP3    H223781   2.870   1.926  11.786  0.0236 -0.0005 -1.2741
  764TIP3   OH223782   1.314   4.166   4.406 -0.5932  0.6145  0.3404
  764TIP3    H123783   1.301   4.221   4.330 -0.0709  0.5295  0.1922
  764TIP3    H223784   1.408   4.163   4.419 -0.7017  1.0233  1.2812
  765TIP3   OH223785   5.484   3.573   5.659 -0.2168  0.1729 -0.6379
  765TIP3    H123786   5.406   3.521   5.677  0.7371 -1.2122 -0.4143
  765TIP3    H223787   5.451   3.654   5.622 -1.6818 -1.4401 -3.0043
  766TIP3   OH223788   5.711   1.064   2.126  0.2174  0.2284  0.0586
  766TIP3    H123789   5.791   1.078   2.176  0.6136 -1.3188 -0.1029
  766TIP3    H223790   5.663   0.998   2.177 -0.6528  0.6842 -0.1707
  767TIP3   OH223791   0.185   5.569  17.039  0.1508 -0.1765  0.2402
  767TIP3    H123792   0.155   5.552  17.129  1.0487 -1.1780  0.3512
  767TIP3    H223793   0.220   5.658  17.042 -0.1586 -0.0676  0.7857
  768TIP3   OH223794   6.259   0.268   2.752 -0.2915 -0.4086 -0.1271
  768TIP3    H123795   6.269   0.343   2.810  1.5153 -0.3336 -0.5258
  768TIP3    H223796   6.199   0.298   2.684 -0.4131  0.3095  0.2908
  769TIP3   OH223797   3.830   0.880   3.934  0.3530  0.6827 -0.2537
  769TIP3    H123798   3.835   0.807   3.872 -2.1072 -1.3073  1.7897
  769TIP3    H223799   3.772   0.944   3.892  0.1352  0.1503 -0.7550
  770TIP3   OH223800   6.481   2.430   4.032  0.2892 -0.0680  0.6674
  770TIP3    H123801   6.548   2.366   4.057  1.2978  1.7866  2.8918
  770TIP3    H223802   6.478   2.491   4.105 -1.1978  1.9879 -1.0568
  771TIP3   OH223803   5.144   5.052   6.150  0.2186  0.0627 -0.5265
  771TIP3    H123804   5.169   5.132   6.104  0.8260  1.1612  1.6156
  771TIP3    H223805   5.223   5.025   6.196 -0.9958  0.4788  1.9182
  772TIP3   OH223806   2.302   2.710   3.869  0.1245 -0.0281 -0.1531
  772TIP3    H123807   2.246   2.763   3.812  0.2310 -0.1579 -0.3791
  772TIP3    H223808   2.296   2.753   3.954  2.2238  1.8594 -0.9158
  773TIP3   OH223809   2.250   6.717  16.670 -0.2950  0.0458 -0.1796
  773TIP3    H123810   2.254   6.813  16.660 -0.1355  0.0026 -0.5553
  773TIP3    H223811   2.163   6.700  16.706 -1.0828  0.1788 -1.9740
  774TIP3   OH223812   4.557   1.860  15.144 -0.0139  0.7912 -0.0276
  774TIP3    H123813   4.476   1.812  15.162  0.2768  0.7945  1.3220
  774TIP3    H223814   4.533   1.952  15.157  0.2551  0.7780  0.5661
  775TIP3   OH223815   4.294   0.297   1.250  0.8008  0.3016  0.2605
  775TIP3    H123816   4.202   0.275   1.237  0.3698  1.3769  1.3809
  775TIP3    H223817   4.310   0.370   1.190  1.4661 -1.1748 -1.3835
  776TIP3   OH223818   0.257   0.633   4.792  0.1985 -1.3863 -0.5533
  776TIP3    H123819   0.244   0.538   4.802  2.0176 -1.6048 -0.0769
  776TIP3    H223820   0.341   0.650   4.834 -1.2588  0.8453  1.5686
  777TIP3   OH223821   1.292   6.708   3.572  0.4841 -0.2705 -0.2414
  777TIP3    H123822   1.382   6.710   3.539  0.4772  2.1501 -0.2079
  777TIP3    H223823   1.293   6.765   3.648 -1.0324 -0.4106 -0.1061
  778TIP3   OH223824   2.634   4.436   2.373 -0.2133  0.4176  0.2410
  778TIP3    H123825   2.599   4.356   2.412 -0.6706  0.8767  0.7843
  778TIP3    H223826   2.573   4.455   2.301  0.2032 -0.0195 -0.2277
  779TIP3   OH223827   2.646   4.528   4.743  0.8295  0.1969 -0.6256
  779TIP3    H123828   2.613   4.478   4.817 -0.1457  0.3388 -0.9655
  779TIP3    H223829   2.724   4.480   4.714  0.4861 -0.5504 -0.3074
  780TIP3   OH223830   4.719   6.237   4.020 -0.2537 -0.5621 -0.6748
  780TIP3    H123831   4.650   6.239   3.953  0.9164  1.0137 -1.8832
  780TIP3    H223832   4.682   6.287   4.093  0.2247  1.8456 -2.0030
  781TIP3   OH223833   6.125   5.987   5.516  0.4408  0.2008 -0.4692
  781TIP3    H123834   6.046   6.039   5.531  0.4828  0.3117 -0.6316
  781TIP3    H223835   6.115   5.954   5.427  0.5296  0.1321 -0.4537
  782TIP3   OH223836   3.253   6.467  10.491 -0.4888 -0.0855  0.1771
  782TIP3    H123837   3.176   6.478  10.547 -3.8871 -1.5748 -3.8545
  782TIP3    H223838   3.272   6.374  10.494  2.1402  0.4867  2.2681
  783TIP3   OH223839   3.148   1.027   0.835 -0.1051 -0.5278 -0.0558
  783TIP3    H123840   3.103   1.108   0.859  0.8060  0.3212 -1.1640
  783TIP3    H223841   3.230   1.056   0.796 -0.0371 -1.9676 -1.0015
  784TIP3   OH223842   1.764   6.283   2.021  0.5026 -0.0867  0.2084
  784TIP3    H123843   1.790   6.330   1.942  3.1990 -1.7278  0.0648
  784TIP3    H223844   1.753   6.351   2.087 -0.0624  1.1398 -1.1229
  785TIP3   OH223845   6.382   4.134  10.289  0.4024  0.5032  0.8830
  785TIP3    H123846   6.472   4.106  10.274 -0.0308 -0.1452 -0.5832
  785TIP3    H223847   6.328   4.066  10.249 -0.7282  1.3115  1.0005
  786TIP3   OH223848   0.665   6.494   2.685  0.2706 -0.3459  0.6581
  786TIP3    H123849   0.661   6.451   2.600 -0.7067 -0.6353  0.8447
  786TIP3    H223850   0.630   6.582   2.670 -0.4978 -0.6065  0.8815
  787TIP3   OH223851   6.512   5.024   2.299  0.2179 -0.3376 -0.8868
  787TIP3    H123852   6.526   5.075   2.379  0.1273 -1.0728 -0.4053
  787TIP3    H223853   6.554   5.076   2.230 -0.5764  0.7933 -0.5328
  788TIP3   OH223854   0.128   0.031  14.441 -0.1515 -1.1541 -0.3151
  788TIP3    H123855   0.150   0.088  14.514  2.6372 -0.8316 -1.3744
  788TIP3    H223856   0.175   0.067  14.366 -1.5811 -2.4816 -1.9049
  789TIP3   OH223857   1.090   2.066   3.306  0.1424  0.3574  0.4205
  789TIP3    H123858   1.087   2.155   3.340 -1.5102  0.0322  1.1783
  789TIP3    H223859   1.028   2.018   3.360  0.9232 -1.2349 -0.0645
  790TIP3   OH223860   6.256   2.004   1.227 -0.1132 -0.3748  0.0501
  790TIP3    H123861   6.305   1.922   1.213  2.4794  1.2606 -0.8294
  790TIP3    H223862   6.247   2.009   1.322  0.3537 -1.3303  0.1634
  791TIP3   OH223863   5.204   6.361  12.960 -0.6124  0.1180 -0.3801
  791TIP3    H123864   5.188   6.455  12.947  0.1372  0.2179 -0.5948
  791TIP3    H223865   5.232   6.330  12.874  0.9742  0.0722  0.1475
  792TIP3   OH223866   2.654   6.392   2.236  0.0284  0.1266  0.4822
  792TIP3    H123867   2.702   6.340   2.171 -0.3704 -1.6845  1.6047
  792TIP3    H223868   2.563   6.367   2.225 -0.4167  1.8646 -0.0758
  793TIP3   OH223869   1.541   3.156   3.836 -0.5361 -0.0523 -0.4334
  793TIP3    H123870   1.511   3.246   3.845 -0.8858 -0.1931 -0.1320
  793TIP3    H223871   1.615   3.149   3.896 -2.1383 -0.6690  1.5251
  794TIP3   OH223872   4.351   3.382  15.676  0.0009 -0.0125 -0.1228
  794TIP3    H123873   4.396   3.299  15.660 -1.1121 -1.2083  2.6703
  794TIP3    H223874   4.408   3.430  15.736 -1.4166 -0.6821  1.8093
  795TIP3   OH223875   1.521   1.351   3.529 -0.1087 -0.3056 -0.2101
  795TIP3    H123876   1.485   1.433   3.563  1.7293  0.4295  0.0359
  795TIP3    H223877   1.615   1.368   3.521  0.0289 -1.7271 -2.0531
  796TIP3   OH223878   5.323   5.797   1.328  0.2180 -0.0301 -0.4566
  796TIP3    H123879   5.324   5.783   1.422  0.4374  0.0704 -0.4441
  796TIP3    H223880   5.320   5.892   1.318 -0.3807 -0.0584 -0.5472
  797TIP3   OH223881   5.771   4.433  14.148  0.2068  0.0682  0.4333
  797TIP3    H123882   5.702   4.420  14.214 -0.6779  1.4330 -0.1998
  797TIP3    H223883   5.825   4.503  14.185 -0.1229  0.6329 -0.1511
  798TIP3   OH223884   1.877   0.545  15.560 -0.9551 -0.0473 -0.2578
  798TIP3    H123885   1.794   0.517  15.521 -0.0503 -1.7250 -1.0658
  798TIP3    H223886   1.893   0.631  15.523 -1.8037 -0.1932 -0.9719
  799TIP3   OH223887   4.136   2.088   1.009 -0.1928 -0.1884  0.0857
  799TIP3    H123888   4.159   2.177   1.035 -0.4188 -0.5676  1.6370
  799TIP3    H223889   4.043   2.092   0.987 -0.3238 -0.1404  0.6412
  800TIP3   OH223890   6.489   0.608   3.878  0.3764 -0.8650  0.3144
  800TIP3    H123891   6.538   0.526   3.891 -0.7091 -1.7180 -0.8570
  800TIP3    H223892   6.507   0.659   3.957  3.8000 -0.7957 -0.4277
  801TIP3   OH223893   2.912   5.258  12.973  1.0340  0.1086  0.5042
  801TIP3    H123894   2.823   5.226  12.967 -0.1122  3.1084  0.6589
  801TIP3    H223895   2.933   5.256  13.066  1.2693 -0.8832  0.4393
  802TIP3   OH223896   0.625   5.452  15.084  0.4081  0.5036 -0.8162
  802TIP3    H123897   0.569   5.424  15.012 -1.3747  2.0057 -0.0606
  802TIP3    H223898   0.674   5.527  15.049  0.8862  0.0858 -1.0361
  803TIP3   OH223899   2.184   0.810   5.514  0.0847 -0.1697 -0.0894
  803TIP3    H123900   2.146   0.759   5.443 -2.1113 -0.8354  1.5031
  803TIP3    H223901   2.138   0.894   5.511 -0.2251 -0.3029  0.6918
  804TIP3   OH223902   2.642   4.505  10.617  0.2238 -0.7815  0.2062
  804TIP3    H123903   2.704   4.497  10.544  1.4138  0.1782  1.1028
  804TIP3    H223904   2.662   4.430  10.673 -0.8808 -1.6811 -0.5579
  805TIP3   OH223905   4.524   1.566   3.504 -0.0696  0.0170  0.5798
  805TIP3    H123906   4.589   1.503   3.535  0.3504 -0.1472 -0.6218
  805TIP3    H223907   4.458   1.513   3.459  1.2171  0.5683 -2.0506
  806TIP3   OH223908   5.253   2.269  13.288 -0.3872 -0.6131  0.2872
  806TIP3    H123909   5.194   2.274  13.364  0.0580 -0.6254  0.6357
  806TIP3    H223910   5.251   2.177  13.263 -0.8703 -0.5319  0.0130
  807TIP3   OH223911   6.254   4.977   5.144  0.4305  0.4704  0.1457
  807TIP3    H123912   6.310   4.924   5.200  2.6383  1.2269 -1.2598
  807TIP3    H223913   6.291   4.966   5.056 -1.4632  1.2435 -0.7844
  808TIP3   OH223914   0.947   6.014  13.324 -0.3864 -0.2701  0.1060
  808TIP3    H123915   0.924   5.921  13.316 -1.4155 -0.1383  1.2682
  808TIP3    H223916   0.989   6.035  13.241  0.1051 -1.8446 -0.0695
  809TIP3   OH223917   1.342   0.133  15.603  0.5787  0.2878  0.3392
  809TIP3    H123918   1.308   0.221  15.616  0.0959  0.1108  0.2976
  809TIP3    H223919   1.411   0.123  15.668 -0.1875  0.2601  1.1534
  810TIP3   OH223920   1.352   3.090   0.457 -0.0090 -0.3786 -0.1704
  810TIP3    H123921   1.279   3.149   0.437 -0.1805 -0.0029  1.5227
  810TIP3    H223922   1.315   3.002   0.447  0.6034 -0.2712 -4.0481
  811TIP3   OH223923   6.416   5.177  13.479 -0.0541  0.2442 -0.1090
  811TIP3    H123924   6.471   5.255  13.470 -1.1048  0.9578 -0.5060
  811TIP3    H223925   6.363   5.176  13.398 -0.7952 -0.2851  0.3754
  812TIP3   OH223926   1.614   5.157   2.470 -0.2532  0.2498 -0.0194
  812TIP3    H123927   1.602   5.098   2.544  0.2158 -0.1406 -0.2469
  812TIP3    H223928   1.527   5.164   2.430 -0.8309  1.6679  1.4523
  813TIP3   OH223929   3.615   0.436   4.873 -0.5917  0.3909  0.5157
  813TIP3    H123930   3.703   0.407   4.899 -0.3703  1.1586  0.6616
  813TIP3    H223931   3.621   0.448   4.778 -0.5626  0.3505  0.5132
  814TIP3   OH223932   4.546   2.346  14.091  0.0712  0.4544  0.3459
  814TIP3    H123933   4.460   2.323  14.055 -0.4356  3.1446 -0.2826
  814TIP3    H223934   4.529   2.423  14.145  2.1128  1.1632  0.0172
  815TIP3   OH223935   6.335   4.221  14.235  0.1584 -0.3675 -0.0509
  815TIP3    H123936   6.369   4.253  14.319  0.5001 -0.8683  0.0098
  815TIP3    H223937   6.409   4.174  14.196  0.1627  0.3212 -0.8806
  816TIP3   OH223938   6.441   5.469   0.578 -0.1328 -0.2635 -0.0972
  816TIP3    H123939   6.461   5.387   0.624 -1.3004 -0.5079 -0.0014
  816TIP3    H223940   6.443   5.536   0.646 -0.0011 -0.3461 -0.0211
  817TIP3   OH223941   4.110   0.214  17.253 -0.1469  0.3653  1.0558
  817TIP3    H123942   4.192   0.261  17.271 -0.0187  0.0358  1.3500
  817TIP3    H223943   4.122   0.130  17.297 -0.3601  0.0438  0.4884
  818TIP3   OH223944   3.208   5.626   3.314 -0.2312  0.1886  0.5055
  818TIP3    H123945   3.210   5.531   3.300  0.6804  0.3112 -0.2680
  818TIP3    H223946   3.267   5.661   3.247 -0.6174  1.3085  0.7421
  819TIP3   OH223947   3.809   0.411   0.399  0.1387 -0.0723 -0.0120
  819TIP3    H123948   3.817   0.482   0.335  1.1080  0.9700  1.2322
  819TIP3    H223949   3.788   0.334   0.347  0.4753  0.8475 -1.5394
  820TIP3   OH223950   1.391   1.674  13.570 -0.2440 -0.0903  0.3116
  820TIP3    H123951   1.455   1.735  13.535 -0.9979  0.6816  0.2568
  820TIP3    H223952   1.322   1.671  13.503 -0.3244 -0.8069  0.4262
  821TIP3   OH223953   5.793   1.805  16.031 -0.1166  0.7048 -0.1741
  821TIP3    H123954   5.839   1.878  15.990 -0.9953  1.4706  0.1983
  821TIP3    H223955   5.851   1.778  16.103  2.0700 -1.5148 -2.6649
  822TIP3   OH223956   2.704   2.630  14.364 -0.0086 -1.2821  0.3471
  822TIP3    H123957   2.667   2.545  14.341 -0.3022 -1.1000  0.1409
  822TIP3    H223958   2.718   2.673  14.280 -0.8223 -0.7235  0.4941
  823TIP3   OH223959   0.582   4.598   4.303  0.6644  0.1453 -0.2051
  823TIP3    H123960   0.588   4.603   4.398  0.2977 -0.9922 -0.1119
  823TIP3    H223961   0.673   4.588   4.273  0.6039 -2.1495  0.2214
  824TIP3   OH223962   4.112   0.748   0.949  0.0200  0.0943 -0.1880
  824TIP3    H123963   4.082   0.801   1.023 -0.8949 -0.5513 -0.0879
  824TIP3    H223964   4.038   0.691   0.929  0.5468 -0.2715 -1.1045
  825TIP3   OH223965   6.621   0.384   3.927  0.4367  0.7998  0.3563
  825TIP3    H123966   6.611   0.303   3.877 -0.3305  0.4525  1.0491
  825TIP3    H223967   6.674   0.360   4.003 -0.3894  0.7789  0.9329
  826TIP3   OH223968   0.765   2.287  12.304  0.3601  0.0436 -0.0934
  826TIP3    H123969   0.855   2.307  12.331 -0.1247  0.8662  0.9626
  826TIP3    H223970   0.712   2.310  12.380 -0.4968 -2.9319  0.2437
  827TIP3   OH223971   2.038   2.312   4.813  0.0597  0.7056 -0.3120
  827TIP3    H123972   1.943   2.323   4.816 -0.3823 -2.3208 -1.0978
  827TIP3    H223973   2.050   2.222   4.781  3.1900  1.2112 -0.6843
  828TIP3   OH223974   5.262   6.716   3.539 -0.6004 -0.3284  0.4812
  828TIP3    H123975   5.264   6.621   3.537 -0.0103 -0.3461  1.4498
  828TIP3    H223976   5.201   6.741   3.470  1.1497 -1.3318 -1.4714
  829TIP3   OH223977   1.693   4.492   6.421 -0.3733 -0.0076  1.3667
  829TIP3    H123978   1.601   4.493   6.394  0.6027  0.5321 -2.0598
  829TIP3    H223979   1.723   4.581   6.407  1.3498 -0.7853  0.0643
  830TIP3   OH223980   2.556   0.521   4.600  0.0025  1.0041  0.4774
  830TIP3    H123981   2.645   0.487   4.596 -0.4744 -0.1562 -0.5958
  830TIP3    H223982   2.562   0.610   4.566  0.9949  1.4561  1.8020
  831TIP3   OH223983   5.526   3.995   2.077 -0.0041  0.2980  0.4998
  831TIP3    H123984   5.457   4.012   2.141 -0.2881  0.1761  0.2274
  831TIP3    H223985   5.608   4.000   2.128 -0.0512  2.6156  0.4030
  832TIP3   OH223986   0.853   4.522   2.387  0.1705 -0.6088  0.2503
  832TIP3    H123987   0.902   4.457   2.336 -1.7041 -0.2788 -2.0201
  832TIP3    H223988   0.920   4.583   2.418  1.3652 -0.7948 -1.8605
  833TIP3   OH223989   0.560   4.763   1.629 -0.2588  0.1196 -0.5864
  833TIP3    H123990   0.482   4.713   1.653 -0.0556  0.6284  1.1957
  833TIP3    H223991   0.589   4.802   1.711  1.6366  0.2747 -1.3204
  834TIP3   OH223992   0.662   3.042   3.436 -0.0364 -0.4206  0.5319
  834TIP3    H123993   0.715   2.962   3.439 -0.1267 -0.4317  2.5822
  834TIP3    H223994   0.574   3.014   3.459 -0.6536 -0.1553 -1.4328
  835TIP3   OH223995   4.285   2.764   0.998 -0.6974 -0.5154 -0.3266
  835TIP3    H123996   4.304   2.822   1.072 -0.5254  0.2982 -1.0001
  835TIP3    H223997   4.319   2.811   0.922  0.4327 -2.0036 -0.7589
  836TIP3   OH223998   5.954   5.022  14.015  0.1691 -0.8175  0.0490
  836TIP3    H123999   5.912   5.000  13.932 -1.5045  0.7360  0.4248
  836TIP3    H224000   6.046   5.032  13.994 -0.2105 -0.6392 -1.5937
  837TIP3   OH224001   4.783   4.806  12.221  0.7565  0.1082  0.4947
  837TIP3    H124002   4.772   4.901  12.209 -0.7472 -0.0479  0.6468
  837TIP3    H224003   4.822   4.776  12.139  2.2870  1.0237  0.8607
  838TIP3   OH224004   5.263   3.510   0.621 -0.1047  0.7894 -0.3580
  838TIP3    H124005   5.242   3.591   0.668 -0.6925  1.0161 -1.0158
  838TIP3    H224006   5.180   3.481   0.583  0.4794  0.9217 -1.7678
  839TIP3   OH224007   1.470   6.261  15.526  1.0232  0.1763  0.4467
  839TIP3    H124008   1.377   6.237  15.523  0.7515  1.2239  0.2554
  839TIP3    H224009   1.504   6.214  15.602  0.3294 -0.1971  0.5334
  840TIP3   OH224010   4.245   1.087   4.281 -0.0113  0.7459 -0.2901
  840TIP3    H124011   4.273   1.042   4.360 -0.9459  0.1607 -0.2806
  840TIP3    H224012   4.290   1.042   4.210  1.4048  1.7434 -0.0423
  841TIP3   OH224013   3.115   4.616  12.091 -0.0035 -0.3606  0.1869
  841TIP3    H124014   3.175   4.548  12.059  0.5731 -0.4371  1.4144
  841TIP3    H224015   3.127   4.616  12.185 -2.1882 -0.6184  0.5000
  842TIP3   OH224016   2.389   5.085   5.136  0.1921  0.0085 -0.4932
  842TIP3    H124017   2.442   5.042   5.069  1.7885 -0.7691  1.2286
  842TIP3    H224018   2.335   5.147   5.087  1.3098 -0.5570 -2.5083
  843TIP3   OH224019   4.796   6.785   4.148  0.0598  0.0973  0.5459
  843TIP3    H124020   4.786   6.694   4.177 -0.8251 -0.0206 -0.1355
  843TIP3    H224021   4.878   6.785   4.098 -0.0322 -0.3534  0.3926
  844TIP3   OH224022   0.641   5.988   6.754 -0.5204  0.0955  0.1163
  844TIP3    H124023   0.551   6.006   6.782 -0.6817 -0.4243 -0.0686
  844TIP3    H224024   0.692   6.059   6.792 -0.8628 -0.1688  1.0885
  845TIP3   OH224025   2.670   5.114  12.973 -0.8320  0.6241  0.3073
  845TIP3    H124026   2.658   5.119  13.068 -1.1392  0.1206  0.2931
  845TIP3    H224027   2.599   5.167  12.937 -0.4773  1.1520  0.3641
  846TIP3   OH224028   2.350   5.664   0.552 -0.3776  0.0900  0.8029
  846TIP3    H124029   2.329   5.745   0.598  0.5885  0.7698  0.0684
  846TIP3    H224030   2.267   5.637   0.512 -0.9867  0.0300  2.0705
  847TIP3   OH224031   6.263   3.059  12.369  0.6563 -0.1916  0.4432
  847TIP3    H124032   6.194   3.064  12.435  0.1800 -0.8663 -0.0023
  847TIP3    H224033   6.344   3.076  12.417  0.1353  1.0421  0.8884
  848TIP3   OH224034   1.038   3.271  14.570 -0.4124 -0.2273 -0.2193
  848TIP3    H124035   0.958   3.240  14.612 -0.1704 -0.0300  0.3988
  848TIP3    H224036   1.072   3.194  14.524 -1.4692 -0.0530 -1.3100
  849TIP3   OH224037   1.566   0.648  12.300 -0.0113 -0.2961  0.0101
  849TIP3    H124038   1.552   0.713  12.369  2.1315 -1.1441  1.2715
  849TIP3    H224039   1.478   0.616  12.280 -1.0759  2.7020 -0.4026
  850TIP3   OH224040   0.730   2.995   2.125 -0.2330 -0.2905 -0.3294
  850TIP3    H124041   0.670   3.063   2.153 -0.4024 -0.4802 -0.2341
  850TIP3    H224042   0.792   3.040   2.067 -0.4229 -0.0830 -0.3716
  851TIP3   OH224043   4.626   6.697  14.173  0.4607  0.6246  0.1930
  851TIP3    H124044   4.719   6.687  14.150  1.1514  0.2118  3.0239
  851TIP3    H224045   4.603   6.615  14.217 -1.1266  0.9295 -0.0361
  852TIP3   OH224046   0.634   2.916  14.586 -0.5375  0.6166  0.0580
  852TIP3    H124047   0.582   2.941  14.662  0.3199  1.9274  0.2511
  852TIP3    H224048   0.637   2.996  14.533 -0.2878  0.0063 -0.8552
  853TIP3   OH224049   5.729   2.532   4.460  0.0065 -0.2133  0.6876
  853TIP3    H124050   5.659   2.517   4.397  1.0770 -0.5406 -0.4272
  853TIP3    H224051   5.708   2.618   4.498 -1.1839 -0.4664  0.6285
  854TIP3   OH224052   2.903   4.613  16.053 -0.2501  0.1685 -0.2633
  854TIP3    H124053   2.948   4.574  15.978 -1.6285 -0.9793 -0.5314
  854TIP3    H224054   2.821   4.564  16.059 -0.2099  0.3261  1.9300
  855TIP3   OH224055   0.840   6.670  15.009  0.7678 -0.7630 -0.2499
  855TIP3    H124056   0.869   6.727  14.938  0.1487  0.0446  0.1463
  855TIP3    H224057   0.745   6.678  15.010  0.7259 -1.2581  0.2730
  856TIP3   OH224058   3.987   1.680   1.999  0.2764 -0.2451  0.2175
  856TIP3    H124059   4.066   1.727   1.972 -0.8506  1.1118 -0.7845
  856TIP3    H224060   3.980   1.698   2.092  0.9691 -0.1043  0.2522
  857TIP3   OH224061   0.504   4.466  11.657  0.3265 -0.2057 -0.2795
  857TIP3    H124062   0.421   4.478  11.702  1.2998  0.8426  1.2743
  857TIP3    H224063   0.569   4.457  11.727  2.2224  3.8383 -1.3499
  858TIP3   OH224064   3.711   1.301  10.967 -0.2281  0.4994 -0.3655
  858TIP3    H124065   3.618   1.311  10.948 -1.1958 -2.1949  2.4637
  858TIP3    H224066   3.741   1.236  10.904 -0.8734 -0.4329  0.2676
  859TIP3   OH224067   5.487   5.052   1.436 -0.2795 -0.2564 -0.1693
  859TIP3    H124068   5.506   5.023   1.347  0.9863  0.2757 -0.0838
  859TIP3    H224069   5.539   5.132   1.447 -0.7772 -0.0717  0.8851
  860TIP3   OH224070   3.289   3.541   3.765  0.2678  0.3700 -0.4609
  860TIP3    H124071   3.211   3.494   3.735  1.1634 -0.4047 -1.6402
  860TIP3    H224072   3.290   3.621   3.713  0.9394 -0.2185 -1.3742
  861TIP3   OH224073   0.152   4.997   4.981  0.7973 -0.2073  0.4396
  861TIP3    H124074   0.166   4.907   4.951  2.1836  0.2482 -0.3514
  861TIP3    H224075   0.091   5.034   4.917  1.1521 -0.2474  0.0697
  862TIP3   OH224076   4.622   2.843   4.536  0.4417  0.0396  0.0312
  862TIP3    H124077   4.668   2.829   4.453  3.2067  1.3554  1.2753
  862TIP3    H224078   4.558   2.913   4.516 -0.5821 -1.3062 -1.5381
  863TIP3   OH224079   2.873   1.109  15.810 -0.2121  0.0136  0.2357
  863TIP3    H124080   2.878   1.014  15.819  1.5562 -0.0255 -0.9057
  863TIP3    H224081   2.914   1.143  15.890  1.1557 -0.2149 -0.3551
  864TIP3   OH224082   3.263   4.255  11.967  0.0840  0.5729  0.2965
  864TIP3    H124083   3.197   4.296  11.910  1.7406  1.0617 -1.3394
  864TIP3    H224084   3.216   4.235  12.048 -1.9997  1.1540 -0.7243
  865TIP3   OH224085   1.671   0.573   2.921  0.5274  0.3097 -0.2452
  865TIP3    H124086   1.756   0.539   2.948  0.3901  0.4224  0.3173
  865TIP3    H224087   1.692   0.651   2.868  0.7893  0.0460 -0.5312
  866TIP3   OH224088   4.465   4.198   5.795 -0.0001  0.0135 -0.6034
  866TIP3    H124089   4.522   4.228   5.724 -0.1504  0.0428 -0.7120
  866TIP3    H224090   4.524   4.180   5.868  0.4049 -2.0196 -1.3798
  867TIP3   OH224091   0.951   3.295  16.929 -0.2579  0.1176  0.5127
  867TIP3    H124092   0.910   3.322  17.011  0.3183 -0.9685  1.1677
  867TIP3    H224093   0.958   3.200  16.936 -1.1855 -0.0979 -1.2575
  868TIP3   OH224094   5.195   2.275  11.780 -0.4397  0.3100  0.3827
  868TIP3    H124095   5.144   2.230  11.713  0.2597 -1.8293  1.2303
  868TIP3    H224096   5.278   2.295  11.738 -0.6124  0.4582  0.1119
  869TIP3   OH224097   4.248   1.383   4.922  0.2810  0.2996 -0.4148
  869TIP3    H124098   4.275   1.468   4.958  1.2664  0.4930 -1.5894
  869TIP3    H224099   4.281   1.319   4.985  1.2528  0.6811 -0.5251
  870TIP3   OH224100   1.503   2.948  16.997 -0.1141 -0.1553  0.0402
  870TIP3    H124101   1.570   2.891  17.036  0.4900 -0.0555 -0.8408
  870TIP3    H224102   1.510   2.932  16.903 -0.8179  0.4317 -0.1168
  871TIP3   OH224103   5.918   1.946  10.396  0.7930  0.2912 -0.4237
  871TIP3    H124104   5.823   1.948  10.409  0.7492 -0.7416 -0.5258
  871TIP3    H224105   5.931   1.967  10.304  0.5852 -0.7621 -0.6988
  872TIP3   OH224106   3.577   6.277   2.169  0.0049  0.3341  0.1946
  872TIP3    H124107   3.490   6.316   2.152 -0.3586 -1.0062 -1.1400
  872TIP3    H224108   3.586   6.281   2.264 -1.5357  0.4777  0.3624
  873TIP3   OH224109   5.622   1.096   1.363 -0.2444 -0.5931 -0.4304
  873TIP3    H124110   5.707   1.135   1.343  0.3675 -0.9983  1.3099
  873TIP3    H224111   5.625   1.011   1.319 -0.2264 -0.1362 -1.3407
  874TIP3   OH224112   3.335   2.370  12.239 -0.6505  0.4430  0.6922
  874TIP3    H124113   3.355   2.401  12.151 -1.4594  0.5536  0.5482
  874TIP3    H224114   3.343   2.448  12.294 -0.6780  0.4816  0.6413
  875TIP3   OH224115   1.555   2.981   6.098 -0.4002  1.3850  0.4236
  875TIP3    H124116   1.620   2.962   6.166 -0.5118 -4.9899 -0.8964
  875TIP3    H224117   1.472   2.953   6.136 -0.7779 -0.0804 -1.3998
  876TIP3   OH224118   6.127   6.459  15.948 -0.3044 -0.1102  0.1673
  876TIP3    H124119   6.200   6.408  15.914  0.9017  0.6613  1.5391
  876TIP3    H224120   6.089   6.405  16.018  0.1449  0.2956  0.7288
  877TIP3   OH224121   5.624   4.861   5.237  0.1603 -0.4287  0.2242
  877TIP3    H124122   5.538   4.897   5.260 -0.1538 -0.2835 -1.0981
  877TIP3    H224123   5.625   4.773   5.275 -0.0069  0.0899  1.4558
  878TIP3   OH224124   1.511   2.033   0.412 -0.3936 -0.0238  0.3085
  878TIP3    H124125   1.514   2.112   0.466 -0.7543  1.7738 -2.2480
  878TIP3    H224126   1.585   1.980   0.443  0.4419  1.7291  1.3975
  879TIP3   OH224127   6.141   4.993  13.629 -0.3298  0.0221 -0.0871
  879TIP3    H124128   6.224   4.995  13.677  0.4611  1.8939 -1.4666
  879TIP3    H224129   6.159   4.936  13.554  0.7095  2.8035 -2.0395
  880TIP3   OH224130   0.594   5.828  14.312  0.2414 -0.4709  0.1371
  880TIP3    H124131   0.584   5.824  14.217  1.3221  1.1052 -0.0632
  880TIP3    H224132   0.527   5.891  14.340  0.6815 -0.0554  0.2720
  881TIP3   OH224133   1.952   3.326  14.931 -0.4478  0.0983  0.0125
  881TIP3    H124134   1.924   3.256  14.871  0.8269  0.5398 -1.1295
  881TIP3    H224135   1.892   3.398  14.912 -0.1024  0.2090 -0.7048
  882TIP3   OH224136   4.144   2.097   4.676 -0.3777  0.0386  0.3052
  882TIP3    H124137   4.220   2.151   4.653  0.1030  0.0684  1.8997
  882TIP3    H224138   4.074   2.160   4.693 -0.0496  0.1301  1.3379
  883TIP3   OH224139   6.242   3.763  14.140 -0.3886 -0.0523 -0.3259
  883TIP3    H124140   6.229   3.850  14.104 -0.5233 -0.2691 -0.8032
  883TIP3    H224141   6.322   3.731  14.098  1.6669  1.1959  2.4354
  884TIP3   OH224142   5.462   2.750   6.138 -0.4279  0.3000  0.3791
  884TIP3    H124143   5.479   2.751   6.232 -0.8070  0.2479  0.4479
  884TIP3    H224144   5.419   2.666   6.122  1.3977 -0.5559 -0.1566
  885TIP3   OH224145   0.052   2.275   4.512 -0.1910  0.4640  0.3519
  885TIP3    H124146   0.070   2.255   4.604  0.5598 -0.1638  0.0619
  885TIP3    H224147   0.048   2.371   4.509  0.9303  0.5331  0.8283
  886TIP3   OH224148   1.645   6.745  15.534  0.1777 -0.4774  0.1070
  886TIP3    H124149   1.728   6.765  15.490 -1.4489 -0.1023 -2.9936
  886TIP3    H224150   1.627   6.654  15.510 -1.5860  0.2663 -1.5864
  887TIP3   OH224151   5.383   3.586   1.909 -0.5614  0.1885  0.0320
  887TIP3    H124152   5.373   3.590   1.814 -0.5072  1.9290  0.0800
  887TIP3    H224153   5.476   3.606   1.925 -1.3165  3.4353  0.6162
  888TIP3   OH224154   1.876   3.099   2.598 -0.3041 -0.4177  0.0639
  888TIP3    H124155   1.931   3.155   2.652 -0.6067 -1.3958  1.4277
  888TIP3    H224156   1.822   3.159   2.547 -1.0184  0.5283  1.9052
  889TIP3   OH224157   0.442   5.599   1.129 -0.1907 -0.1759  0.2574
  889TIP3    H124158   0.433   5.665   1.198 -0.6113 -0.0247  0.0599
  889TIP3    H224159   0.425   5.516   1.174  0.8575 -0.1990  0.6147
  890TIP3   OH224160   4.771   2.824  13.573  0.3761  0.2761  0.4974
  890TIP3    H124161   4.687   2.865  13.549  0.4161  0.8965  1.4075
  890TIP3    H224162   4.762   2.803  13.666  0.8310 -0.6430  0.3359
  891TIP3   OH224163   0.183   6.176   4.214  0.4639  0.1684  0.2975
  891TIP3    H124164   0.146   6.119   4.146  0.9764 -0.4132  0.4973
  891TIP3    H224165   0.247   6.230   4.168 -0.5356  1.1080 -0.0320
  892TIP3   OH224166   1.098   4.848   2.173 -0.1220 -0.4195  0.3908
  892TIP3    H124167   1.033   4.913   2.197 -0.2178  0.4192 -2.0616
  892TIP3    H224168   1.047   4.770   2.150 -0.2608  0.0465 -0.9359
  893TIP3   OH224169   1.636   0.044   2.695 -0.0692  0.7958  0.1187
  893TIP3    H124170   1.591   0.097   2.760 -1.9175 -0.4538 -0.1039
  893TIP3    H224171   1.568  -0.011   2.657  1.7788 -1.7218  0.3189
  894TIP3   OH224172   4.973   3.978  13.899  0.0240 -0.2463  0.4519
  894TIP3    H124173   4.987   4.071  13.881 -0.6718 -0.2183  0.0498
  894TIP3    H224174   4.968   3.937  13.813  1.2430 -0.7987  0.6326
  895TIP3   OH224175   1.325   3.804  14.309 -0.3398 -0.0803  0.1737
  895TIP3    H124176   1.332   3.749  14.232  1.5581 -1.6507  1.4104
  895TIP3    H224177   1.231   3.820  14.320 -0.7368 -1.2913 -1.4263
  896TIP3   OH224178   1.723   3.580   2.439 -0.1324  0.4584  1.3155
  896TIP3    H124179   1.653   3.541   2.388 -0.9694  1.9886  1.2641
  896TIP3    H224180   1.803   3.537   2.409 -0.8298  0.1084 -0.0236
  897TIP3   OH224181   5.331   3.660   2.425  0.1246 -0.6886 -0.0124
  897TIP3    H124182   5.295   3.678   2.338 -0.8298 -2.1528  0.0718
  897TIP3    H224183   5.401   3.596   2.409 -0.7463 -1.7482  0.4087
  898TIP3   OH224184   2.615   4.683   0.877  0.1645  0.3134  0.0203
  898TIP3    H124185   2.679   4.612   0.879 -0.6614 -0.4648 -0.8381
  898TIP3    H224186   2.659   4.753   0.828  1.0931  0.5258  1.1330
  899TIP3   OH224187   4.447   1.995  12.757  0.1815  0.2667 -0.2074
  899TIP3    H124188   4.440   1.900  12.744  0.6429  0.3384 -1.0182
  899TIP3    H224189   4.532   2.007  12.799 -0.8510  0.1305  2.0127
  900TIP3   OH224190   3.066   2.107  15.609  0.0285  0.5565 -0.2655
  900TIP3    H124191   3.105   2.026  15.578  0.5414 -0.3877  2.6653
  900TIP3    H224192   3.130   2.175  15.588 -0.0920  0.1378 -2.0855
  901TIP3   OH224193   3.542   2.423   5.693  0.2452 -0.4994  0.4988
  901TIP3    H124194   3.599   2.476   5.747 -1.2443  0.3182  1.2914
  901TIP3    H224195   3.546   2.336   5.732  0.2151 -0.2243  1.1163
  902TIP3   OH224196   2.696   3.396  12.984 -0.5826 -0.6980  0.3391
  902TIP3    H124197   2.717   3.342  12.908 -1.5368  1.4070 -1.4546
  902TIP3    H224198   2.658   3.476  12.948 -0.9564  0.4017  3.0230
  903TIP3   OH224199   5.306   1.277   1.574  0.3310 -0.1693  0.5395
  903TIP3    H124200   5.244   1.344   1.544  1.4298 -0.2353 -2.0650
  903TIP3    H224201   5.300   1.279   1.669 -0.5284  2.8262  0.4753
  904TIP3   OH224202   3.997   5.189  16.680 -0.3720  0.6283  0.1302
  904TIP3    H124203   4.032   5.105  16.710  2.4446  1.7077 -0.0063
  904TIP3    H224204   3.973   5.173  16.588 -0.0741 -0.0937  0.1708
  905TIP3   OH224205   1.651   4.820  14.983 -0.7877  0.6278 -0.4729
  905TIP3    H124206   1.691   4.787  14.902  1.2091 -2.1202  1.5050
  905TIP3    H224207   1.691   4.905  14.996  2.7373 -1.0315  0.1570
  906TIP3   OH224208   5.784   3.995  11.735  0.1867  0.0906 -0.1847
  906TIP3    H124209   5.827   3.926  11.785  2.0136  1.0380 -0.3821
  906TIP3    H224210   5.723   3.949  11.678  0.6612 -1.2685  0.3740
  907TIP3   OH224211   6.306   2.655  13.115  0.2837  0.1367  0.2379
  907TIP3    H124212   6.354   2.661  13.033  0.3596 -0.2792  0.2526
  907TIP3    H224213   6.255   2.736  13.119 -1.3399 -0.7767 -1.2552
  908TIP3   OH224214   1.858   4.251   2.578 -0.6653  0.1831 -0.8545
  908TIP3    H124215   1.890   4.314   2.643  0.6713 -0.7222 -0.6109
  908TIP3    H224216   1.847   4.170   2.628 -0.3136 -0.3275 -1.6126
  909TIP3   OH224217   3.690   2.664  13.416  0.4443 -0.3236 -0.1222
  909TIP3    H124218   3.695   2.694  13.325 -0.4428  0.6914  0.1618
  909TIP3    H224219   3.668   2.571  13.409 -3.2699  0.5544 -0.9011
  910TIP3   OH224220   5.364   1.687   0.184  0.0310  0.0204  0.5214
  910TIP3    H124221   5.298   1.619   0.197 -0.5141  0.4889  0.2317
  910TIP3    H224222   5.447   1.639   0.178 -0.6934 -0.9683 -3.1770
  911TIP3   OH224223   4.512   5.654   5.865  0.3439 -0.1821 -0.1132
  911TIP3    H124224   4.513   5.659   5.960 -2.0439  0.2096 -0.0760
  911TIP3    H224225   4.510   5.560   5.846  2.4423 -0.3076  0.1539
  912TIP3   OH224226   0.004   3.068  13.254  0.0324 -0.1791 -0.5240
  912TIP3    H124227  -0.017   3.056  13.162 -0.5615  1.0296 -0.5616
  912TIP3    H224228  -0.057   3.136  13.284 -1.1194 -1.9529  1.2506
  913TIP3   OH224229   5.073   2.346  15.001  0.7516  0.4087 -0.7821
  913TIP3    H124230   5.005   2.309  15.057  1.4639 -0.5688 -0.5516
  913TIP3    H224231   5.058   2.306  14.915  0.0662  1.3997 -1.1267
  914TIP3   OH224232   2.879   0.656   4.140  0.5224 -0.4974 -0.5487
  914TIP3    H124233   2.801   0.705   4.115 -0.3929 -1.2046  0.8838
  914TIP3    H224234   2.951   0.705   4.101 -0.4553  1.4657  0.0731
  915TIP3   OH224235   1.596   6.097   1.576  0.1020  0.4922  0.1582
  915TIP3    H124236   1.519   6.125   1.526  0.8685  2.5110  0.0656
  915TIP3    H224237   1.563   6.031   1.636 -1.3152 -0.1491 -1.2769
  916TIP3   OH224238   3.278   3.298  17.229  0.8242 -0.5108 -0.3267
  916TIP3    H124239   3.264   3.207  17.201 -0.7811 -0.2728 -0.3171
  916TIP3    H224240   3.365   3.296  17.271  1.6215 -1.6367 -1.9701
  917TIP3   OH224241   1.943   6.556   0.120 -0.0677  0.4874  0.4138
  917TIP3    H124242   1.873   6.574   0.181  0.6615  1.3672  1.0022
  917TIP3    H224243   1.940   6.628   0.057 -0.0652  0.2154  0.0966
  918TIP3   OH224244   3.987   4.871   2.712  0.2004 -0.4552 -0.2140
  918TIP3    H124245   3.900   4.906   2.729  0.4937  0.0032  0.3885
  918TIP3    H224246   3.984   4.841   2.621 -0.1771  0.7787 -0.6116
  919TIP3   OH224247   0.672   6.668   2.389 -1.0727 -0.6095  0.5761
  919TIP3    H124248   0.645   6.666   2.298 -0.0576 -1.2169  0.2714
  919TIP3    H224249   0.706   6.580   2.406  1.7487  0.4183  0.5870
  920TIP3   OH224250   2.953   5.213  14.239 -0.1180 -0.3360 -0.1993
  920TIP3    H124251   2.892   5.141  14.217 -1.2242  0.1141  1.3115
  920TIP3    H224252   3.003   5.179  14.313 -0.7527  0.4925  0.6209
  921TIP3   OH224253   0.408   1.060  12.225  0.1618 -0.5300  0.0179
  921TIP3    H124254   0.313   1.061  12.216  0.0793  2.3114  0.8338
  921TIP3    H224255   0.424   1.091  12.314  1.8518 -0.8328 -0.1652
  922TIP3   OH224256   5.062   4.158   3.693  0.3356  0.1139  0.1828
  922TIP3    H124257   5.036   4.146   3.784 -0.7637  0.5390 -0.0678
  922TIP3    H224258   5.085   4.070   3.662 -0.5138 -0.2224  0.5017
  923TIP3   OH224259   3.546   2.421   3.009  0.5539  0.3810 -0.1247
  923TIP3    H124260   3.464   2.407   3.056  0.1229  3.7535  0.3068
  923TIP3    H224261   3.532   2.383   2.923 -0.7447 -0.7719  0.5672
  924TIP3   OH224262   4.735   6.504  14.533 -0.5965  0.1129 -0.5245
  924TIP3    H124263   4.735   6.599  14.547  2.4597 -0.2534  2.3478
  924TIP3    H224264   4.719   6.467  14.620 -0.7110 -2.0622 -1.4398
  925TIP3   OH224265   1.174   0.863  16.459 -0.2874 -0.3367 -0.6449
  925TIP3    H124266   1.145   0.867  16.368 -0.7619 -0.4975 -0.5006
  925TIP3    H224267   1.141   0.780  16.491 -1.9192  0.6401  0.2697
  926TIP3   OH224268   3.928   6.552  10.834 -0.2759 -0.5897  0.1182
  926TIP3    H124269   3.837   6.541  10.861 -0.1429 -0.0297  0.8198
  926TIP3    H224270   3.952   6.639  10.866 -0.2308  0.2861 -2.2016
  927TIP3   OH224271   0.504   1.833  14.758 -0.6525  0.2740 -0.0697
  927TIP3    H124272   0.503   1.848  14.852 -0.5255 -0.1791  0.0051
  927TIP3    H224273   0.457   1.750  14.747 -0.2017  0.0576 -0.3579
  928TIP3   OH224274   5.572   0.825  14.693  0.4091 -0.4492 -0.4763
  928TIP3    H124275   5.537   0.744  14.657 -1.2685 -0.0812  0.2322
  928TIP3    H224276   5.585   0.881  14.616 -3.6051  0.5103 -0.6086
  929TIP3   OH224277   2.447   1.484   1.741 -0.3831  0.1025  0.3358
  929TIP3    H124278   2.472   1.408   1.793  2.2142  0.6895 -0.0046
  929TIP3    H224279   2.356   1.467   1.715  0.2984 -3.0757 -0.1101
  930TIP3   OH224280   5.668   1.974   5.939 -0.3800  0.2070 -0.0142
  930TIP3    H124281   5.721   2.042   5.898  0.2189  0.8199  1.7540
  930TIP3    H224282   5.718   1.947   6.015 -2.4360  0.5680  1.5011
  931TIP3   OH224283   1.114   3.639  14.897 -0.1210 -0.0824 -0.2081
  931TIP3    H124284   1.047   3.614  14.834  0.2916  0.3034 -0.7951
  931TIP3    H224285   1.077   3.613  14.982 -0.4251 -1.1411 -0.6535
  932TIP3   OH224286   1.797   6.799   5.804  0.2289 -0.4620  0.1525
  932TIP3    H124287   1.887   6.811   5.773 -0.2489  0.4037 -0.9294
  932TIP3    H224288   1.798   6.714   5.848  1.6497 -0.3231  0.4260
  933TIP3   OH224289   3.673   1.036  14.314  0.0703  0.0839 -0.6610
  933TIP3    H124290   3.589   1.025  14.270  0.9377  0.8831 -2.5693
  933TIP3    H224291   3.653   1.086  14.393 -1.6153 -1.9437  0.2461
  934TIP3   OH224292   3.223   2.659  12.681  0.3346  0.5636 -0.0299
  934TIP3    H124293   3.201   2.587  12.740  0.1604  0.5897 -0.0652
  934TIP3    H224294   3.186   2.633  12.597  0.9085  0.3480 -0.2221
  935TIP3   OH224295   2.272   1.893   1.091 -0.8279  0.6386 -0.2548
  935TIP3    H124296   2.176   1.885   1.090 -0.9927  2.2470  0.6131
  935TIP3    H224297   2.297   1.894   0.998 -1.5399 -0.8503 -0.4758
  936TIP3   OH224298   2.295   0.956   6.261 -0.0836  0.3335 -0.3624
  936TIP3    H124299   2.265   0.906   6.337  2.7151  0.7641  1.0829
  936TIP3    H224300   2.389   0.938   6.256 -0.0024  1.2602 -3.0360
  937TIP3   OH224301   1.464   0.072  16.988  0.3676 -0.0571 -0.3970
  937TIP3    H124302   1.476   0.116  17.072 -1.9295 -0.5876  0.2344
  937TIP3    H224303   1.549   0.031  16.970  0.8365 -0.0664  1.7162
  938TIP3   OH224304   0.646   0.486   4.947  0.3241  0.0311 -0.2749
  938TIP3    H124305   0.695   0.534   5.015  2.3917 -0.4172 -1.4185
  938TIP3    H224306   0.665   0.533   4.866 -0.3536 -0.7451 -0.8890
  939TIP3   OH224307   4.800   2.936   5.566 -0.6970 -0.0556  0.3244
  939TIP3    H124308   4.719   2.900   5.529 -1.0134  0.4799  0.5005
  939TIP3    H224309   4.779   2.953   5.658  0.3554 -2.2509  1.0336
  940TIP3   OH224310   5.078   1.482  17.168  0.1594 -0.0807  0.2908
  940TIP3    H124311   5.088   1.409  17.106  1.4811 -0.7121  1.2336
  940TIP3    H224312   4.989   1.472  17.202 -0.4945  0.1322 -1.3212
  941TIP3   OH224313   1.471   3.282  14.774 -0.2652  0.0159 -0.2324
  941TIP3    H124314   1.558   3.312  14.746  0.2956  1.2201  2.6463
  941TIP3    H224315   1.417   3.361  14.771 -0.7500 -0.3154 -0.0852
  942TIP3   OH224316   4.037   3.206   3.363 -0.2408  0.6844 -0.2791
  942TIP3    H124317   4.119   3.241   3.330 -1.0053  3.6775  0.8182
  942TIP3    H224318   4.050   3.202   3.458 -0.2076 -2.0282 -0.3663
  943TIP3   OH224319   2.646   1.097  12.733  0.1301 -0.1615 -0.3447
  943TIP3    H124320   2.667   1.084  12.825 -1.4983  0.3494  0.1231
  943TIP3    H224321   2.613   1.012  12.703  1.1948 -0.4819 -0.6094
  944TIP3   OH224322   5.741   5.769  16.001 -0.5324 -0.2454 -0.5848
  944TIP3    H124323   5.668   5.820  16.037 -0.3530 -0.6588  0.3620
  944TIP3    H224324   5.769   5.820  15.925 -0.8620  0.6694 -0.1085
  945TIP3   OH224325   1.268   6.041   5.242 -0.1216 -0.0205  0.0079
  945TIP3    H124326   1.176   6.017   5.258  0.3609 -1.8154  0.2226
  945TIP3    H224327   1.275   6.048   5.147 -0.2506 -0.9372 -0.0789
  946TIP3   OH224328   5.803   1.702   4.119  0.1132 -0.0953 -0.2904
  946TIP3    H124329   5.893   1.729   4.106  0.0434 -0.1884 -0.9564
  946TIP3    H224330   5.754   1.783   4.134 -0.1114  0.1599 -2.3558
  947TIP3   OH224331   2.134   5.099  17.207 -0.4483  0.4818  0.5711
  947TIP3    H124332   2.132   5.082  17.113  3.0637  1.5869  0.2536
  947TIP3    H224333   2.059   5.156  17.223 -0.9430  0.4453 -1.5835
  948TIP3   OH224334   2.025   2.567   2.196 -0.2029  0.4104  0.2758
  948TIP3    H124335   2.054   2.596   2.282 -2.5105  1.8949  0.5889
  948TIP3    H224336   1.968   2.638   2.165 -0.0752 -0.4886 -2.1085
  949TIP3   OH224337   0.214   6.150  14.531  0.0229 -0.4831 -1.0061
  949TIP3    H124338   0.264   6.101  14.595  1.5797  0.1111 -1.7346
  949TIP3    H224339   0.191   6.232  14.576 -1.6494 -1.3988 -0.1542
  950TIP3   OH224340   1.158   3.171   4.396 -0.4544 -0.0479  0.9452
  950TIP3    H124341   1.081   3.127   4.431 -1.0749  2.4705  2.9108
  950TIP3    H224342   1.140   3.181   4.303 -1.4580 -1.4885  0.9631
  951TIP3   OH224343   1.747   2.588  13.817 -0.5660 -0.7520 -0.1547
  951TIP3    H124344   1.806   2.557  13.886  0.5239 -1.5589 -1.4173
  951TIP3    H224345   1.805   2.622  13.749 -1.6844  1.7703  0.1033
  952TIP3   OH224346   1.799   6.550   5.918 -0.1704  0.5712 -0.8961
  952TIP3    H124347   1.814   6.527   6.010 -0.5691 -0.1993 -1.0198
  952TIP3    H224348   1.847   6.484   5.868  0.0659  1.0036 -1.2454
  953TIP3   OH224349   6.153   2.901   4.501 -0.0249  0.1000  0.1363
  953TIP3    H124350   6.081   2.853   4.460  1.2729 -2.0407  0.2980
  953TIP3    H224351   6.129   2.993   4.492 -2.3747 -0.5592 -0.5439
  954TIP3   OH224352   2.128   5.305   0.720  0.0480 -0.5340 -0.8528
  954TIP3    H124353   2.129   5.218   0.758  0.0451 -0.0795  0.2000
  954TIP3    H224354   2.211   5.312   0.673  0.5434 -0.6927 -0.0051
  955TIP3   OH224355   5.763   2.774  14.630  0.0072 -0.5242 -0.0538
  955TIP3    H124356   5.715   2.783  14.711 -0.2068 -1.2928 -0.0929
  955TIP3    H224357   5.711   2.714  14.576 -0.4194  0.8418 -1.1945
  956TIP3   OH224358   0.293   6.683   0.495  0.0135 -0.0959  0.5004
  956TIP3    H124359   0.210   6.663   0.451  0.3817  0.3339 -0.3900
  956TIP3    H224360   0.329   6.757   0.447  2.0938 -1.8203 -0.6460
  957TIP3   OH224361   5.004   5.615   2.847  0.4257  0.5124  0.2160
  957TIP3    H124362   5.046   5.578   2.769 -0.2610  0.6305 -0.2153
  957TIP3    H224363   5.040   5.564   2.920  2.1303  1.3331 -0.0326
  958TIP3   OH224364   3.523   0.709   1.789  0.0390  0.0475 -1.0732
  958TIP3    H124365   3.573   0.708   1.871  0.0427 -0.7353 -1.0816
  958TIP3    H224366   3.494   0.800   1.780  0.5270  0.2634 -0.5006
  959TIP3   OH224367   0.887   1.476   3.147  0.1793 -0.2789  0.8077
  959TIP3    H124368   0.850   1.466   3.059  2.6528 -0.4617 -0.2547
  959TIP3    H224369   0.880   1.569   3.166 -0.9093 -0.3275  0.6640
  960TIP3   OH224370   0.230   3.320   1.705 -0.7282 -0.5493  0.2178
  960TIP3    H124371   0.162   3.296   1.768  0.9028 -1.0894  1.8330
  960TIP3    H224372   0.228   3.415   1.702 -2.3018 -0.6012 -0.6029
  961TIP3   OH224373   0.599   4.010  12.563  0.6973 -0.6771 -0.4868
  961TIP3    H124374   0.580   4.094  12.605  1.5420  0.2122 -1.8307
  961TIP3    H224375   0.551   3.946  12.615 -0.4980  0.7138  0.1628
  962TIP3   OH224376   6.407   6.541  14.560 -0.2720 -0.2256  0.2188
  962TIP3    H124377   6.463   6.618  14.570 -2.0250  1.2885 -1.4260
  962TIP3    H224378   6.323   6.575  14.533 -1.7260 -2.5844  1.5663
  963TIP3   OH224379   5.080   3.718   5.195 -0.1863 -0.3003  0.4602
  963TIP3    H124380   5.138   3.647   5.167  0.4590  0.4709 -0.1986
  963TIP3    H224381   5.134   3.797   5.189 -0.9900  0.2909  0.8796
  964TIP3   OH224382   0.962   6.026   6.129 -0.6457 -0.2126  0.1755
  964TIP3    H124383   1.007   6.070   6.057  0.5196 -1.6767 -0.0209
  964TIP3    H224384   0.947   6.095   6.194 -1.0920  0.9771 -1.1597
  965TIP3   OH224385   1.155   1.891  15.318 -0.2076 -0.0630  0.2273
  965TIP3    H124386   1.127   1.884  15.227  0.7650  0.0461 -0.0933
  965TIP3    H224387   1.225   1.825  15.327  2.5717  2.7017 -0.2605
  966TIP3   OH224388   6.359   6.805   5.468 -0.0661 -0.2011  0.2492
  966TIP3    H124389   6.415   6.878   5.494 -1.1424  0.8313 -0.2889
  966TIP3    H224390   6.270   6.841   5.468 -0.3046 -0.6132 -3.1157
  967TIP3   OH224391   4.108   0.964  15.939  0.0521 -0.0989  0.1102
  967TIP3    H124392   4.101   0.978  16.033  0.2168  0.2595  0.0699
  967TIP3    H224393   4.028   1.003  15.903  0.4688  0.6767  0.0063
  968TIP3   OH224394   3.407   3.306  11.475  0.3996 -0.2607  0.4132
  968TIP3    H124395   3.496   3.318  11.507 -0.2934  2.5071  1.4410
  968TIP3    H224396   3.369   3.240  11.533  1.3502 -0.4043  0.8743
  969TIP3   OH224397   2.277   1.669   2.511 -0.4019 -0.4946 -0.9469
  969TIP3    H124398   2.226   1.750   2.502 -0.3388 -0.0783  1.8414
  969TIP3    H224399   2.289   1.659   2.606  1.6150 -2.5258 -1.3720
  970TIP3   OH224400   6.478   0.996   4.115 -0.1885 -0.3536 -0.3471
  970TIP3    H124401   6.479   0.904   4.143  2.5228 -0.2390 -0.0065
  970TIP3    H224402   6.568   1.016   4.092 -0.7863  2.1794 -0.6604
  971TIP3   OH224403   2.670   6.380  12.190  0.4556 -0.0221 -0.3217
  971TIP3    H124404   2.740   6.328  12.151  2.1783  2.4455 -0.6664
  971TIP3    H224405   2.598   6.375  12.127  0.7843 -1.5444 -0.5862
  972TIP3   OH224406   6.652   2.906   0.711 -0.1399 -0.3033 -0.1669
  972TIP3    H124407   6.745   2.882   0.709  0.9892  3.6698 -0.1828
  972TIP3    H224408   6.646   2.969   0.782 -3.2670 -1.9256  1.0630
  973TIP3   OH224409   3.240   1.595  16.217  0.3335 -0.2098  0.2669
  973TIP3    H124410   3.174   1.546  16.265 -1.1740  1.5103  0.0158
  973TIP3    H224411   3.217   1.687  16.232  0.8224  0.3834 -2.3327
  974TIP3   OH224412   3.866   0.582  15.622  0.9672 -0.6816 -0.2862
  974TIP3    H124413   3.779   0.609  15.593  0.0162 -0.9433  2.1857
  974TIP3    H224414   3.878   0.495  15.583 -0.2347 -1.0013  0.0187
  975TIP3   OH224415   3.713   1.283   5.165  0.1854  0.5129 -0.0683
  975TIP3    H124416   3.636   1.331   5.195  0.4754  0.2667  1.1032
  975TIP3    H224417   3.743   1.331   5.087 -0.3561  1.3959  0.2614
  976TIP3   OH224418   4.283   0.793  15.821  0.6950 -0.5645  0.6085
  976TIP3    H124419   4.234   0.757  15.747  0.1089  1.9716 -0.2927
  976TIP3    H224420   4.215   0.822  15.883  1.1485 -0.9447  1.2936
  977TIP3   OH224421   1.721   2.178   0.234  0.0885 -0.5022 -0.1497
  977TIP3    H124422   1.666   2.142   0.305 -0.0710  0.8479  0.4284
  977TIP3    H224423   1.706   2.119   0.161  0.4862 -2.1019  1.0310
  978TIP3   OH224424   0.258   0.454  17.224 -0.3407  0.0422  0.3956
  978TIP3    H124425   0.181   0.509  17.215 -1.3644 -1.5414 -0.8845
  978TIP3    H224426   0.226   0.371  17.260  0.7023 -0.7150 -0.3559
  979TIP3   OH224427   6.673   5.961  12.027 -0.2402 -0.6374  0.3292
  979TIP3    H124428   6.660   6.037  12.083  0.2235  0.4562 -1.0147
  979TIP3    H224429   6.767   5.958  12.011 -0.2739 -1.3924  0.2331
  980TIP3   OH224430   1.785   4.594   5.849  0.1491  0.4157  0.1803
  980TIP3    H124431   1.839   4.631   5.920 -0.0067  1.3361 -0.1779
  980TIP3    H224432   1.734   4.525   5.892  0.2741  0.7672  0.9063
  981TIP3   OH224433   4.151   2.765   4.134  0.4199  0.0356  0.3217
  981TIP3    H124434   4.104   2.685   4.113  1.5006 -0.8571  1.2476
  981TIP3    H224435   4.083   2.828   4.157 -0.4690 -0.4437 -0.9568
  982TIP3   OH224436   2.360   1.115  14.091 -0.7585 -0.0106  0.6221
  982TIP3    H124437   2.365   1.021  14.110 -0.4602  0.2721  2.0631
  982TIP3    H224438   2.423   1.154  14.152  1.0913  0.9014 -1.8168
  983TIP3   OH224439   2.785   3.494   0.460 -0.3730  0.8423 -0.6728
  983TIP3    H124440   2.715   3.508   0.396 -1.9442  0.3201  0.8942
  983TIP3    H224441   2.771   3.563   0.526  0.0829  0.2412  0.0577
  984TIP3   OH224442   3.384   1.304  16.125 -0.3484  0.6375 -0.5005
  984TIP3    H124443   3.400   1.326  16.033  1.6072 -1.2695 -0.6447
  984TIP3    H224444   3.440   1.364  16.174  0.7511 -0.2236 -0.6808
  985TIP3   OH224445   1.327   2.442  11.362  0.3701 -0.4997  0.0537
  985TIP3    H124446   1.333   2.405  11.274 -1.3358 -0.7539  0.0179
  985TIP3    H224447   1.321   2.366  11.420  0.3915 -0.3197  0.2940
  986TIP3   OH224448   6.279   5.160  15.160  0.1998  0.4377  0.3019
  986TIP3    H124449   6.226   5.238  15.177  0.1902  0.1261  1.8239
  986TIP3    H224450   6.343   5.159  15.232  0.3681 -0.8078  0.1411
  987TIP3   OH224451   5.120   2.739   2.911  0.0470 -0.4468 -0.3804
  987TIP3    H124452   5.097   2.651   2.941 -2.0675 -0.0364 -0.7124
  987TIP3    H224453   5.064   2.797   2.962  1.5335  0.7283 -0.0546
  988TIP3   OH224454   1.606   1.668   6.773  0.4741  0.5998  0.8788
  988TIP3    H124455   1.641   1.756   6.787 -1.5940  1.2287  2.3043
  988TIP3    H224456   1.647   1.614   6.841 -0.5286  1.1365  1.9389
  989TIP3   OH224457   0.772   2.205  12.054 -0.4826  0.0472  0.1382
  989TIP3    H124458   0.850   2.151  12.069  0.1929  0.7304 -0.7786
  989TIP3    H224459   0.762   2.256  12.134 -0.6863 -0.8829  0.7179
  990TIP3   OH224460   4.167   5.165   1.933 -0.0480  0.1160 -0.1501
  990TIP3    H124461   4.157   5.074   1.905  1.6148 -1.1010  2.9927
  990TIP3    H224462   4.114   5.171   2.013 -0.0877  1.9127 -0.3014
  991TIP3   OH224463   6.093   0.032   2.675  0.2546  0.2047  0.3328
  991TIP3    H124464   6.071   0.119   2.708 -2.0603 -0.9367  1.9377
  991TIP3    H224465   6.056   0.029   2.587 -0.4737  0.5315  0.6260
  992TIP3   OH224466   3.165   5.820   5.153 -0.1137  0.3505 -0.0615
  992TIP3    H124467   3.139   5.912   5.158  2.1895  1.1588 -2.3032
  992TIP3    H224468   3.238   5.812   5.214 -1.9228 -0.6499  2.0699
  993TIP3   OH224469   0.656   0.591  13.156 -0.7553  0.2356 -0.0809
  993TIP3    H124470   0.629   0.663  13.212  1.3537 -0.6337  2.1521
  993TIP3    H224471   0.584   0.580  13.094 -2.3601  2.3742  1.3378
  994TIP3   OH224472   3.633   1.619  16.860 -0.2473 -0.3893  0.3285
  994TIP3    H124473   3.626   1.601  16.766  1.1644 -1.3660  0.3952
  994TIP3    H224474   3.576   1.694  16.875  1.0439  1.0400 -1.6803
  995TIP3   OH224475   2.791   4.731   4.529 -0.0159  0.0959  0.2753
  995TIP3    H124476   2.732   4.806   4.525 -1.4832 -1.1094 -1.6334
  995TIP3    H224477   2.752   4.673   4.594 -0.6061 -0.4100 -0.5209
  996TIP3   OH224478   4.313   2.717  14.720  0.5478  0.1850 -0.2278
  996TIP3    H124479   4.320   2.811  14.708  0.2512  0.0657 -1.3783
  996TIP3    H224480   4.249   2.707  14.792  0.2664  0.8442 -0.3849
  997TIP3   OH224481   3.024   6.325  13.775 -0.5504 -0.0554  0.1881
  997TIP3    H124482   3.024   6.318  13.870 -2.1600  2.1867  0.4168
  997TIP3    H224483   2.941   6.285  13.748 -0.6349  0.3310 -0.1431
  998TIP3   OH224484   3.298   4.352  13.088  0.1305  0.3116 -0.0683
  998TIP3    H124485   3.281   4.380  12.998 -0.6474 -0.7843 -0.2751
  998TIP3    H224486   3.388   4.319  13.086  0.3402  0.8703 -0.2820
  999TIP3   OH224487   5.613   3.447  16.337  0.3000 -0.1707  0.5185
  999TIP3    H124488   5.665   3.527  16.343  0.0671  0.1883 -1.6141
  999TIP3    H224489   5.598   3.436  16.243 -1.4651 -1.5603  0.9405
 1000TIP3   OH224490   3.401   0.571  11.669 -0.5191 -0.3059 -0.4226
 1000TIP3    H124491   3.362   0.514  11.736  0.6892  0.1585  0.7060
 1000TIP3    H224492   3.378   0.530  11.586 -1.8517 -1.0270  0.2876
 1001TIP3   OH224493   2.898   3.525  11.294  0.1567 -0.1385  0.3369
 1001TIP3    H124494   2.966   3.580  11.333  0.0068  0.0507  0.3335
 1001TIP3    H224495   2.853   3.583  11.233 -1.0402  0.2002  1.4996
 1002TIP3   OH224496   1.927   2.238  17.069  0.0748  0.0500  0.0198
 1002TIP3    H124497   1.998   2.175  17.082 -0.7814 -1.0508 -0.4923
 1002TIP3    H224498   1.952   2.314  17.122  1.6165 -0.3276 -0.1518
 1003TIP3   OH224499   5.633   1.404  15.950 -0.1341 -0.0395 -0.4579
 1003TIP3    H124500   5.602   1.373  15.865  0.8871  1.1657 -1.2895
 1003TIP3    H224501   5.726   1.424  15.936 -0.4157  2.0259  0.3981
 1004TIP3   OH224502   2.275   2.719  15.779 -0.1859 -0.3437  0.7146
 1004TIP3    H124503   2.286   2.629  15.808  0.9436  0.9727  4.8769
 1004TIP3    H224504   2.361   2.759  15.792 -1.1156  1.7436  0.7488
 1005TIP3   OH224505   3.170   1.114  11.379 -0.3012  0.1573 -0.2847
 1005TIP3    H124506   3.163   1.019  11.386 -0.8381  0.3615  2.3720
 1005TIP3    H224507   3.197   1.129  11.288  0.5320 -2.5553 -0.5386
 1006TIP3   OH224508   0.388   3.167   2.985 -0.1612 -0.0787  0.5833
 1006TIP3    H124509   0.475   3.199   2.960  0.4513 -1.0619  1.4452
 1006TIP3    H224510   0.399   3.133   3.074 -1.4592 -0.0778  0.7543
 1007TIP3   OH224511   3.493   5.360   0.857 -0.1606 -0.0406 -0.4795
 1007TIP3    H124512   3.525   5.442   0.820  0.0636 -0.0142 -0.2308
 1007TIP3    H224513   3.554   5.341   0.928 -1.6298  0.8555  1.0524
 1008TIP3   OH224514   5.578   2.766  14.852  0.0865  0.2637 -0.4552
 1008TIP3    H124515   5.564   2.845  14.905  0.4940  1.1172 -1.5845
 1008TIP3    H224516   5.620   2.704  14.911 -1.3412  0.4631  0.7850
 1009TIP3   OH224517   3.533   4.203   0.818  0.0983 -0.2181 -0.2545
 1009TIP3    H124518   3.470   4.266   0.784 -0.2556 -0.3168  0.2158
 1009TIP3    H224519   3.618   4.248   0.814 -0.2591  0.5401  0.7643
 1010TIP3   OH224520   5.859   0.027   0.104 -0.0867 -0.0634 -0.2778
 1010TIP3    H124521   5.811   0.014   0.185 -0.5363  0.0254 -0.5265
 1010TIP3    H224522   5.926   0.092   0.126 -1.7654  1.8328 -0.5777
 1011TIP3   OH224523   1.099   2.156  11.815  0.0352  0.2088  0.0838
 1011TIP3    H124524   1.176   2.131  11.764  0.2865 -0.2181  0.6723
 1011TIP3    H224525   1.036   2.187  11.749  0.0243 -1.1894 -0.5981
 1012TIP3   OH224526   6.559   5.964   1.327  0.5016  0.4895 -0.6785
 1012TIP3    H124527   6.582   5.919   1.245 -0.2502  0.6783 -0.9918
 1012TIP3    H224528   6.602   5.912   1.395 -1.1340 -1.2783 -0.9385
 1013TIP3   OH224529   0.827   1.122   1.683 -0.2758  0.0173  0.6771
 1013TIP3    H124530   0.809   1.141   1.775 -3.1178  0.0147  0.1623
 1013TIP3    H224531   0.893   1.186   1.657 -1.0665  1.4325  2.1386
 1014TIP3   OH224532   0.019   2.387  17.072 -0.2466 -0.7047  0.4699
 1014TIP3    H124533  -0.070   2.376  17.039 -0.6499  1.2673  0.8892
 1014TIP3    H224534   0.033   2.481  17.074  2.1445 -1.0159 -0.3284
 1015TIP3   OH224535   1.002   4.886   1.560 -0.1575 -0.5780 -0.3855
 1015TIP3    H124536   0.992   4.791   1.573  1.2071 -0.5643  0.7893
 1015TIP3    H224537   0.972   4.925   1.642  0.5487 -0.0637 -0.3682
 1016TIP3   OH224538   1.072   0.099   0.463 -0.0580  0.4660  1.0616
 1016TIP3    H124539   1.068   0.107   0.558  0.6004  1.6880  0.9960
 1016TIP3    H224540   1.030   0.015   0.444 -2.9391  1.5614  2.2101
 1017TIP3   OH224541   4.488   0.189  12.158  0.0044  0.2306  0.1226
 1017TIP3    H124542   4.494   0.110  12.211 -0.3036  0.7355  0.9142
 1017TIP3    H224543   4.571   0.234  12.172 -0.5218  0.9208  1.0691
 1018TIP3   OH224544   0.779   0.477   2.648 -0.6398 -0.2636  0.3220
 1018TIP3    H124545   0.797   0.457   2.740  0.0196  0.1026  0.2778
 1018TIP3    H224546   0.855   0.528   2.619 -2.3141  2.4064  0.4701
 1019TIP3   OH224547   2.734   0.624   3.594 -0.2901  0.6198 -0.6350
 1019TIP3    H124548   2.654   0.620   3.541 -0.2061 -1.8248 -0.6126
 1019TIP3    H224549   2.702   0.640   3.683 -0.7787 -0.6607 -0.5761
 1020TIP3   OH224550   3.097   4.462  14.221 -0.3762 -0.0969  0.3324
 1020TIP3    H124551   3.170   4.524  14.216 -0.3025 -0.2587 -0.7699
 1020TIP3    H224552   3.083   4.448  14.315  0.6962  0.2993  0.5517
 1021TIP3   OH224553   6.649   2.331  13.640  0.1941  0.5835  0.8075
 1021TIP3    H124554   6.678   2.413  13.682  3.1957 -0.3695  0.7231
 1021TIP3    H224555   6.711   2.318  13.569 -0.8066 -1.3229  0.2720
 1022TIP3   OH224556   2.772   0.349   1.558  0.4154  0.0290  0.3139
 1022TIP3    H124557   2.852   0.323   1.511 -0.6547  0.0034 -1.5766
 1022TIP3    H224558   2.742   0.427   1.511 -2.1104 -1.5133 -0.7351
 1023TIP3   OH224559   4.656   5.106   3.859  0.2156  0.3928  0.0009
 1023TIP3    H124560   4.651   5.099   3.955  3.0885  0.3896  0.1855
 1023TIP3    H224561   4.747   5.084   3.838 -0.4288  0.2133 -2.7633
 1024TIP3   OH224562   1.174   2.639  12.915  0.1192  0.4640  0.0019
 1024TIP3    H124563   1.246   2.675  12.966  0.4933  0.1525 -0.2995
 1024TIP3    H224564   1.103   2.628  12.978  0.5134  0.2577  0.4163
 1025TIP3   OH224565   0.969   0.665   2.264  0.1344  0.4608  0.1910
 1025TIP3    H124566   0.876   0.645   2.249  0.1201  0.6222  0.0647
 1025TIP3    H224567   0.981   0.751   2.226  0.8302 -0.4407 -1.6914
 1026TIP3   OH224568   3.054   1.819  12.440  0.0586  0.1193  0.0109
 1026TIP3    H124569   3.039   1.734  12.401 -0.4191  0.4270 -0.4826
 1026TIP3    H224570   2.967   1.852  12.463  0.1119  1.1031 -1.1472
 1027TIP3   OH224571   6.400   1.247  10.485  0.8708 -0.3286 -0.2995
 1027TIP3    H124572   6.391   1.320  10.547 -0.0911 -0.8866  0.2283
 1027TIP3    H224573   6.320   1.196  10.496  0.4904 -0.2179 -2.3002
 1028TIP3   OH224574   3.440   1.948   5.130 -0.2319 -0.4032 -0.5774
 1028TIP3    H124575   3.467   2.000   5.206 -0.6216 -0.0363 -0.6869
 1028TIP3    H224576   3.416   2.013   5.064  0.9342 -0.7190 -1.3249
 1029TIP3   OH224577   4.129   0.165   3.650  0.0502 -0.1805 -0.5507
 1029TIP3    H124578   4.140   0.255   3.619  0.0972  0.0321  0.0721
 1029TIP3    H224579   4.050   0.134   3.607  1.3780 -0.6960 -2.7166
 1030TIP3   OH224580   0.233   5.763  14.190  0.0976 -0.5027 -0.5838
 1030TIP3    H124581   0.213   5.719  14.107  2.6998 -0.4655 -1.2823
 1030TIP3    H224582   0.222   5.856  14.171  1.5337 -0.4406 -1.1504
 1031TIP3   OH224583   0.862   2.825   3.421 -0.3346 -1.0049  0.3169
 1031TIP3    H124584   0.941   2.771   3.415  0.7055  0.4045  0.9204
 1031TIP3    H224585   0.872   2.872   3.504  0.1276  2.1263 -1.4231
 1032TIP3   OH224586   2.947   0.222  12.279 -0.9676  0.2847  0.3581
 1032TIP3    H124587   2.930   0.141  12.327  0.0986 -0.6991 -0.9165
 1032TIP3    H224588   2.900   0.213  12.197  0.3649  0.3107 -0.4226
 1033TIP3   OH224589   0.398   6.785   5.867 -0.0086  0.2424 -0.0217
 1033TIP3    H124590   0.334   6.736   5.816  0.9923 -0.0544 -1.0322
 1033TIP3    H224591   0.424   6.857   5.810  0.0727  0.7347  0.6354
 1034TIP3   OH224592   1.611   1.362  16.137 -0.0813  0.3122  0.1564
 1034TIP3    H124593   1.605   1.343  16.231  1.0009  0.9630  0.3632
 1034TIP3    H224594   1.522   1.347  16.104 -0.0617 -1.6933  0.9445
 1035TIP3   OH224595   1.031   1.049   3.934  0.5353 -0.1039 -0.5785
 1035TIP3    H124596   1.078   0.968   3.953  0.5686  0.3831  1.6103
 1035TIP3    H224597   1.100   1.112   3.911  0.8754  0.2593  1.3364
 1036TIP3   OH224598   3.078   1.861  15.305 -0.6965  0.0212  0.5939
 1036TIP3    H124599   3.007   1.923  15.322 -2.3977 -1.7242  0.0719
 1036TIP3    H224600   3.132   1.863  15.383 -0.6611  2.2307  0.5413
 1037TIP3   OH224601   1.923   5.200   0.320 -0.2680 -0.2905  0.0304
 1037TIP3    H124602   2.009   5.168   0.292  0.2017  1.9139 -1.1807
 1037TIP3    H224603   1.898   5.143   0.393  2.4034 -0.7370  0.6498
 1038TIP3   OH224604   5.714   6.689   3.374 -0.1477  0.2304 -0.1381
 1038TIP3    H124605   5.688   6.663   3.462 -0.9623 -1.7332 -0.9146
 1038TIP3    H224606   5.795   6.640   3.358 -0.5291 -0.1985 -0.8144
 1039TIP3   OH224607   6.299   2.167  13.990  0.1293 -0.3643  0.0359
 1039TIP3    H124608   6.271   2.236  14.050  0.4178  0.4801 -0.7868
 1039TIP3    H224609   6.338   2.214  13.917  3.9840 -1.4593  1.2588
 1040TIP3   OH224610   1.927   6.055   3.485 -0.0985 -0.7203  0.1598
 1040TIP3    H124611   1.866   6.111   3.534  0.1787 -0.5968  0.3661
 1040TIP3    H224612   1.986   6.020   3.552  1.9050  1.4819 -0.3761
 1041TIP3   OH224613   5.907   1.690  16.240 -0.0864 -0.2622  0.0074
 1041TIP3    H124614   5.939   1.684  16.329  0.3960  0.6896 -0.0981
 1041TIP3    H224615   5.950   1.618  16.194  0.5612 -0.0423  0.2662
 1042TIP3   OH224616   2.764   5.931   5.496  0.2392 -0.2163 -0.3257
 1042TIP3    H124617   2.769   5.986   5.418  0.4675 -1.5762 -1.2926
 1042TIP3    H224618   2.776   5.991   5.569  0.1992  1.0467 -1.3490
 1043TIP3   OH224619   6.036   3.766  15.896  0.8106  0.3983 -0.2604
 1043TIP3    H124620   6.057   3.819  15.973  3.9015 -0.5959 -0.3366
 1043TIP3    H224621   6.010   3.828  15.829  1.1725  1.5221  0.6342
 1044TIP3   OH224622   0.004   2.240   5.219 -0.1945  0.1669 -0.2549
 1044TIP3    H124623   0.010   2.331   5.187 -2.5651  0.5322  0.2272
 1044TIP3    H224624   0.045   2.243   5.305 -0.3952  0.8281 -0.1744
 1045TIP3   OH224625   1.591   4.005  11.890  0.7114 -0.4771  0.1208
 1045TIP3    H124626   1.561   3.949  11.818 -2.2075  2.1696 -0.8396
 1045TIP3    H224627   1.550   3.967  11.968 -0.0031 -0.5857 -0.3074
 1046TIP3   OH224628   5.580   5.716   2.029  0.0289 -0.1423  0.2031
 1046TIP3    H124629   5.656   5.671   2.066 -0.8026 -1.9904 -0.2732
 1046TIP3    H224630   5.543   5.654   1.967 -0.1176  1.9164 -1.8408
 1047TIP3   OH224631   1.206   2.962  14.398 -0.4884  0.2524  0.6674
 1047TIP3    H124632   1.172   2.875  14.417  0.5549 -0.0739  1.0435
 1047TIP3    H224633   1.221   3.001  14.484 -1.8102  1.1591  0.5149
 1048TIP3   OH224634   5.551   2.773   2.866  0.1531 -0.4213 -0.7739
 1048TIP3    H124635   5.512   2.861   2.866  0.2622 -0.3710 -0.4962
 1048TIP3    H224636   5.537   2.741   2.955  1.2565 -0.1717 -0.5008
 1049TIP3   OH224637   4.503   2.107  13.842  0.3903  0.1708 -0.4479
 1049TIP3    H124638   4.442   2.043  13.878  0.7094 -0.7650 -1.5574
 1049TIP3    H224639   4.447   2.168  13.794  0.2329 -0.0921 -0.5978
 1050TIP3   OH224640   0.619   2.735   2.024  0.1092 -0.0530 -0.5726
 1050TIP3    H124641   0.667   2.815   2.045  0.3853  0.0009 -1.4091
 1050TIP3    H224642   0.669   2.695   1.953 -0.5223 -0.5135 -0.7597
 1051TIP3   OH224643   4.367   0.362   3.019 -0.1193  0.0369  0.1407
 1051TIP3    H124644   4.396   0.432   3.078  1.8621 -0.8553  0.2752
 1051TIP3    H224645   4.302   0.403   2.963  0.6406  1.8550  0.5613
 1052TIP3   OH224646   3.975   1.465   3.072  0.4752 -0.4383  0.8951
 1052TIP3    H124647   4.042   1.479   3.139  0.0042  0.8865  1.1039
 1052TIP3    H224648   3.970   1.548   3.025 -2.1208  0.0046  1.8785
 1053TIP3   OH224649   0.042   5.425  11.867  0.8959 -0.6564 -0.0147
 1053TIP3    H124650   0.111   5.360  11.878  0.5224 -1.2786 -1.1455
 1053TIP3    H224651  -0.027   5.378  11.820  0.0359  0.1745  0.3924
 1054TIP3   OH224652   3.638   1.985  14.305  0.1760  0.3411  0.6533
 1054TIP3    H124653   3.641   1.889  14.308 -0.3245  0.3464  1.3623
 1054TIP3    H224654   3.547   2.006  14.283  0.6268  0.6279 -1.0087
 1055TIP3   OH224655   0.596   1.961   0.166 -0.3913  0.1876  0.7200
 1055TIP3    H124656   0.576   1.868   0.160  0.9517 -0.0594 -0.0867
 1055TIP3    H224657   0.529   2.004   0.112  0.1828 -0.4878 -0.5600
 1056TIP3   OH224658   3.482   1.797   0.142  0.1288 -0.5505 -0.6771
 1056TIP3    H124659   3.500   1.703   0.139 -3.4605 -1.2980 -0.9365
 1056TIP3    H224660   3.409   1.805   0.204 -0.5136  1.8750 -1.7084
 1057TIP3   OH224661   6.127   4.272  11.585  0.3202 -0.1648 -0.0845
 1057TIP3    H124662   6.137   4.276  11.680 -0.9797  3.0256 -0.0285
 1057TIP3    H224663   6.035   4.289  11.569  0.9041  1.4045 -1.9953
 1058TIP3   OH224664   2.990   2.447   0.219 -0.8778 -0.0287  0.0149
 1058TIP3    H124665   3.058   2.486   0.274 -1.7856 -0.7902  1.7177
 1058TIP3    H224666   2.932   2.520   0.198 -0.1043  0.4206 -0.5908
 1059TIP3   OH224667   0.644   6.467   5.179  0.3873  0.2197 -0.0807
 1059TIP3    H124668   0.676   6.533   5.117 -0.0714 -0.1514 -0.7146
 1059TIP3    H224669   0.665   6.383   5.139 -2.9130 -0.0775 -1.3863
 1060TIP3   OH224670   2.388   4.171   3.788 -0.1674  0.0682  0.4713
 1060TIP3    H124671   2.476   4.206   3.779  0.5612 -1.8419 -0.2520
 1060TIP3    H224672   2.330   4.246   3.774  1.3462  1.5174  1.8701
 1061TIP3   OH224673   6.619   0.430  16.947  0.3250 -0.0267 -0.2593
 1061TIP3    H124674   6.535   0.447  16.905  0.9882 -0.4647 -1.8078
 1061TIP3    H224675   6.610   0.466  17.035 -1.0789  0.9756 -0.7990
 1062TIP3   OH224676   0.902   2.946   1.508 -0.0015  0.5137 -0.2355
 1062TIP3    H124677   0.832   3.005   1.536  0.6637  0.0957  2.4943
 1062TIP3    H224678   0.866   2.859   1.523  0.4257  0.2774 -0.5985
 1063TIP3   OH224679   5.832   3.740  12.369 -0.1969 -0.2948  0.5092
 1063TIP3    H124680   5.867   3.687  12.440  0.4178  1.5393  1.6242
 1063TIP3    H224681   5.905   3.750  12.308 -1.1386 -3.0659 -1.1433
 1064TIP3   OH224682   0.643   0.954   5.528  0.1873 -0.0758  0.3148
 1064TIP3    H124683   0.638   0.894   5.455 -0.3413  0.4303 -0.0716
 1064TIP3    H224684   0.685   1.033   5.493 -0.7431  0.4473  0.3584
 1065TIP3   OH224685   2.860   5.163  16.670 -0.7460 -0.4647  0.4714
 1065TIP3    H124686   2.919   5.120  16.732 -2.9232 -0.9989  2.2355
 1065TIP3    H224687   2.916   5.189  16.597  1.5711 -1.3624  1.8931
 1066TIP3   OH224688   6.162   0.671  10.858 -0.3648 -0.6470  0.1121
 1066TIP3    H124689   6.174   0.715  10.773 -1.9953 -0.7959 -0.2091
 1066TIP3    H224690   6.144   0.579  10.834 -1.2519 -0.6008  0.5965
 1067TIP3   OH224691   3.169   4.094   5.476 -0.2502  0.3589 -0.0853
 1067TIP3    H124692   3.109   4.169   5.484  0.9342  1.2460  0.7227
 1067TIP3    H224693   3.124   4.022   5.520 -1.2321  0.7012 -0.5176
 1068TIP3   OH224694   3.303   6.060  15.420  0.3476 -0.1650  0.3018
 1068TIP3    H124695   3.277   6.127  15.357 -2.2210 -2.0054 -0.7047
 1068TIP3    H224696   3.332   5.986  15.366 -0.0302 -1.0588  1.2981
 1069TIP3   OH224697   5.969   0.321   5.388 -0.0900 -0.4163  0.1841
 1069TIP3    H124698   5.893   0.298   5.442 -0.5579  1.6105  0.4417
 1069TIP3    H224699   6.000   0.403   5.425  0.4897  0.2403 -1.7024
 1070TIP3   OH224700   4.287   5.391  12.379 -0.5070  0.0954  0.1199
 1070TIP3    H124701   4.335   5.393  12.297  0.0079 -1.1645  0.3742
 1070TIP3    H224702   4.196   5.375  12.353 -0.0679 -2.1217 -0.1210
 1071TIP3   OH224703   0.143   1.780  12.698  0.2542  0.1011 -0.2355
 1071TIP3    H124704   0.152   1.764  12.604  1.2298  0.0769 -0.1377
 1071TIP3    H224705   0.218   1.833  12.721  0.5260 -0.6745  0.7175
 1072TIP3   OH224706   2.158   3.422  13.473  0.5637 -0.9394 -0.4485
 1072TIP3    H124707   2.221   3.479  13.428 -1.0398  2.2394  1.1275
 1072TIP3    H224708   2.075   3.438  13.428 -0.1771 -0.9433  0.8716
 1073TIP3   OH224709   2.944   6.543   3.771 -0.5252 -1.1556  0.2802
 1073TIP3    H124710   2.968   6.499   3.690 -1.2562 -1.6496  0.3301
 1073TIP3    H224711   2.924   6.473   3.832 -2.7886 -0.7626  0.0285
 1074TIP3   OH224712   3.754   4.345   0.821 -0.1106 -0.0461  0.2174
 1074TIP3    H124713   3.734   4.416   0.882 -1.0287  0.0258 -0.1680
 1074TIP3    H224714   3.847   4.358   0.800 -0.2569  1.0201  0.1791
 1075TIP3   OH224715   4.524   6.629  12.997 -0.0190  0.0284  0.4217
 1075TIP3    H124716   4.457   6.586  12.942  2.4674 -1.8100 -1.3138
 1075TIP3    H224717   4.578   6.556  13.029  1.0969  1.4694  1.8513
 1076TIP3   OH224718   1.545   5.787   3.448 -0.1470 -0.0093  0.6638
 1076TIP3    H124719   1.562   5.732   3.524 -0.7742  1.6851  2.0783
 1076TIP3    H224720   1.466   5.750   3.409 -0.4709 -0.2218  1.5084
 1077TIP3   OH224721   4.248   0.616  14.173 -0.0730  0.1959 -0.3229
 1077TIP3    H124722   4.339   0.623  14.202 -0.1468  0.0255 -0.0402
 1077TIP3    H224723   4.239   0.525  14.143  0.1576  0.5338 -1.4343
 1078TIP3   OH224724   2.923   3.774  14.789 -0.1059 -0.8079 -0.4071
 1078TIP3    H124725   2.939   3.680  14.780  1.3422 -0.5431 -0.8277
 1078TIP3    H224726   3.007   3.814  14.765 -0.8820  0.6074 -0.7781
 1079TIP3   OH224727   4.744   6.332  12.626  0.1562  0.2180 -0.5509
 1079TIP3    H124728   4.723   6.281  12.548  0.3369 -0.8390  0.0697
 1079TIP3    H224729   4.659   6.353  12.666  0.1377 -1.8887  0.6042
 1080TIP3   OH224730   3.297   0.454   0.983  0.0758 -0.2388  0.3990
 1080TIP3    H124731   3.258   0.437   1.069 -1.3674 -0.5129 -0.2877
 1080TIP3    H224732   3.231   0.505   0.937 -0.8252 -3.3084 -1.8966
 1081TIP3   OH224733   1.828   5.192   0.047 -0.4711 -0.1031 -0.3218
 1081TIP3    H124734   1.832   5.188   0.143 -1.9690 -0.4394 -0.2541
 1081TIP3    H224735   1.750   5.141   0.025 -0.9331  1.1452 -1.6341
 1082TIP3   OH224736   2.687   2.693  11.901 -0.3836 -0.1779  0.1808
 1082TIP3    H124737   2.706   2.657  11.814  0.0388 -1.1097  0.6532
 1082TIP3    H224738   2.675   2.616  11.957 -0.8134  0.4149  0.9182
 1083TIP3   OH224739   6.019   5.112  12.533  0.5818  0.4588 -0.3578
 1083TIP3    H124740   6.006   5.111  12.628 -0.5385 -0.5024 -0.5102
 1083TIP3    H224741   5.933   5.137  12.498  0.9788  0.7481 -1.1209
 1084TIP3   OH224742   4.330   1.190   0.697 -0.6536 -0.8233  0.4194
 1084TIP3    H124743   4.419   1.198   0.663 -0.5865  1.7474  1.1306
 1084TIP3    H224744   4.282   1.142   0.628  0.5605  0.3526 -1.2716
 1085TIP3   OH224745   1.795   5.226  14.071  0.6442  0.2664 -0.0163
 1085TIP3    H124746   1.747   5.157  14.026 -0.5689  2.0399 -1.5207
 1085TIP3    H224747   1.780   5.209  14.164 -0.7407 -0.6985 -0.4041
 1086TIP3   OH224748   6.727   0.607  15.146 -0.2389 -0.3924  0.2138
 1086TIP3    H124749   6.812   0.565  15.160 -0.5900 -0.7530  1.2472
 1086TIP3    H224750   6.730   0.685  15.202 -0.6013 -0.4119  0.2560
 1087TIP3   OH224751   2.457   6.558   4.975 -0.0369 -0.1279 -0.2973
 1087TIP3    H124752   2.472   6.482   4.919  1.6023  0.2252 -0.3497
 1087TIP3    H224753   2.544   6.594   4.992 -0.4182 -0.6777  3.1615
 1088TIP3   OH224754   3.280   3.997  12.232  0.2861 -0.2519 -0.0265
 1088TIP3    H124755   3.304   3.917  12.280 -0.5201 -0.2124  0.4606
 1088TIP3    H224756   3.264   4.061  12.301  1.5418  0.5101 -0.4357
 1089TIP3   OH224757   6.237   1.299  15.932  0.3534  0.0463  0.6644
 1089TIP3    H124758   6.218   1.363  15.864  1.7345 -2.0599 -1.8043
 1089TIP3    H224759   6.236   1.349  16.014 -2.1469  2.4823 -0.7853
 1090TIP3   OH224760   5.847   3.700  12.998  0.3166  0.2715 -0.4042
 1090TIP3    H124761   5.888   3.762  13.057 -1.0780 -0.2494  1.1488
 1090TIP3    H224762   5.902   3.701  12.920  1.3884  2.0091  0.3510
 1091TIP3   OH224763   1.376   5.482   0.619 -0.3347 -0.1188 -0.1833
 1091TIP3    H124764   1.368   5.550   0.686  1.3164  1.2100 -1.2803
 1091TIP3    H224765   1.327   5.516   0.544 -0.9591 -0.9339 -0.1425
 1092TIP3   OH224766   1.673   1.509  14.733  0.1026 -0.1291 -0.6685
 1092TIP3    H124767   1.591   1.461  14.738 -1.3284  2.3100 -0.0347
 1092TIP3    H224768   1.703   1.515  14.824 -0.5759  1.5241 -0.5234
 1093TIP3   OH224769   4.093   0.737  13.242 -0.0585  0.4006  0.2289
 1093TIP3    H124770   4.071   0.692  13.323 -0.8742 -0.3998 -0.4342
 1093TIP3    H224771   4.064   0.678  13.173  1.9458  0.3957 -0.6667
 1094TIP3   OH224772   6.491   4.906   1.365 -0.3475  0.0352  0.5875
 1094TIP3    H124773   6.530   4.864   1.442 -0.1225  1.6486  1.3648
 1094TIP3    H224774   6.439   4.837   1.324  1.3204 -1.4585  0.9336
 1095TIP3   OH224775   6.358   2.503   5.224  0.0085 -0.2738 -0.5502
 1095TIP3    H124776   6.361   2.504   5.129 -1.3320  0.5644 -0.6020
 1095TIP3    H224777   6.429   2.444   5.250 -0.4777 -1.5768 -2.1039
 1096TIP3   OH224778   1.705   5.624   4.088  0.6515 -0.4552 -0.8129
 1096TIP3    H124779   1.745   5.547   4.129  0.9347 -0.3333 -0.8585
 1096TIP3    H224780   1.616   5.625   4.121  1.4146  0.7215  1.2900
 1097TIP3   OH224781   2.325   4.071  13.006  0.4263 -0.1253 -0.7582
 1097TIP3    H124782   2.305   3.996  13.061 -0.6048 -0.5424 -1.6838
 1097TIP3    H224783   2.406   4.108  13.044  0.5088 -1.2223  0.1620
 1098TIP3   OH224784   1.748   1.699   2.271 -0.0211 -0.6670 -0.3962
 1098TIP3    H124785   1.791   1.782   2.287 -0.3899 -0.6038  0.2615
 1098TIP3    H224786   1.671   1.721   2.219  1.1910 -0.8765 -2.3547
 1099TIP3   OH224787   0.150   4.515  14.113 -0.1246 -0.2293 -0.2305
 1099TIP3    H124788   0.058   4.490  14.101 -0.2584  0.4082 -0.5444
 1099TIP3    H224789   0.195   4.432  14.128 -0.7041 -0.5773 -0.3893
 1100TIP3   OH224790   0.262   0.298   0.895  0.1824  0.7425 -0.4663
 1100TIP3    H124791   0.227   0.216   0.929 -0.8541  0.9416 -1.0385
 1100TIP3    H224792   0.355   0.296   0.917 -0.0921 -0.0178  0.6346
 1101TIP3   OH224793   4.946   2.253  14.388  0.2150  0.0588  0.7271
 1101TIP3    H124794   4.950   2.168  14.345 -0.0668  1.1534 -1.5233
 1101TIP3    H224795   4.870   2.247  14.447 -0.2396 -0.9826  0.0364
 1102TIP3   OH224796   0.813   2.343   2.024  0.1289  0.5998  0.1100
 1102TIP3    H124797   0.820   2.415   1.961  0.5628 -0.5313 -1.1688
 1102TIP3    H224798   0.882   2.359   2.087  0.5225  1.0621 -0.4347
 1103TIP3   OH224799   6.470   3.430  12.200  0.3827 -0.4832 -0.4852
 1103TIP3    H124800   6.559   3.428  12.165  0.6597  2.1196 -0.0975
 1103TIP3    H224801   6.419   3.472  12.131 -0.0281  0.2958  0.2803
 1104TIP3   OH224802   2.538   3.170  15.263  0.0915 -0.2825  0.0637
 1104TIP3    H124803   2.464   3.119  15.296  0.1989  0.3631  1.2978
 1104TIP3    H224804   2.498   3.232  15.201 -0.3343 -0.2999  0.3177
 1105TIP3   OH224805   4.711   6.439  14.790  0.1847  0.3570 -0.3187
 1105TIP3    H124806   4.655   6.486  14.852 -0.7370 -1.1718  0.0198
 1105TIP3    H224807   4.798   6.442  14.830 -0.2596  0.0259  0.6958
 1106TIP3   OH224808   2.154   2.535  13.555  0.0601 -0.0639 -0.2928
 1106TIP3    H124809   2.141   2.558  13.646  1.8369 -2.8056  0.7419
 1106TIP3    H224810   2.225   2.592  13.525  0.4808 -0.1674  0.4988
 1107TIP3   OH224811   1.480   6.053   6.123 -0.1238 -0.0201  0.2228
 1107TIP3    H124812   1.436   6.051   6.038 -0.5271  0.1255  0.4256
 1107TIP3    H224813   1.560   6.003   6.110 -0.7697 -1.0381  0.0699
 1108TIP3   OH224814   5.268   2.730  15.060 -0.9449 -0.0526 -0.2320
 1108TIP3    H124815   5.264   2.794  14.990  0.5630  1.4518  1.0157
 1108TIP3    H224816   5.201   2.758  15.122 -0.7404 -0.0647 -0.0042
 1109TIP3   OH224817   1.200   5.723   5.720  0.0737  0.4449  0.3994
 1109TIP3    H124818   1.220   5.768   5.802  2.2384  0.1411  0.0573
 1109TIP3    H224819   1.113   5.686   5.734  0.5213  0.1796  2.6514
 1110TIP3   OH224820   4.510   5.955  15.040 -0.3649  0.0070 -0.1600
 1110TIP3    H124821   4.512   5.860  15.054 -0.3738 -0.4506 -2.8968
 1110TIP3    H224822   4.533   5.993  15.125  1.5560 -2.4811  0.4844
 1111TIP3   OH224823   1.217   3.380  13.344  0.0084 -0.0563  0.5286
 1111TIP3    H124824   1.196   3.368  13.437 -1.8829 -0.5272  0.0561
 1111TIP3    H224825   1.312   3.366  13.339  0.0200 -0.7178  2.2767
 1112TIP3   OH224826   6.693   0.227   5.220 -0.3839  0.1448 -0.5361
 1112TIP3    H124827   6.678   0.314   5.258 -0.3681 -0.0863 -0.0043
 1112TIP3    H224828   6.698   0.168   5.295 -0.9399 -0.4040 -0.9216
 1113TIP3   OH224829   4.594   3.896  17.214  0.0703 -0.0556 -0.0098
 1113TIP3    H124830   4.666   3.947  17.177 -1.0774  2.0512  0.5395
 1113TIP3    H224831   4.576   3.829  17.149  0.3489  1.4573 -1.7023
 1114TIP3   OH224832   4.826   1.724   1.459 -0.0378 -0.1792 -0.2889
 1114TIP3    H124833   4.799   1.814   1.442 -0.1942 -0.4412 -1.4166
 1114TIP3    H224834   4.818   1.715   1.554  2.3273  1.7539  0.1494
 1115TIP3   OH224835   6.760   3.779  10.492  0.2245 -0.6890  0.0755
 1115TIP3    H124836   6.737   3.871  10.507  0.7528 -0.3570 -1.1346
 1115TIP3    H224837   6.827   3.761  10.558 -0.0103 -0.2753  0.4356
 1116TIP3   OH224838   6.157   0.055  15.222  0.1583 -0.5720 -0.4944
 1116TIP3    H124839   6.099   0.012  15.159  1.2486  0.8606 -2.5519
 1116TIP3    H224840   6.160   0.146  15.192  0.8213  0.1013  1.5679
 1117TIP3   OH224841   1.476   3.317   0.484 -0.1117 -0.4602  0.4646
 1117TIP3    H124842   1.514   3.329   0.397  0.4260  1.3770  0.9253
 1117TIP3    H224843   1.437   3.230   0.481 -0.7250 -0.1457 -1.8392
 1118TIP3   OH224844   2.971   2.034   2.615  0.8239  0.4208 -0.0002
 1118TIP3    H124845   3.003   2.115   2.655 -0.5702 -0.3888  2.9374
 1118TIP3    H224846   2.885   2.057   2.580  0.8326  0.4360 -0.0110
 1119TIP3   OH224847   3.348   6.258  13.808 -0.5546 -0.1394  1.0625
 1119TIP3    H124848   3.337   6.298  13.723  1.2729 -2.0619 -0.1432
 1119TIP3    H224849   3.283   6.187  13.810 -1.1653  0.4308  1.6178
 1120TIP3   OH224850   2.290   4.233  10.655  0.1047 -0.2988 -0.1358
 1120TIP3    H124851   2.252   4.186  10.581  1.1082 -1.3410 -0.0139
 1120TIP3    H224852   2.289   4.169  10.727  2.3494 -0.4786 -0.2276
 1121TIP3   OH224853   0.628   3.881   5.134 -0.0926  0.3288 -0.6991
 1121TIP3    H124854   0.687   3.871   5.060 -0.4962  0.4234 -1.0377
 1121TIP3    H224855   0.605   3.792   5.159 -1.1203  0.3263 -1.6319
 1122TIP3   OH224856   0.693   6.491   1.272  0.7431 -0.1398 -0.5378
 1122TIP3    H124857   0.724   6.581   1.270 -0.0049  0.1529  0.3320
 1122TIP3    H224858   0.597   6.499   1.275  0.6861 -0.9494 -0.0044
 1123TIP3   OH224859   3.795   1.340   2.763 -0.1020 -0.0774  0.3248
 1123TIP3    H124860   3.770   1.343   2.855  0.2215  1.3167  0.3790
 1123TIP3    H224861   3.875   1.287   2.761 -0.9973 -1.4872  0.6116
 1124TIP3   OH224862   0.825   2.812   3.100  0.8806  0.6197 -0.1321
 1124TIP3    H124863   0.817   2.905   3.081 -3.4632  0.8171  2.1132
 1124TIP3    H224864   0.856   2.808   3.190 -1.9689 -0.0540  0.8419
 1125TIP3   OH224865   3.850   2.584  17.165 -0.1491  0.7370  0.2925
 1125TIP3    H124866   3.795   2.511  17.136 -0.0925  0.4378  0.9368
 1125TIP3    H224867   3.848   2.646  17.092  0.9625 -0.5406 -0.8648
 1126TIP3   OH224868   6.468   6.661  12.556  0.5124  0.2607 -0.0620
 1126TIP3    H124869   6.476   6.716  12.634 -1.0202 -0.5769  0.7060
 1126TIP3    H224870   6.432   6.719  12.489 -2.2021 -0.0247  1.0660
 1127TIP3   OH224871   1.619   6.794   1.469  0.1122 -0.5567  0.5591
 1127TIP3    H124872   1.541   6.795   1.414  1.3091 -1.1107 -1.1638
 1127TIP3    H224873   1.616   6.709   1.513  0.7918 -1.4357 -1.0514
 1128TIP3   OH224874   6.627   4.237   3.667 -0.1306  0.0440  0.3570
 1128TIP3    H124875   6.614   4.331   3.655 -1.7266 -0.0840  1.0327
 1128TIP3    H224876   6.540   4.200   3.661  0.3988 -1.3046  0.9292
 1129TIP3   OH224877   0.645   3.907  15.908  0.3353 -0.6073  0.1179
 1129TIP3    H124878   0.688   3.847  15.847 -0.1608  0.0977 -0.9306
 1129TIP3    H224879   0.688   3.991  15.893  0.7214 -0.5842  1.2716
 1130TIP3   OH224880   3.058   6.450   5.291  0.0710 -0.6300  0.0225
 1130TIP3    H124881   3.146   6.479   5.317 -0.4725  1.3624 -0.2308
 1130TIP3    H224882   3.069   6.417   5.202  0.5863 -0.5367  0.0497
 1131TIP3   OH224883   2.015   0.230   0.960 -0.1223 -0.1494 -0.0030
 1131TIP3    H124884   2.058   0.145   0.969  0.4857  0.3317  1.7907
 1131TIP3    H224885   2.084   0.289   0.930 -0.1541  0.0656  0.3487
 1132TIP3   OH224886   1.510   5.414   0.256  0.3390  0.0738 -0.3486
 1132TIP3    H124887   1.477   5.334   0.217 -1.1692  0.5371 -0.0432
 1132TIP3    H224888   1.440   5.478   0.244  1.0897  1.0515  0.3669
 1133TIP3   OH224889   6.429   0.375  15.762  0.4453 -0.4575  0.4528
 1133TIP3    H124890   6.466   0.356  15.849  2.5512 -1.7747 -0.6830
 1133TIP3    H224891   6.395   0.290  15.732  2.6128 -0.7431 -1.3031
 1134TIP3   OH224892   5.037   3.531  15.787  0.0861  0.1469 -0.2802
 1134TIP3    H124893   5.125   3.492  15.787 -0.3758 -0.9281 -0.7107
 1134TIP3    H224894   4.978   3.456  15.773 -0.9262  0.7961  0.4772
 1135TIP3   OH224895   2.028   2.369   5.995  0.1286  0.1575  0.2756
 1135TIP3    H124896   1.934   2.368   5.974  0.2143  1.7525 -0.2653
 1135TIP3    H224897   2.033   2.333   6.083 -1.1306  1.1241  0.7689
 1136TIP3   OH224898   5.476   2.663   0.492 -0.1023 -0.1165  0.4662
 1136TIP3    H124899   5.460   2.597   0.424  1.2124  1.7072 -1.6709
 1136TIP3    H224900   5.417   2.735   0.470  1.5351  1.1861  0.2393
 1137TIP3   OH224901   5.927   3.070  11.071 -0.0490 -0.1218 -0.1915
 1137TIP3    H124902   5.950   2.986  11.110 -0.4349  0.4538  1.3137
 1137TIP3    H224903   5.834   3.062  11.050  0.0539 -0.2746 -0.6005
 1138TIP3   OH224904   4.349   5.541   5.511 -0.3934 -0.2669  0.2924
 1138TIP3    H124905   4.291   5.566   5.582  0.7871  1.8039  0.6032
 1138TIP3    H224906   4.434   5.526   5.553  0.1580  0.3364 -0.5548
 1139TIP3   OH224907   1.822   4.238   0.941  0.2971  0.0540  0.1596
 1139TIP3    H124908   1.859   4.326   0.932 -0.2557  0.2108 -0.6833
 1139TIP3    H224909   1.752   4.235   0.875 -0.3543 -0.6631  0.8665
 1140TIP3   OH224910   5.193   5.915   3.165  0.0149  0.7811  0.2354
 1140TIP3    H124911   5.159   5.956   3.244 -1.2916  0.1482  0.0283
 1140TIP3    H224912   5.128   5.934   3.098  0.2024 -0.2115 -0.2494
 1141TIP3   OH224913   4.651   5.829  15.760 -0.1942  0.5328 -0.0959
 1141TIP3    H124914   4.581   5.841  15.696 -0.0019  1.7644 -0.0808
 1141TIP3    H224915   4.622   5.755  15.813 -0.0860 -0.8713 -1.9488
 1142TIP3   OH224916   2.091   2.639   5.035 -0.6779  0.4764 -0.4811
 1142TIP3    H124917   2.043   2.596   5.106 -4.1204  0.5845 -2.6074
 1142TIP3    H224918   2.136   2.712   5.077 -1.6764 -0.1584  1.7778
 1143TIP3   OH224919   1.798   2.227  14.109  0.5161 -0.0448  0.3760
 1143TIP3    H124920   1.711   2.189  14.123 -0.0898  1.3451  0.4551
 1143TIP3    H224921   1.837   2.231  14.196 -0.6921  2.4780  0.8615
 1144TIP3   OH224922   5.671   3.584  15.409  0.1711 -0.0026 -0.8115
 1144TIP3    H124923   5.652   3.661  15.356 -2.6074  0.8119  1.2493
 1144TIP3    H224924   5.705   3.520  15.347  3.2879  3.1097 -2.4302
 1145TIP3   OH224925   0.158   4.011  16.136  0.4374 -0.5083 -0.1029
 1145TIP3    H124926   0.172   4.084  16.075 -2.4209 -0.6493 -1.0016
 1145TIP3    H224927   0.221   3.944  16.108  2.5157  1.2566  0.2022
 1146TIP3   OH224928   3.427   4.956  12.787  0.3656  0.4461 -0.2310
 1146TIP3    H124929   3.381   5.018  12.731 -1.1413  1.7532  2.3980
 1146TIP3    H224930   3.428   4.875  12.736 -0.8330  1.6091 -2.1921
 1147TIP3   OH224931   0.315   2.467  13.939 -0.3714 -0.0872  0.2506
 1147TIP3    H124932   0.380   2.514  13.887 -0.8863 -0.6559 -0.9321
 1147TIP3    H224933   0.331   2.495  14.029  1.8369 -0.5805  0.0450
 1148TIP3   OH224934   1.044   4.479   3.682 -0.0383  0.5201  0.3696
 1148TIP3    H124935   1.057   4.465   3.588 -1.4284  0.0710  0.2395
 1148TIP3    H224936   1.035   4.392   3.718  2.0883  0.6062  1.1835
 1149TIP3   OH224937   4.270   1.643  15.792 -0.2246  0.3035  0.3855
 1149TIP3    H124938   4.329   1.676  15.724  0.1412 -0.2909  0.4139
 1149TIP3    H224939   4.271   1.711  15.860 -1.4380  1.4126 -0.6763
 1150TIP3   OH224940   6.605   0.364  15.002  0.2539  0.3332 -0.2541
 1150TIP3    H124941   6.649   0.436  15.047 -1.6552  0.3641  1.6099
 1150TIP3    H224942   6.616   0.289  15.061 -0.6727 -0.0855 -0.6111
 1151TIP3   OH224943   2.102   6.082  16.358 -0.4765 -0.3025 -0.1248
 1151TIP3    H124944   2.178   6.123  16.315 -1.7027  1.2631 -0.8721
 1151TIP3    H224945   2.130   5.993  16.376  1.6389  0.3197 -0.1579
 1152TIP3   OH224946   2.454   0.856  11.204 -0.6256  0.4579 -0.0291
 1152TIP3    H124947   2.522   0.839  11.269 -0.7903  1.0051  0.2984
 1152TIP3    H224948   2.405   0.774  11.197 -2.8524  1.3983  3.2102
 1153TIP3   OH224949   5.744   2.050  14.590  0.2166 -0.2895 -0.0899
 1153TIP3    H124950   5.805   2.123  14.601 -0.3734  0.4631 -1.6504
 1153TIP3    H224951   5.687   2.054  14.666  0.8133  0.2596  0.3325
 1154TIP3   OH224952   3.880   6.399   0.763  0.1821 -0.1823  0.0542
 1154TIP3    H124953   3.843   6.485   0.784 -0.7798 -0.4333 -0.5749
 1154TIP3    H224954   3.814   6.357   0.709  0.9621 -1.0435 -0.2503
 1155TIP3   OH224955   1.328   0.794  14.931  0.0349 -0.7516  0.0372
 1155TIP3    H124956   1.258   0.830  14.985 -0.0231  1.5231 -1.5009
 1155TIP3    H224957   1.297   0.708  14.905 -0.6581 -1.1855  2.2415
 1156TIP3   OH224958   6.551   1.721   4.606  0.1076 -0.0387 -0.5292
 1156TIP3    H124959   6.518   1.637   4.574  1.0490 -0.5536 -0.1760
 1156TIP3    H224960   6.639   1.727   4.570 -0.2076  1.1102 -1.1012
 1157TIP3   OH224961   0.455   1.818   2.777  0.0306 -0.2950 -0.1470
 1157TIP3    H124962   0.406   1.887   2.821 -1.8753 -1.0341 -1.0523
 1157TIP3    H224963   0.510   1.863   2.713 -2.2921  0.3335 -1.7702
 1158TIP3   OH224964   5.894   4.154   2.358 -0.4957  0.5937 -0.4427
 1158TIP3    H124965   5.926   4.139   2.269 -0.3585 -0.2417 -0.2604
 1158TIP3    H224966   5.800   4.167   2.348 -0.7496 -1.2101 -0.5429
 1159TIP3   OH224967   0.943   6.769  13.467  0.6045 -0.1791 -0.3356
 1159TIP3    H124968   0.944   6.785  13.373  1.0456 -0.2507 -0.3460
 1159TIP3    H224969   0.859   6.804  13.497  0.4196 -0.2517 -0.7700
 1160TIP3   OH224970   0.625   2.869  15.288 -0.2032 -0.0539 -0.0394
 1160TIP3    H124971   0.571   2.836  15.216 -0.0348 -0.1743 -0.1112
 1160TIP3    H224972   0.608   2.808  15.360  0.4814 -0.5836 -0.3244
 1161TIP3   OH224973   1.578   3.713   4.702 -0.0906  0.0389  0.0322
 1161TIP3    H124974   1.560   3.704   4.609 -1.8061  0.7156  0.2928
 1161TIP3    H224975   1.664   3.755   4.706 -0.2666  0.5341 -1.2383
 1162TIP3   OH224976   2.957   5.458  14.837  0.2362 -0.1361  0.0260
 1162TIP3    H124977   2.975   5.546  14.802  0.6766  0.0269  0.6332
 1162TIP3    H224978   2.920   5.409  14.764 -1.3940  0.9915  0.0731
 1163TIP3   OH224979   4.992   2.906   1.677  0.1553 -0.7368 -0.5456
 1163TIP3    H124980   4.989   2.851   1.755  2.2909 -0.9428 -0.5871
 1163TIP3    H224981   5.073   2.956   1.686 -0.0639 -0.0632 -2.1659
 1164TIP3   OH224982   2.184   1.744  17.037  0.1451  0.1077 -0.1690
 1164TIP3    H124983   2.140   1.785  16.962  0.1876 -0.7727 -0.6826
 1164TIP3    H224984   2.115   1.693  17.080  0.5551 -0.9274 -0.7217
 1165TIP3   OH224985   5.670   2.048   1.308 -0.2412 -0.5407  0.0888
 1165TIP3    H124986   5.635   2.110   1.373  0.4568 -1.3558  1.2746
 1165TIP3    H224987   5.736   2.098   1.260  0.3792 -0.3630  1.1013
 1166TIP3   OH224988   5.477   2.322   0.016 -0.2119  0.4101  0.1533
 1166TIP3    H124989   5.448   2.241  -0.027  0.6137  0.3814 -0.3731
 1166TIP3    H224990   5.527   2.368  -0.052 -0.4380  1.2316  0.5323
 1167TIP3   OH224991   6.475   1.735   3.607 -0.3505 -0.2312  0.0579
 1167TIP3    H124992   6.450   1.652   3.566  0.1530 -0.1292 -0.4740
 1167TIP3    H224993   6.400   1.792   3.595 -1.0221 -0.8719  1.1677
 1168TIP3   OH224994   1.059   6.354   1.993 -0.2233  0.1173  0.4374
 1168TIP3    H124995   1.014   6.417   2.049  2.1337  2.2535 -0.0060
 1168TIP3    H224996   1.148   6.349   2.029  1.5637  2.0611 -3.4277
 1169TIP3   OH224997   4.688   2.646  11.800 -0.2696  0.0685 -0.4072
 1169TIP3    H124998   4.748   2.687  11.862  0.6546 -0.4873 -0.9141
 1169TIP3    H224999   4.691   2.703  11.723  0.7220 -0.7103 -0.9682
 1170TIP3   OH225000   1.194   5.932   3.238 -0.9334  0.1672 -0.2306
 1170TIP3    H125001   1.165   6.020   3.215  1.1532  1.2721  1.1750
 1170TIP3    H225002   1.262   5.911   3.175 -0.4969  0.1278  0.2446
 1171TIP3   OH225003   1.241   4.530   0.338 -0.7752 -0.0544 -0.2740
 1171TIP3    H125004   1.283   4.584   0.406  0.0358 -0.0340 -0.7851
 1171TIP3    H225005   1.166   4.491   0.382 -1.4765  1.6283  0.0645
 1172TIP3   OH225006   3.523   0.461  15.071 -1.0566  0.3139 -0.2078
 1172TIP3    H125007   3.540   0.552  15.045  0.3805  0.0957 -0.0726
 1172TIP3    H225008   3.600   0.436  15.122 -2.2288 -0.4308  1.2112
 1173TIP3   OH225009   2.331   4.240  12.698  0.6596 -0.8391  0.1090
 1173TIP3    H125010   2.411   4.241  12.751 -0.3411 -1.2785  1.6634
 1173TIP3    H225011   2.302   4.148  12.699 -0.7122 -0.4264  0.9194
 1174TIP3   OH225012   3.608   1.402  11.915 -0.2036 -0.0575  0.3471
 1174TIP3    H125013   3.556   1.480  11.898  1.6418  1.7320  2.7109
 1174TIP3    H225014   3.699   1.432  11.913  0.5095 -1.9582  2.2062
 1175TIP3   OH225015   5.295   0.776  12.011 -0.2495 -0.2307 -0.3054
 1175TIP3    H125016   5.376   0.775  12.062 -0.6801  2.3093  0.4812
 1175TIP3    H225017   5.275   0.683  11.996  1.5967 -0.9370  1.4056
 1176TIP3   OH225018   3.547   4.207  13.455 -0.2536  0.6744  0.4585
 1176TIP3    H125019   3.567   4.157  13.375 -1.0534  2.0756 -0.6275
 1176TIP3    H225020   3.455   4.187  13.473 -1.0834  3.0069 -0.9354
 1177TIP3   OH225021   2.068   5.235   3.953  0.1686 -0.4421  0.3550
 1177TIP3    H125022   2.008   5.230   3.878  0.4046  3.1782 -0.1866
 1177TIP3    H225023   2.014   5.211   4.029 -0.8392 -1.2883 -0.6148
 1178TIP3   OH225024   2.011   4.448   0.713  0.5149 -0.7061  0.0958
 1178TIP3    H125025   2.092   4.498   0.699  0.4073 -0.2091  1.2147
 1178TIP3    H225026   1.991   4.460   0.806 -1.4964  0.1611 -0.4317
 1179TIP3   OH225027   5.961   5.694  12.887 -0.3609 -0.3687  0.4130
 1179TIP3    H125028   5.970   5.788  12.906  0.5374  0.2079 -2.4815
 1179TIP3    H225029   6.047   5.658  12.905  0.0117 -0.1300 -0.7953
 1180TIP3   OH225030   2.285   0.909   1.416  0.0169  0.1393  0.4070
 1180TIP3    H125031   2.241   0.977   1.467 -2.2163  1.0428 -2.6024
 1180TIP3    H225032   2.378   0.929   1.423 -0.3784  1.4266  2.3905
 1181TIP3   OH225033   2.553   1.034  11.546  0.0576 -0.3772 -0.3931
 1181TIP3    H125034   2.469   1.059  11.506  0.6408  0.5876 -1.0186
 1181TIP3    H225035   2.597   1.117  11.565 -0.8695 -0.7051  3.7763
 1182TIP3   OH225036   5.019   0.120   0.941 -0.1731 -0.5295  0.0823
 1182TIP3    H125037   4.981   0.202   0.971  1.2821  0.2006  0.0051
 1182TIP3    H225038   5.096   0.146   0.890 -0.0963 -1.9083 -0.5503
 1183TIP3   OH225039   5.919   1.773  12.078  0.0376 -0.0728 -0.3516
 1183TIP3    H125040   6.010   1.752  12.098 -0.9051 -2.9155  1.3221
 1183TIP3    H225041   5.921   1.862  12.044  3.3961  0.0056 -0.0616
 1184TIP3   OH225042   3.764   1.316   3.735 -0.0578 -0.0316  0.1779
 1184TIP3    H125043   3.802   1.306   3.647  2.2817 -3.7666  1.4776
 1184TIP3    H225044   3.813   1.388   3.774  1.2459 -0.5492 -0.4591
 1185TIP3   OH225045   4.007   5.331  14.602  0.7418  0.2032  0.3947
 1185TIP3    H125046   4.002   5.335  14.698  0.1380 -0.1838  0.3817
 1185TIP3    H225047   4.022   5.238  14.583  0.6786  0.2517  0.1115
 1186TIP3   OH225048   4.844   5.976   1.053 -0.4077 -0.5406  0.4797
 1186TIP3    H125049   4.888   5.909   1.001 -0.6676 -0.2928 -0.0629
 1186TIP3    H225050   4.755   5.942   1.064 -0.3843 -0.5399  0.6588
 1187TIP3   OH225051   6.664   5.167  13.123  0.0979  0.4935  0.2406
 1187TIP3    H125052   6.706   5.253  13.128  0.1608  0.4267  0.9965
 1187TIP3    H225053   6.571   5.186  13.116 -0.2147  0.6273  3.9776
 1188TIP3   OH225054   1.966   0.125  11.698  0.1333 -0.2572  0.0288
 1188TIP3    H125055   1.873   0.104  11.691 -0.3576  1.7664  0.0763
 1188TIP3    H225056   1.998   0.123  11.608 -0.7595  2.3266 -0.4060
 1189TIP3   OH225057   3.067   3.200   4.787  0.5741  0.1921  0.0336
 1189TIP3    H125058   3.103   3.112   4.788  2.2975  0.8718 -1.1256
 1189TIP3    H225059   3.027   3.209   4.701 -1.4705 -0.1717  0.9069
 1190TIP3   OH225060   5.853   6.213  10.453  0.4387 -0.5531  0.1649
 1190TIP3    H125061   5.933   6.253  10.488  0.7223 -0.7095 -0.3104
 1190TIP3    H225062   5.867   6.119  10.462 -0.0096 -0.5667  0.7849
 1191TIP3   OH225063   4.791   1.815  14.800 -0.6902 -0.4060 -0.0629
 1191TIP3    H125064   4.863   1.846  14.744  0.5162 -1.4188  0.9116
 1191TIP3    H225065   4.751   1.896  14.833 -0.2243  0.1751 -0.8710
 1192TIP3   OH225066   2.875   2.940  14.397 -0.3448 -0.0982 -0.2647
 1192TIP3    H125067   2.780   2.941  14.411 -0.8173 -0.7762 -3.0721
 1192TIP3    H225068   2.890   2.865  14.340  1.9778 -0.3629  0.6648
 1193TIP3   OH225069   1.894   3.320   4.951 -0.7809 -0.0204  0.1612
 1193TIP3    H125070   1.855   3.272   5.024 -2.2962 -0.6179 -1.0112
 1193TIP3    H225071   1.902   3.410   4.983 -0.4285 -0.4966  1.4303
 1194TIP3   OH225072   3.756   4.389  11.158  0.0869 -0.0155 -0.2948
 1194TIP3    H125073   3.778   4.370  11.066  0.2376 -0.3363 -0.1923
 1194TIP3    H225074   3.816   4.459  11.183  0.5258 -0.4119 -0.2298
 1195TIP3   OH225075   5.594   1.802  16.281 -0.0597 -0.2311 -0.0137
 1195TIP3    H125076   5.517   1.748  16.261 -0.2140  0.0779 -0.2589
 1195TIP3    H225077   5.653   1.787  16.207  0.1089 -0.4576  0.1696
 1196TIP3   OH225078   3.758   2.421   3.557 -0.3658 -0.1266  0.1898
 1196TIP3    H125079   3.720   2.479   3.490  0.9566  1.2587  0.6203
 1196TIP3    H225080   3.720   2.335   3.538 -2.4965  0.8963 -0.3575
 1197TIP3   OH225081   1.388   1.304  13.375 -0.3035 -0.3094  0.0936
 1197TIP3    H125082   1.429   1.316  13.460 -2.3587  0.9299  0.9424
 1197TIP3    H225083   1.363   1.392  13.347 -0.7579 -0.8359 -1.2184
 1198TIP3   OH225084   3.440   4.412  12.236 -0.2299 -0.4205  0.6220
 1198TIP3    H125085   3.491   4.429  12.158  0.0940  1.9796  1.3349
 1198TIP3    H225086   3.457   4.320  12.257 -1.0930 -1.3743 -2.6498
 1199TIP3   OH225087   1.740   5.216   2.868 -0.3100 -0.1044  0.4522
 1199TIP3    H125088   1.740   5.213   2.964  0.1734 -3.7962  0.3944
 1199TIP3    H225089   1.828   5.190   2.843  0.1528  2.6843 -1.0443
 1200TIP3   OH225090   4.778   3.715   5.912 -0.1333  0.2715 -0.2648
 1200TIP3    H125091   4.829   3.707   5.831  2.1931  0.6492  1.1142
 1200TIP3    H225092   4.816   3.649   5.970 -0.4502  1.3347  1.1724
 1201TIP3   OH225093   6.566   1.270   2.216  0.1208  0.2433  0.0315
 1201TIP3    H125094   6.540   1.249   2.306  1.4595 -0.2979  0.2915
 1201TIP3    H225095   6.550   1.190   2.167 -0.5406  0.5164 -0.2122
 1202TIP3   OH225096   6.150   6.701  11.817  0.7514 -0.4490  0.8550
 1202TIP3    H125097   6.195   6.636  11.764  1.9160  1.4022 -0.5056
 1202TIP3    H225098   6.211   6.775  11.820 -0.1954  0.2741  3.0285
 1203TIP3   OH225099   6.378   3.857  17.131  0.1960 -0.0885 -0.3762
 1203TIP3    H125100   6.451   3.918  17.142  0.3413  0.0754 -2.0918
 1203TIP3    H225101   6.414   3.771  17.152  0.6315  0.1171 -0.2824
 1204TIP3   OH225102   6.512   4.592  12.899  0.7017  0.1159  0.3145
 1204TIP3    H125103   6.603   4.579  12.872  0.8511  2.7476 -0.5442
 1204TIP3    H225104   6.516   4.655  12.971 -0.7062  3.5885 -2.5200
 1205TIP3   OH225105   1.639   6.094  14.996  0.4206 -0.0521  0.2440
 1205TIP3    H125106   1.640   6.060  15.086 -1.2777  0.9018  0.6429
 1205TIP3    H225107   1.546   6.102  14.975  0.8064 -0.1326 -1.5650
 1206TIP3   OH225108   0.415   6.807  12.782 -0.2996 -0.0023  0.3179
 1206TIP3    H125109   0.437   6.736  12.722  1.3407  0.5523  0.2379
 1206TIP3    H225110   0.331   6.840  12.751  0.1128 -0.3019 -1.1372
 1207TIP3   OH225111   2.046   6.075   0.820  0.3045 -0.4672  0.2120
 1207TIP3    H125112   2.112   6.008   0.834  0.5502 -0.4477 -0.8822
 1207TIP3    H225113   1.971   6.028   0.785  0.6971 -0.0842 -1.1611
 1208TIP3   OH225114   0.187   6.301   1.209 -0.4941  0.3820  0.4076
 1208TIP3    H125115   0.094   6.292   1.192 -0.8462  3.1272  0.7531
 1208TIP3    H225116   0.229   6.256   1.136 -2.0628 -1.3846  0.5629
 1209TIP3   OH225117   1.177   4.967   3.231  0.1947 -0.2086 -0.2090
 1209TIP3    H125118   1.100   4.986   3.176  0.1047 -2.0668 -0.7702
 1209TIP3    H225119   1.240   4.929   3.170  0.8203 -0.5141  0.6361
 1210TIP3   OH225120   1.837   3.609   4.822  0.0149 -0.4892  0.7586
 1210TIP3    H125121   1.769   3.564   4.772  0.1341  0.9520 -0.7504
 1210TIP3    H225122   1.791   3.679   4.868  0.3561  0.1096  0.2092
 1211TIP3   OH225123   2.893   3.059  15.441 -0.4276  0.1763 -0.0241
 1211TIP3    H125124   2.957   3.129  15.441 -1.3873  1.0707 -0.4811
 1211TIP3    H225125   2.875   3.043  15.348 -0.7067 -0.2215  0.0966
 1212TIP3   OH225126   6.747   1.058   1.874  0.3068 -0.1036  0.0177
 1212TIP3    H125127   6.744   1.062   1.970 -0.2843  1.3818 -0.0432
 1212TIP3    H225128   6.780   1.144   1.848  0.2393 -0.4165 -1.1192
 1213TIP3   OH225129   0.912   3.904   3.727  0.1243  0.0994  0.2828
 1213TIP3    H125130   0.938   3.885   3.818 -0.3780  0.4949  0.5091
 1213TIP3    H225131   0.975   3.855   3.674  0.8889  0.4553  0.8369
 1214TIP3   OH225132   5.601   4.726  16.090 -0.5759  0.1140 -0.1662
 1214TIP3    H125133   5.569   4.760  16.174  2.7559  3.0325  0.0608
 1214TIP3    H225134   5.544   4.766  16.024 -2.1159 -0.8213  0.5725
 1215TIP3   OH225135   1.797   0.751   5.804 -0.0274  0.4188 -0.2645
 1215TIP3    H125136   1.759   0.771   5.889 -0.7796  1.0123 -0.7267
 1215TIP3    H225137   1.724   0.716   5.753  1.0371 -2.6359  0.1995
 1216TIP3   OH225138   0.871   1.079  14.925 -0.3336 -0.0447  0.9281
 1216TIP3    H125139   0.796   1.121  14.966  0.0626 -0.1522  1.7620
 1216TIP3    H225140   0.849   1.077  14.832 -1.6987 -0.7598  1.2514
 1217TIP3   OH225141   5.275   3.744  11.094  0.3524  0.2006 -0.3609
 1217TIP3    H125142   5.310   3.664  11.056 -0.2408  0.9216 -2.4944
 1217TIP3    H225143   5.180   3.735  11.086  0.2337  0.5192  0.6447
 1218TIP3   OH225144   1.361   1.221   4.612 -0.0154 -0.0113  0.3195
 1218TIP3    H125145   1.270   1.190   4.621 -0.4496  1.4957  1.3247
 1218TIP3    H225146   1.354   1.301   4.559  0.3591  1.6849  2.7436
 1219TIP3   OH225147   0.391   6.176   0.750  0.7995 -0.0219  0.6609
 1219TIP3    H125148   0.466   6.150   0.698  1.2172 -0.5330  1.5018
 1219TIP3    H225149   0.349   6.246   0.699  0.1877 -1.6918 -1.1714
 1220TIP3   OH225150   1.673   1.151  11.435 -0.6094 -0.1804 -0.5686
 1220TIP3    H125151   1.633   1.237  11.421  0.9834  0.2512 -2.7575
 1220TIP3    H225152   1.653   1.103  11.355  0.9750 -0.8406 -0.5750
 1221TIP3   OH225153   3.910   2.424  13.499  0.5571 -0.2674 -0.0519
 1221TIP3    H125154   3.874   2.410  13.587 -1.2633  1.4694 -0.4828
 1221TIP3    H225155   3.853   2.373  13.442  2.1606 -1.9575 -0.1881
 1222TIP3   OH225156   4.726   5.160   0.933  0.6470 -0.6440 -0.4444
 1222TIP3    H125157   4.772   5.112   0.865 -0.4863 -0.2697 -1.4892
 1222TIP3    H225158   4.729   5.103   1.010  0.2112 -1.9271 -1.3708
 1223TIP3   OH225159   5.113   0.119  11.704  0.3394 -0.1165 -0.6729
 1223TIP3    H125160   5.169   0.048  11.672 -0.0230 -0.3059 -0.8915
 1223TIP3    H225161   5.109   0.106  11.798  1.8795  0.7782 -0.4641
 1224TIP3   OH225162   0.006   0.810  14.155 -0.2978  0.5602  0.0342
 1224TIP3    H125163   0.056   0.846  14.228 -0.4881 -0.0812  0.4838
 1224TIP3    H225164  -0.074   0.777  14.196  0.3784 -1.3975 -0.2135
 1225TIP3   OH225165   6.510   3.364   2.255 -0.5073  0.1569 -0.0634
 1225TIP3    H125166   6.417   3.354   2.275 -0.9078  1.0811 -1.3986
 1225TIP3    H225167   6.546   3.410   2.331 -0.8179 -1.5789  1.1513
 1226TIP3   OH225168   2.204   3.364  16.850 -0.0663 -0.4640 -0.4253
 1226TIP3    H125169   2.118   3.387  16.816  0.7711  2.3909 -0.6932
 1226TIP3    H225170   2.228   3.284  16.803 -1.7992 -0.2929 -1.6244
 1227TIP3   OH225171   6.819   0.696   4.717 -0.0562 -0.4352  0.5115
 1227TIP3    H125172   6.914   0.692   4.727 -0.2421 -1.4364  2.0237
 1227TIP3    H225173   6.785   0.631   4.779 -1.7027 -0.5054 -0.4298
 1228TIP3   OH225174   0.199   5.262  13.379  0.4683 -0.3879 -0.6451
 1228TIP3    H125175   0.188   5.268  13.474 -2.1655  0.5921 -0.9641
 1228TIP3    H225176   0.194   5.168  13.360  0.6034 -0.5592  0.1496
 1229TIP3   OH225177   1.086   1.102  11.211  0.2001 -0.1265  0.1721
 1229TIP3    H125178   1.056   1.094  11.120  1.7629  0.4969 -0.4064
 1229TIP3    H225179   1.145   1.027  11.223 -0.0158 -0.2140  0.6853
 1230TIP3   OH225180   1.866   6.629   3.643 -0.3301  0.4373 -0.0898
 1230TIP3    H125181   1.912   6.712   3.627  1.1161 -0.6886 -1.9353
 1230TIP3    H225182   1.804   6.650   3.713 -1.0720  3.5090 -1.5516
 1231TIP3   OH225183   0.277   0.495  14.559 -0.8791  0.2761 -0.3786
 1231TIP3    H125184   0.336   0.514  14.487 -0.4436  0.4276  0.0130
 1231TIP3    H225185   0.197   0.543  14.539 -0.6654  0.5288 -0.6241
 1232TIP3   OH225186   2.606   3.337   5.790 -0.0356 -0.1406 -0.0205
 1232TIP3    H125187   2.699   3.339   5.814 -0.0741  1.0323  0.0701
 1232TIP3    H225188   2.601   3.274   5.718  0.6160 -1.1816  0.8138
 1233TIP3   OH225189   5.104   0.074  15.773  0.2000 -0.3164 -0.1921
 1233TIP3    H125190   5.126   0.086  15.865 -2.6432 -1.1599  0.6387
 1233TIP3    H225191   5.143   0.150  15.729 -0.9060  1.6625  2.1275
 1234TIP3   OH225192   5.490   1.418  16.640  0.1568  0.1252 -0.6382
 1234TIP3    H125193   5.509   1.480  16.570 -0.5504 -1.1179 -1.9634
 1234TIP3    H225194   5.488   1.333  16.596 -0.3211 -0.6646  0.8953
 1235TIP3   OH225195   4.415   4.019  14.984 -0.6687  0.1932 -0.8244
 1235TIP3    H125196   4.369   4.030  15.067  2.5209 -2.5825  1.4519
 1235TIP3    H225197   4.348   3.984  14.924 -2.0593 -1.6173  1.7129
 1236TIP3   OH225198   4.634   1.007   2.674 -0.2610 -0.2541 -0.0232
 1236TIP3    H125199   4.564   1.046   2.622 -1.0932 -0.0835  1.1993
 1236TIP3    H225200   4.624   1.046   2.761  0.7325 -0.9836  0.4323
 1237TIP3   OH225201   6.289   1.192   3.645 -0.3421 -0.8455  0.3495
 1237TIP3    H125202   6.347   1.213   3.572  0.5637  0.3478  1.3949
 1237TIP3    H225203   6.263   1.277   3.680 -2.7028 -1.3543 -0.0632
 1238TIP3   OH225204   4.610   3.271   2.491 -0.1794 -0.3613  0.4070
 1238TIP3    H125205   4.597   3.366   2.491  0.5371 -0.2555 -0.2114
 1238TIP3    H225206   4.695   3.259   2.450  0.9529 -1.1268  2.9078
 1239TIP3   OH225207   1.639   5.558   1.000  0.1837  0.3774  0.3354
 1239TIP3    H125208   1.594   5.642   1.002  1.7303  1.2051  0.9743
 1239TIP3    H225209   1.732   5.580   0.991  0.6391 -1.2427  0.8468
 1240TIP3   OH225210   6.078   1.995   5.258  0.3649 -0.1496  0.4206
 1240TIP3    H125211   6.026   2.027   5.185 -1.0583  0.0934  1.5084
 1240TIP3    H225212   6.014   1.980   5.328  1.3219 -2.8954  0.7830
 1241TIP3   OH225213   6.405   1.002   0.425 -0.3885  0.0063 -0.1015
 1241TIP3    H125214   6.483   0.948   0.429 -0.9398 -0.8562 -0.9011
 1241TIP3    H225215   6.343   0.961   0.486 -0.5570  0.1458 -0.1761
 1242TIP3   OH225216   6.692   0.397   4.730  0.1706  0.9063  0.4393
 1242TIP3    H125217   6.610   0.443   4.745  0.6686  2.2250 -0.7384
 1242TIP3    H225218   6.674   0.341   4.654  0.5737  1.7820 -0.3120
 1243TIP3   OH225219   4.198   6.287  14.933  0.7792 -0.2821 -0.3291
 1243TIP3    H125220   4.280   6.275  14.981  0.3033 -0.3829  0.4587
 1243TIP3    H225221   4.129   6.266  14.996  0.1812 -2.0212 -1.5177
 1244TIP3   OH225222   1.292   0.640   1.052  1.4656 -0.3720 -0.2098
 1244TIP3    H125223   1.292   0.567   1.113 -0.2600 -1.5600 -1.5656
 1244TIP3    H225224   1.359   0.617   0.987  0.6231 -0.9668 -0.8736
 1245TIP3   OH225225   2.580   3.010  13.896 -0.2237  0.2351 -0.2915
 1245TIP3    H125226   2.487   3.022  13.878 -0.4728 -1.3330 -0.1206
 1245TIP3    H225227   2.624   3.038  13.815 -0.9476 -0.4558 -0.9405
 1246TIP3   OH225228   6.647   4.976   4.773  0.0757 -0.6647 -0.0166
 1246TIP3    H125229   6.694   5.057   4.793 -1.0272 -0.2495  0.9520
 1246TIP3    H225230   6.629   4.982   4.679 -0.1062  0.2623  0.0742
 1247TIP3   OH225231   2.878   4.623  12.595  0.1486  0.1406  0.1665
 1247TIP3    H125232   2.949   4.570  12.631  1.5863 -0.4021 -3.3070
 1247TIP3    H225233   2.800   4.567  12.601  1.4490 -2.0724 -2.4882
 1248TIP3   OH225234   2.729   1.596  14.278  0.0968  0.5889  0.3673
 1248TIP3    H125235   2.696   1.572  14.192  1.3351 -0.2094  0.1032
 1248TIP3    H225236   2.731   1.514  14.327 -0.6812  1.0522  1.1800
 1249TIP3   OH225237   1.658   2.387  16.037 -0.1554  0.2816  0.3428
 1249TIP3    H125238   1.688   2.419  16.123  0.4875 -0.5261  0.4257
 1249TIP3    H225239   1.563   2.379  16.046 -0.4043  2.6048  0.1738
 1250TIP3   OH225240   4.121   0.561  17.061  0.0136 -0.0249  0.4679
 1250TIP3    H125241   4.146   0.470  17.077 -0.0368 -0.3491 -1.2580
 1250TIP3    H225242   4.163   0.583  16.978 -1.5685  0.8971 -0.1098
 1251TIP3   OH225243   3.000   6.209   0.741  0.0218  0.2179  0.6805
 1251TIP3    H125244   3.010   6.145   0.670 -0.6299  0.0057  0.7757
 1251TIP3    H225245   3.056   6.283   0.715 -0.8743  0.5002 -0.4685
 1252TIP3   OH225246   0.815   3.289   2.530  0.0839  0.0537 -0.7195
 1252TIP3    H125247   0.747   3.331   2.476  0.2960 -0.9593 -1.8006
 1252TIP3    H225248   0.811   3.197   2.506  1.3117 -0.1469 -0.2049
 1253TIP3   OH225249   3.111   5.553   3.691 -0.1997 -0.7506 -0.0285
 1253TIP3    H125250   3.112   5.640   3.651 -0.4151 -0.6040  0.2824
 1253TIP3    H225251   3.026   5.548   3.735 -0.6825 -1.5729 -1.0288
 1254TIP3   OH225252   0.585   1.398  15.171  0.1976  0.3102 -0.2820
 1254TIP3    H125253   0.502   1.394  15.219 -0.0028 -0.1218 -0.6572
 1254TIP3    H225254   0.600   1.309  15.142  1.4673  0.1145  0.9007
 1255TIP3   OH225255   1.884   2.387  15.874  0.8601  0.0099 -0.1062
 1255TIP3    H125256   1.882   2.476  15.838  0.2162 -0.1510 -0.4691
 1255TIP3    H225257   1.830   2.392  15.953  1.2964  0.0772  0.1895
 1256TIP3   OH225258   3.080   3.668  11.439  0.0228 -0.0298 -0.1767
 1256TIP3    H125259   3.153   3.606  11.440  1.1103  1.2157 -0.7249
 1256TIP3    H225260   3.122   3.754  11.428 -1.5727  0.6404 -1.1549
 1257TIP3   OH225261   4.719   4.403  13.195  0.1699  0.3450  0.2239
 1257TIP3    H125262   4.714   4.328  13.136 -2.7598 -0.4265  1.3459
 1257TIP3    H225263   4.794   4.385  13.251 -0.0627 -1.4037 -0.0043
 1258TIP3   OH225264   4.759   4.555  15.912 -0.2966  0.4658 -0.1283
 1258TIP3    H125265   4.846   4.546  15.952 -1.1707  1.5571  2.1038
 1258TIP3    H225266   4.752   4.480  15.853  2.1379  0.3492 -0.3274
 1259TIP3   OH225267   4.990   0.918   3.558  0.6070  0.5901 -0.0244
 1259TIP3    H125268   5.047   0.856   3.513  0.2431  0.2606 -0.0281
 1259TIP3    H225269   4.990   0.889   3.649 -0.7002 -0.2619 -0.2898
 1260TIP3   OH225270   2.014   1.723  15.831 -0.0345  0.1715 -0.2557
 1260TIP3    H125271   1.925   1.739  15.799  1.0087  3.5851 -1.5560
 1260TIP3    H225272   2.066   1.794  15.796  3.1363 -1.3991  1.0623
 1261TIP3   OH225273   2.180   1.344   0.682  0.7607  0.1207 -0.1610
 1261TIP3    H125274   2.170   1.418   0.743  1.5431  0.8496 -0.9042
 1261TIP3    H225275   2.144   1.269   0.730 -0.9400  1.1542  0.2386
 1262TIP3   OH225276   4.661   2.421   6.270  0.4937  0.6596  0.3618
 1262TIP3    H125277   4.589   2.438   6.331 -0.9729 -1.9934 -0.5281
 1262TIP3    H225278   4.702   2.341   6.303  1.5398  0.8582 -0.4413
 1263TIP3   OH225279   6.475   1.227   4.659 -0.0954 -0.0467  0.0185
 1263TIP3    H125280   6.446   1.156   4.717  0.4658 -1.0991 -0.9732
 1263TIP3    H225281   6.568   1.236   4.678 -0.0207 -0.0397 -0.3443
 1264TIP3   OH225282   5.655   2.299  13.629  0.2926 -0.1148 -0.3073
 1264TIP3    H125283   5.574   2.328  13.587 -0.3569 -1.5820 -0.1117
 1264TIP3    H225284   5.719   2.367  13.608 -1.0747  1.2506 -0.1656
 1265TIP3   OH225285   2.853   4.229  16.088 -0.0799  0.0691 -0.1002
 1265TIP3    H125286   2.795   4.185  16.150  1.0779 -1.4923 -0.0842
 1265TIP3    H225287   2.819   4.205  16.002 -1.0679  1.3907 -0.0920
 1266TIP3   OH225288   2.262   2.726   0.217  0.1844 -0.2403  0.2886
 1266TIP3    H125289   2.168   2.743   0.229  0.3894  0.1130  1.4904
 1266TIP3    H225290   2.266   2.667   0.142 -1.0003 -0.1927  0.1705
 1267TIP3   OH225291   3.293   1.704   2.531 -0.6632  1.2548  0.2028
 1267TIP3    H125292   3.309   1.792   2.495  2.3651  0.4779 -0.5040
 1267TIP3    H225293   3.332   1.707   2.619  0.0290  0.4460 -0.0694
 1268TIP3   OH225294   5.276   4.020  17.283  0.1604 -0.3753  0.2460
 1268TIP3    H125295   5.260   3.972  17.202 -0.3094 -2.1121  1.3331
 1268TIP3    H225296   5.197   4.071  17.298  0.4885  0.4105 -0.7004
 1269TIP3   OH225297   3.306   5.224  17.081  0.4294  0.3646 -0.4479
 1269TIP3    H125298   3.328   5.132  17.066 -0.0127  0.2558 -0.4036
 1269TIP3    H225299   3.236   5.223  17.146  0.1242  0.7140 -0.7639
 1270TIP3   OH225300   3.681   2.418  12.731 -0.1492 -0.1521  0.6296
 1270TIP3    H125301   3.755   2.442  12.677 -0.5114 -1.4972 -0.5064
 1270TIP3    H225302   3.660   2.497  12.781  0.3440  1.0308 -1.0043
 1271TIP3   OH225303   0.857   1.739  17.153 -0.0840 -0.0825  0.1095
 1271TIP3    H125304   0.843   1.674  17.085 -0.6380 -0.2656  0.3983
 1271TIP3    H225305   0.947   1.724  17.182 -0.4140 -1.1218  0.6022
 1272TIP3   OH225306   3.995   5.449   4.155 -0.1390 -0.3221 -0.1666
 1272TIP3    H125307   4.020   5.424   4.243  0.6488  0.4066 -0.1819
 1272TIP3    H225308   3.907   5.412   4.144  0.0884 -1.1125  0.6175
 1273TIP3   OH225309   6.476   5.679   0.849  0.0071 -0.5280 -0.2922
 1273TIP3    H125310   6.563   5.703   0.817  0.3363 -0.2991  0.7619
 1273TIP3    H225311   6.448   5.755   0.900 -0.4368 -0.9682  0.1139
 1274TIP3   OH225312   4.084   2.443   5.595 -0.2616 -0.6070  0.0887
 1274TIP3    H125313   4.094   2.533   5.564 -1.1287 -0.6617 -0.3502
 1274TIP3    H225314   4.012   2.407   5.543 -1.1611 -0.9667  1.5663
 1275TIP3   OH225315   6.181   2.827   1.386 -0.2955  0.5692  0.2831
 1275TIP3    H125316   6.136   2.880   1.452  0.0988  1.0211  0.1909
 1275TIP3    H225317   6.128   2.748   1.379 -0.3670  0.5374  1.1108
 1276TIP3   OH225318   4.528   5.495   3.200 -0.0203  0.2329  0.0259
 1276TIP3    H125319   4.473   5.468   3.127  1.6393 -1.1902 -0.7181
 1276TIP3    H225320   4.609   5.527   3.159  1.0464 -0.8681  1.2175
 1277TIP3   OH225321   0.065   3.056   2.164 -0.4064  0.4590  0.2563
 1277TIP3    H125322  -0.006   3.107   2.126  0.7869  0.6681 -1.7135
 1277TIP3    H225323   0.113   3.020   2.089  2.4953  1.5526  1.5187
 1278TIP3   OH225324   0.861   0.689   6.030 -0.2085 -0.6307  0.6185
 1278TIP3    H125325   0.790   0.751   6.048  0.0781 -0.3998  0.9665
 1278TIP3    H225326   0.922   0.739   5.975  0.7075 -0.1400  2.0493
 1279TIP3   OH225327   4.119   3.027   2.030 -0.1778  0.5213 -0.6297
 1279TIP3    H125328   4.154   2.955   2.083 -0.9532  0.7555  0.2305
 1279TIP3    H225329   4.186   3.044   1.964  1.0152  0.4926  0.5379
 1280TIP3   OH225330   5.167   5.710  12.883  0.0192 -0.1041 -0.0027
 1280TIP3    H125331   5.234   5.643  12.877 -1.2108 -1.4376  0.9416
 1280TIP3    H225332   5.175   5.746  12.971 -0.7594 -0.5457  0.2547
 1281TIP3   OH225333   3.800   5.027   5.000 -1.1196  0.1235 -0.5583
 1281TIP3    H125334   3.750   5.005   5.079 -0.8396  2.3579  0.3076
 1281TIP3    H225335   3.882   4.980   5.009 -1.8364 -1.1103 -0.4400
 1282TIP3   OH225336   4.994   4.153  16.938 -0.3015  0.4523  0.3311
 1282TIP3    H125337   5.048   4.110  16.871 -1.1408  0.0124 -0.0799
 1282TIP3    H225338   5.043   4.231  16.962  0.6688 -0.1110  0.1962
 1283TIP3   OH225339   2.235   2.804  11.566 -1.2305 -0.1325  0.0177
 1283TIP3    H125340   2.325   2.818  11.535 -0.8677  1.0828  1.6120
 1283TIP3    H225341   2.238   2.716  11.605 -0.4995  0.2816  0.9131
 1284TIP3   OH225342   4.358   1.337   2.042 -0.8190  0.0411  0.5362
 1284TIP3    H125343   4.432   1.396   2.023 -1.9027  1.0310 -0.6853
 1284TIP3    H225344   4.284   1.375   1.995 -0.9199 -3.9040 -2.7828
 1285TIP3   OH225345   3.294   4.058   2.633  0.6931  0.4197 -0.4400
 1285TIP3    H125346   3.203   4.065   2.603  1.2011 -0.3659 -2.2217
 1285TIP3    H225347   3.296   3.978   2.685  0.4722  0.2028 -0.7680
 1286TIP3   OH225348   4.329   4.097   1.674 -0.1791  0.4133  0.3218
 1286TIP3    H125349   4.335   4.045   1.593 -2.6277  0.0437  0.3389
 1286TIP3    H225350   4.418   4.095   1.710  0.9592  0.5571 -2.3265
 1287TIP3   OH225351   6.727   5.556   4.874 -0.0737  0.3511  0.3030
 1287TIP3    H125352   6.799   5.577   4.814 -2.7638  2.1877 -2.4162
 1287TIP3    H225353   6.739   5.616   4.948  1.8103 -0.1684  0.4524
 1288TIP3   OH225354   6.350   3.213  15.950  0.1076  0.4010  0.1828
 1288TIP3    H125355   6.352   3.283  15.885 -0.5468  0.1196 -0.1499
 1288TIP3    H225356   6.407   3.244  16.021  0.9457  0.6486 -0.5822
 1289TIP3   OH225357   0.118   1.593  14.172  0.8794 -0.2297  1.3723
 1289TIP3    H125358   0.075   1.631  14.248  1.2694 -2.2897  2.6669
 1289TIP3    H225359   0.196   1.647  14.159  0.1571  0.8923  1.6637
 1290TIP3   OH225360   2.019   3.509   3.830  0.2854 -0.4847 -0.0281
 1290TIP3    H125361   2.081   3.469   3.892  0.5986 -0.1081 -0.0930
 1290TIP3    H225362   1.997   3.594   3.869  0.5561 -0.2050 -0.4712
 1291TIP3   OH225363   5.538   4.784  14.779 -0.1554  0.3199 -0.3007
 1291TIP3    H125364   5.611   4.741  14.735  1.2826  1.4355  0.9385
 1291TIP3    H225365   5.575   4.816  14.862 -1.9441  1.2414  0.1776
 1292TIP3   OH225366   2.129   1.071   3.202 -0.2239 -0.0389 -0.1006
 1292TIP3    H125367   2.147   0.987   3.245 -1.3170  0.2454  0.9124
 1292TIP3    H225368   2.201   1.080   3.138 -0.3048 -1.9144 -0.4948
 1293TIP3   OH225369   3.392   6.109   4.539  0.1119  0.1727 -0.3161
 1293TIP3    H125370   3.336   6.044   4.582 -0.4647  0.9650  0.1331
 1293TIP3    H225371   3.423   6.065   4.460  0.7178 -1.0914  0.6061
 1294TIP3   OH225372   5.130   2.952  12.786  0.0256 -0.7783  0.3416
 1294TIP3    H125373   5.040   2.976  12.807  0.2955  0.7633 -0.2055
 1294TIP3    H225374   5.154   2.889  12.854 -0.7410  0.4667  1.8036
 1295TIP3   OH225375   2.665   5.427   6.669 -0.7940  0.5533 -0.9038
 1295TIP3    H125376   2.724   5.447   6.597 -1.7183 -0.2010 -1.8920
 1295TIP3    H225377   2.700   5.347   6.707 -0.2001  1.0524 -0.3922
 1296TIP3   OH225378   1.227   2.361   1.013 -0.1913  0.0412  0.1122
 1296TIP3    H125379   1.294   2.292   1.018  0.9605  1.0392 -1.0722
 1296TIP3    H225380   1.276   2.442   1.028 -1.3399  0.6956  0.3620
 1297TIP3   OH225381   5.061   1.648   5.087  0.1051 -0.3982 -0.0571
 1297TIP3    H125382   5.078   1.581   5.021  0.7819 -0.3043  0.0188
 1297TIP3    H225383   5.087   1.730   5.044  0.0506 -0.2779  0.1397
 1298TIP3   OH225384   4.303   2.473  16.896 -0.3234  0.4988  0.0111
 1298TIP3    H125385   4.237   2.455  16.963 -1.5165  2.1845 -0.7045
 1298TIP3    H225386   4.267   2.545  16.845  2.0325  1.3946 -0.4387
 1299TIP3   OH225387   4.858   5.103  11.091 -0.2195 -0.1000  0.4716
 1299TIP3    H125388   4.787   5.041  11.074 -0.8859  0.2483  1.8165
 1299TIP3    H225389   4.930   5.075  11.035 -1.5000 -0.3336 -1.0877
 1300TIP3   OH225390   3.151   2.183   1.066  0.4254  0.1733  0.2808
 1300TIP3    H125391   3.168   2.097   1.105  0.5078  0.3699  0.6892
 1300TIP3    H225392   3.237   2.212   1.035  1.0180  1.4998  3.0311
 1301TIP3   OH225393   0.492   3.163  10.694  0.4520 -0.6441 -0.0674
 1301TIP3    H125394   0.582   3.130  10.702  0.3773 -1.8229 -3.2211
 1301TIP3    H225395   0.490   3.206  10.608 -1.6966  0.3452  0.4513
 1302TIP3   OH225396   5.701   1.885   6.237  0.3142  0.5471  0.2225
 1302TIP3    H125397   5.620   1.907   6.284  0.1793 -0.0124  0.2471
 1302TIP3    H225398   5.721   1.795   6.263  0.3576  0.3086 -0.6222
 1303TIP3   OH225399   5.017   5.801  13.894 -0.0820 -0.3219 -0.1904
 1303TIP3    H125400   5.108   5.776  13.904 -0.3700 -0.7963  1.3548
 1303TIP3    H225401   4.991   5.833  13.980 -0.6219  2.3459 -1.2965
 1304TIP3   OH225402   2.273   1.902  15.994  0.0279  0.1789 -0.3232
 1304TIP3    H125403   2.290   1.811  15.973 -1.1895  0.1419 -1.1407
 1304TIP3    H225404   2.277   1.906  16.090  0.1190 -0.7115 -0.2931
 1305TIP3   OH225405   0.917   2.225   3.970  0.1370  0.4582 -0.8272
 1305TIP3    H125406   0.885   2.272   3.893  3.2751 -1.2809 -3.3179
 1305TIP3    H225407   0.973   2.289   4.015  0.2392  0.7324 -1.3326
 1306TIP3   OH225408   2.195   3.599  10.812  0.3186 -0.1637  0.3636
 1306TIP3    H125409   2.190   3.692  10.834  1.1132 -0.0038 -0.1135
 1306TIP3    H225410   2.134   3.589  10.739 -2.5625 -0.7547  2.7343
 1307TIP3   OH225411   3.809   4.440  12.317 -0.1229  0.3613 -0.0370
 1307TIP3    H125412   3.879   4.445  12.252  0.2315 -3.5932 -0.0918
 1307TIP3    H225413   3.764   4.358  12.297 -1.7171  0.4141  3.0714
 1308TIP3   OH225414   0.827   4.775   3.177  1.0786 -0.0083  0.3581
 1308TIP3    H125415   0.736   4.767   3.146  1.2410 -0.5349  0.0253
 1308TIP3    H225416   0.853   4.863   3.150  0.4910  0.3509  0.9265
 1309TIP3   OH225417   6.775   3.652   3.586  0.3770 -1.0021 -0.2005
 1309TIP3    H125418   6.836   3.656   3.659  0.8914 -0.5988 -0.6476
 1309TIP3    H225419   6.802   3.574   3.537  0.4833 -0.8707 -0.3522
 1310TIP3   OH225420   4.963   4.310   3.488  0.3180 -0.4134 -0.1249
 1310TIP3    H125421   5.006   4.395   3.493  0.6387 -0.4910 -1.4813
 1310TIP3    H225422   4.994   4.263   3.565  0.6671  0.4417  0.2629
 1311TIP3   OH225423   0.965   1.395  16.768  0.1460 -0.3047  0.5641
 1311TIP3    H125424   0.983   1.301  16.766 -0.8483 -0.4884  0.0659
 1311TIP3    H225425   1.009   1.430  16.691 -0.5897 -0.5642  0.0234
 1312TIP3   OH225426   4.898   3.057   5.253 -0.2459 -0.3073 -0.4588
 1312TIP3    H125427   4.814   3.092   5.283  0.1890  2.6011 -2.4188
 1312TIP3    H225428   4.875   3.000   5.180 -0.5463  0.6463 -1.1260
 1313TIP3   OH225429   0.045   0.702   0.907  0.2800 -0.2864 -0.2442
 1313TIP3    H125430  -0.002   0.717   0.989  1.6252 -0.2631  0.5416
 1313TIP3    H225431   0.136   0.725   0.927  1.1774 -3.0691 -0.8956
 1314TIP3   OH225432   4.203   3.882  11.239  0.4569 -0.1293 -0.7059
 1314TIP3    H125433   4.116   3.890  11.201  1.4337  1.1741 -2.7774
 1314TIP3    H225434   4.195   3.813  11.305 -2.3813  0.7525 -0.0833
 1315TIP3   OH225435   1.367   1.410  15.979 -0.3283  0.6516 -0.2476
 1315TIP3    H125436   1.334   1.499  15.990  0.9024  1.2818 -1.4474
 1315TIP3    H225437   1.343   1.387  15.889 -2.2007 -0.9222  0.6161
 1316TIP3   OH225438   3.433   5.447  12.297  0.2455  0.3131  0.3427
 1316TIP3    H125439   3.433   5.543  12.298  1.3781  0.4115 -3.0752
 1316TIP3    H225440   3.494   5.423  12.227 -0.9574 -2.8916  0.2852
 1317TIP3   OH225441   3.457   0.362   6.215 -0.0469 -0.3087 -0.2545
 1317TIP3    H125442   3.381   0.317   6.178 -0.9514  1.7273 -0.9529
 1317TIP3    H225443   3.530   0.336   6.160 -0.7854  0.0147 -1.4068
 1318TIP3   OH225444   3.253   2.428   4.000  0.4575  0.0949 -0.9110
 1318TIP3    H125445   3.331   2.382   3.970  0.2057 -0.3070 -0.9524
 1318TIP3    H225446   3.186   2.405   3.935  0.1985  0.1042 -0.6435
 1319TIP3   OH225447   0.622   1.027   6.805  0.0248  0.5754  0.4162
 1319TIP3    H125448   0.577   0.956   6.759  0.0691  0.9444 -0.2066
 1319TIP3    H225449   0.709   1.031   6.764 -0.6170  2.2068 -0.8621
 1320TIP3   OH225450   3.641   3.925   3.588 -0.4709 -0.6416 -0.2700
 1320TIP3    H125451   3.681   4.002   3.628  0.4859 -1.1985 -0.1373
 1320TIP3    H225452   3.639   3.860   3.659 -0.3736 -1.0609 -0.6505
 1321TIP3   OH225453   2.255   4.261  13.308  0.5449 -0.2365  0.4538
 1321TIP3    H125454   2.195   4.190  13.286  1.2281 -1.1018  1.3747
 1321TIP3    H225455   2.319   4.261  13.236  0.3224 -0.2925  0.2539
 1322TIP3   OH225456   0.439   4.846   3.923  0.0251  0.2891 -0.0886
 1322TIP3    H125457   0.514   4.895   3.956 -0.3244  1.6029 -1.1844
 1322TIP3    H225458   0.468   4.814   3.837 -0.7200  0.9549 -0.5919
 1323TIP3   OH225459   0.986   6.104   0.626  0.5443  0.5257 -0.0856
 1323TIP3    H125460   0.937   6.022   0.618  0.1081  0.8276 -0.5535
 1323TIP3    H225461   1.034   6.112   0.544 -0.2823  1.2886 -0.5075
 1324TIP3   OH225462   5.097   2.629   5.951 -0.0156  0.2612  0.4609
 1324TIP3    H125463   5.111   2.717   5.918 -1.1545  0.2868  0.0103
 1324TIP3    H225464   5.185   2.592   5.961  0.5529  2.0304  2.3064
 1325TIP3   OH225465   4.235   5.285  15.212  0.2022 -0.4131 -0.0595
 1325TIP3    H125466   4.302   5.281  15.144 -1.1948  1.9493 -1.6434
 1325TIP3    H225467   4.218   5.193  15.234  0.6543 -1.2510 -2.9552
 1326TIP3   OH225468   6.295   6.414   0.295  0.6745 -0.0059  0.5139
 1326TIP3    H125469   6.218   6.453   0.253  0.0962  1.0284  2.4777
 1326TIP3    H225470   6.351   6.488   0.317  2.4039 -0.7740 -1.1416
 1327TIP3   OH225471   2.142   2.577  12.682  0.3910 -0.3155 -0.9156
 1327TIP3    H125472   2.065   2.578  12.624  1.4346 -0.1636 -2.3221
 1327TIP3    H225473   2.213   2.609  12.627  1.2759  0.4429  0.6615
 1328TIP3   OH225474   0.757   3.020   2.514  0.2995 -0.6496 -0.0720
 1328TIP3    H125475   0.766   2.965   2.592 -1.3136 -0.9997 -0.1188
 1328TIP3    H225476   0.825   2.989   2.455  3.4497  1.4976  2.2535
 1329TIP3   OH225477   1.398   5.689   3.669  0.2316 -0.2185 -0.0978
 1329TIP3    H125478   1.347   5.747   3.613  0.2396 -0.3190 -0.2078
 1329TIP3    H225479   1.356   5.695   3.755 -0.6356 -1.1551 -0.4545
 1330TIP3   OH225480   5.136   0.366  16.153  0.0902 -0.3804  0.1337
 1330TIP3    H125481   5.163   0.331  16.068 -0.7400  1.2992 -0.8436
 1330TIP3    H225482   5.074   0.436  16.132 -0.3925 -0.1731  2.1399
 1331TIP3   OH225483   5.039   3.380   2.119  0.1116 -0.1399  0.4426
 1331TIP3    H125484   5.044   3.471   2.148 -0.4242  0.5338 -1.4857
 1331TIP3    H225485   4.949   3.370   2.088  0.9712 -0.4483 -2.0643
 1332TIP3   OH225486   0.917   6.427   1.133  0.2851 -0.5595 -0.5759
 1332TIP3    H125487   0.939   6.483   1.059  0.0774 -0.8812 -0.8832
 1332TIP3    H225488   0.822   6.436   1.143  0.5721  1.0319  0.9123
 1333TIP3   OH225489   4.075   4.736   3.881 -0.0623  0.6682 -0.0294
 1333TIP3    H125490   4.140   4.711   3.946 -1.1046 -1.2653  0.3046
 1333TIP3    H225491   4.117   4.719   3.797 -0.6085 -1.9491  0.1931
 1334TIP3   OH225492   3.976   3.871  14.469 -0.2561  0.8371 -0.1936
 1334TIP3    H125493   4.038   3.923  14.521  0.8774 -0.0587 -0.6317
 1334TIP3    H225494   3.905   3.932  14.449 -1.2301  0.9300  3.2766
 1335TIP3   OH225495   5.970   5.372  17.067 -0.2872  0.0278  0.0758
 1335TIP3    H125496   5.908   5.354  16.998  0.2722 -1.4151 -0.0626
 1335TIP3    H225497   5.917   5.377  17.147 -0.7212  0.0846 -0.2133
 1336TIP3   OH225498   4.667   0.643  10.624  0.9198 -0.4942 -0.1119
 1336TIP3    H125499   4.698   0.733  10.626 -1.4389  0.3919 -0.9062
 1336TIP3    H225500   4.695   0.609  10.539 -2.7994  1.3242 -2.2055
 1337TIP3   OH225501   6.413   4.495   5.231 -0.1969  0.0324  0.0408
 1337TIP3    H125502   6.337   4.529   5.278 -0.2347 -0.9555  0.7280
 1337TIP3    H225503   6.462   4.446   5.298  0.3888 -0.3648 -0.6774
 1338TIP3   OH225504   3.845   1.153  10.792 -0.0509  0.0923  0.1312
 1338TIP3    H125505   3.920   1.145  10.850 -1.0942 -3.4726  1.0822
 1338TIP3    H225506   3.872   1.110  10.711 -0.4767  0.3649 -0.1618
 1339TIP3   OH225507   2.588   3.850  17.222 -0.0817  0.4286  0.0687
 1339TIP3    H125508   2.530   3.908  17.272  0.2751  1.3758 -0.6136
 1339TIP3    H225509   2.609   3.899  17.143  0.7982 -0.3415 -0.1812
 1340TIP3   OH225510   4.589   1.787  16.326 -0.3901 -0.3472  0.6661
 1340TIP3    H125511   4.515   1.725  16.323  0.5046 -1.3994  0.0830
 1340TIP3    H225512   4.600   1.806  16.419 -0.9079 -0.7903  0.8197
 1341TIP3   OH225513   2.512   1.918   5.845  0.7219 -0.3915 -0.8669
 1341TIP3    H125514   2.472   1.834   5.822 -0.4377 -0.6753  1.9338
 1341TIP3    H225515   2.484   1.978   5.777 -2.1794 -1.2709 -0.5037
 1342TIP3   OH225516   3.887   5.176  16.412  0.1511  0.2140 -0.7155
 1342TIP3    H125517   3.826   5.113  16.450  0.7655  0.9669  1.6057
 1342TIP3    H225518   3.911   5.138  16.328 -0.0670 -2.3110  0.3113
 1343TIP3   OH225519   3.063   2.810  11.621 -0.7175 -0.2555 -0.7118
 1343TIP3    H125520   3.157   2.792  11.627 -0.4817  0.5606 -1.8831
 1343TIP3    H225521   3.040   2.784  11.532 -1.5059 -0.0128 -0.5752
 1344TIP3   OH225522   4.831   4.400  16.782 -0.4698 -0.2154 -0.4046
 1344TIP3    H125523   4.848   4.417  16.875 -0.8540  1.1616 -0.5911
 1344TIP3    H225524   4.786   4.478  16.750  0.5700 -0.2307 -2.0014
 1345TIP3   OH225525   0.834   3.724  14.907  0.4919  0.4624 -0.9561
 1345TIP3    H125526   0.895   3.790  14.939 -0.6147  0.9411  0.2003
 1345TIP3    H225527   0.755   3.735  14.960  0.3271 -1.8851 -0.6390
 1346TIP3   OH225528   5.022   2.533  11.913  0.1304 -0.6697 -0.1725
 1346TIP3    H125529   4.974   2.461  11.954 -0.1384 -0.3429  0.0855
 1346TIP3    H225530   4.979   2.613  11.945 -0.9800 -0.4246 -2.1511
 1347TIP3   OH225531   2.372   5.127  16.836 -0.7308  0.4955  0.3685
 1347TIP3    H125532   2.356   5.099  16.926 -2.0556  1.4956  0.4551
 1347TIP3    H225533   2.351   5.220  16.835  0.8093  0.8571 -0.6208
 1348TIP3   OH225534   0.284   0.376   5.422  0.2253  0.1260 -0.2495
 1348TIP3    H125535   0.353   0.311   5.409  1.6703  1.2790  1.4917
 1348TIP3    H225536   0.314   0.453   5.373  0.2538  0.6889  0.6510
 1349TIP3   OH225537   4.280   4.682   3.693  0.7087 -0.9247  0.6634
 1349TIP3    H125538   4.350   4.736   3.728  0.3995 -1.2404  1.8021
 1349TIP3    H225539   4.323   4.600   3.667  0.7360 -1.1850  1.5254
 1350TIP3   OH225540   4.484   5.805   3.844 -0.0332 -0.5476 -0.6182
 1350TIP3    H125541   4.512   5.830   3.755  0.5679 -1.1676 -0.6177
 1350TIP3    H225542   4.470   5.887   3.889  0.5070 -0.2210 -1.0356
 1351TIP3   OH225543   3.190   6.402  16.152  0.4578 -0.4689 -0.3138
 1351TIP3    H125544   3.267   6.453  16.177 -0.2108  0.0186  0.8172
 1351TIP3    H225545   3.159   6.362  16.233 -1.1128  0.2251 -0.5360
 1352TIP3   OH225546   0.399   1.455  15.573 -0.6348 -0.0422 -0.0716
 1352TIP3    H125547   0.477   1.506  15.552 -0.3934 -0.4204 -0.0871
 1352TIP3    H225548   0.367   1.424  15.488  0.2550 -1.4441  0.0770
 1353TIP3   OH225549   0.167   4.836  16.958  0.1790 -0.5235 -0.9018
 1353TIP3    H125550   0.206   4.750  16.940 -1.2512 -1.4155  0.1263
 1353TIP3    H225551   0.185   4.852  17.051 -2.4852 -1.3023 -0.2062
 1354TIP3   OH225552   3.110   5.835   4.875 -0.2247  0.1489 -0.2118
 1354TIP3    H125553   3.104   5.837   4.971 -0.2129 -0.4387 -0.1962
 1354TIP3    H225554   3.109   5.741   4.853 -1.0019  0.2997 -0.8364
 1355TIP3   OH225555   0.357   4.262   6.282 -0.3503 -0.3366 -0.0132
 1355TIP3    H125556   0.408   4.325   6.332  0.3647  0.3101 -1.5172
 1355TIP3    H225557   0.360   4.295   6.192  0.4571 -2.7814 -0.9253
 1356TIP3   OH225558   5.365   0.024  16.864 -0.0295 -0.2506 -0.0611
 1356TIP3    H125559   5.413   0.077  16.928  1.4985 -2.3410  0.5947
 1356TIP3    H225560   5.275   0.025  16.896  0.3379  0.4003  1.0064
 1357TIP3   OH225561   6.042   4.257   4.527  0.5898  0.0125 -0.6564
 1357TIP3    H125562   6.039   4.287   4.436 -0.5653 -1.2837 -1.0602
 1357TIP3    H225563   6.084   4.171   4.522  1.6235  0.4622  0.1902
 1358TIP3   OH225564   3.151   6.709   3.901 -0.2870 -0.2002 -0.5544
 1358TIP3    H125565   3.073   6.669   3.863 -0.8120 -0.4221  0.7122
 1358TIP3    H225566   3.127   6.800   3.916 -0.1681 -0.1691 -0.5543
 1359TIP3   OH225567   2.290   1.611   0.356  0.0853  0.2709  0.0750
 1359TIP3    H125568   2.299   1.609   0.261 -1.6447  0.4995 -0.1053
 1359TIP3    H225569   2.201   1.642   0.371  0.5102  0.7161  1.7790
 1360TIP3   OH225570   1.016   4.949  16.165 -0.3246  0.6739 -0.3173
 1360TIP3    H125571   1.026   4.873  16.108 -0.8224  0.0905  0.3646
 1360TIP3    H225572   1.086   5.009  16.137  1.5173 -0.9716  0.6509
 1361TIP3   OH225573   5.296   3.960   1.896 -0.0185  0.1564 -0.2049
 1361TIP3    H125574   5.282   3.870   1.926 -2.2222  0.3390 -0.5866
 1361TIP3    H225575   5.370   3.991   1.947  1.7375 -2.3526 -1.1249
 1362TIP3   OH225576   1.626   0.179   1.695  0.5497 -0.2949  0.0322
 1362TIP3    H125577   1.701   0.168   1.753  1.6129  1.5277 -0.9521
 1362TIP3    H225578   1.663   0.170   1.607 -0.2880  1.0825 -0.4735
 1363TIP3   OH225579   3.998   1.392   3.479  0.0919 -0.2466 -0.1451
 1363TIP3    H125580   3.974   1.484   3.489 -0.5442 -0.0813 -2.7999
 1363TIP3    H225581   3.915   1.348   3.460  0.3978 -1.4004  1.0720
 1364TIP3   OH225582   5.983   2.735  11.698  0.4155  0.7406 -0.6036
 1364TIP3    H125583   5.918   2.671  11.726  1.6771 -0.6600 -0.8546
 1364TIP3    H225584   6.000   2.788  11.776  1.0208 -0.6569  0.2371
 1365TIP3   OH225585   4.399   3.269   3.463  0.4137 -0.0036  0.7667
 1365TIP3    H125586   4.426   3.269   3.371 -1.6806  2.1030  0.1081
 1365TIP3    H225587   4.482   3.277   3.512  1.4388  0.1800 -0.9646
 1366TIP3   OH225588   5.727   2.629   2.252  0.7902 -0.6510 -0.3913
 1366TIP3    H125589   5.806   2.619   2.199  0.5265 -1.0320 -0.7098
 1366TIP3    H225590   5.655   2.620   2.190  0.5019  0.6349 -0.2601
 1367TIP3   OH225591   3.362   5.396   3.958  0.0019  0.1579 -0.7007
 1367TIP3    H125592   3.269   5.395   3.983  1.0346  0.2882  3.3504
 1367TIP3    H225593   3.391   5.306   3.973  0.7628  0.3303 -1.1309
 1368TIP3   OH225594   4.010   2.426  16.776 -0.2119  0.5602 -0.0904
 1368TIP3    H125595   4.021   2.513  16.738  0.7475  0.4300 -0.1068
 1368TIP3    H225596   4.057   2.429  16.859 -1.3225  0.4724  0.5517
 1369TIP3   OH225597   4.648   6.678   4.714 -0.1566  0.3887  0.6900
 1369TIP3    H125598   4.683   6.720   4.636  1.6137  0.5093  1.5378
 1369TIP3    H225599   4.676   6.735   4.786  0.7936 -1.3123  1.6907
 1370TIP3   OH225600   6.313   3.506   6.058  0.2035 -0.2909 -0.2908
 1370TIP3    H125601   6.284   3.563   5.987  0.7610  0.2093 -0.1221
 1370TIP3    H225602   6.401   3.478   6.030  0.6789  0.4055  0.4860
 1371TIP3   OH225603   6.288   2.907  16.890  0.2718 -0.1723  0.4512
 1371TIP3    H125604   6.371   2.954  16.890 -0.7876  1.7835 -0.5354
 1371TIP3    H225605   6.253   2.920  16.978  0.9472 -0.9116  0.8345
 1372TIP3   OH225606   4.195   5.060  16.449  0.5484  0.1852 -0.3290
 1372TIP3    H125607   4.182   5.017  16.534  2.8835 -1.5169 -0.7990
 1372TIP3    H225608   4.172   5.152  16.465 -1.9837 -0.6887  1.3526
 1373TIP3   OH225609   1.386   3.731  13.315 -0.2113  0.2519 -0.1942
 1373TIP3    H125610   1.475   3.694  13.318 -0.6054 -0.6937 -0.0734
 1373TIP3    H225611   1.336   3.678  13.377 -0.8579  0.8020 -0.2426
 1374TIP3   OH225612   6.469   5.428  13.208  0.3985  0.0978  0.4666
 1374TIP3    H125613   6.531   5.476  13.263 -0.8845 -0.8079  2.8061
 1374TIP3    H225614   6.397   5.490  13.193  0.1093 -0.0969  1.0128
 1375TIP3   OH225615   4.306   6.205  12.287 -0.7087  0.2507 -1.1191
 1375TIP3    H125616   4.364   6.253  12.346 -0.5052 -0.0748 -1.0589
 1375TIP3    H225617   4.220   6.246  12.300 -1.2410 -1.5621  1.3383
 1376TIP3   OH225618   6.029   3.180   4.974 -0.0363  0.4931 -0.2130
 1376TIP3    H125619   6.036   3.269   4.940  0.4636  0.3000 -0.6294
 1376TIP3    H225620   6.007   3.126   4.898 -2.5786  0.5544  0.4238
 1377TIP3   OH225621   1.122   4.145   6.522 -0.2818 -0.1105 -0.2776
 1377TIP3    H125622   1.089   4.196   6.596  1.7303  2.9486 -1.3731
 1377TIP3    H225623   1.192   4.092   6.559  0.8627  1.5677  0.0236
 1378TIP3   OH225624   6.643   4.005   4.341  0.8906  0.1751  0.3455
 1378TIP3    H125625   6.671   3.980   4.253 -0.9088 -0.4056 -0.0801
 1378TIP3    H225626   6.623   4.098   4.334 -3.4271 -0.7656 -1.0159
 1379TIP3   OH225627   6.440   2.714  17.042 -0.2603 -0.2732 -0.7291
 1379TIP3    H125628   6.491   2.763  17.107 -0.2913 -1.0083 -0.1319
 1379TIP3    H225629   6.441   2.768  16.964 -0.5264  0.8082 -0.0029
 1380TIP3   OH225630   3.430   2.197   4.420 -0.5817  0.1704  0.6072
 1380TIP3    H125631   3.474   2.149   4.490 -2.1670 -1.0054  0.8423
 1380TIP3    H225632   3.337   2.196   4.445 -1.0554  0.5096 -1.0430
 1381TIP3   OH225633   5.178   6.096   4.948 -0.2357  0.3982 -0.2616
 1381TIP3    H125634   5.115   6.098   4.876  0.8987 -1.3030 -1.3469
 1381TIP3    H225635   5.255   6.139   4.913 -0.1030  0.6692  0.3616
 1382TIP3   OH225636   3.720   1.909  16.598 -0.4425 -0.3301 -0.0536
 1382TIP3    H125637   3.666   1.953  16.664  0.1737 -1.3629  1.1637
 1382TIP3    H225638   3.805   1.899  16.640 -0.3135 -1.8677 -0.6523
 1383TIP3   OH225639   0.694   2.976  13.164 -0.0397  0.1111 -0.1736
 1383TIP3    H125640   0.625   2.939  13.109  0.5091 -0.2723 -0.6084
 1383TIP3    H225641   0.703   2.915  13.237  1.5878 -1.1984 -1.4252
 1384TIP3   OH225642   5.765   6.102   0.951  0.1177  0.1134 -0.1430
 1384TIP3    H125643   5.716   6.044   1.009  1.1303 -1.3229 -0.6667
 1384TIP3    H225644   5.706   6.174   0.931 -1.1903 -0.7763  0.5043
 1385TIP3   OH225645   1.922   1.618   3.394  0.6124  0.1000  0.0397
 1385TIP3    H125646   1.904   1.697   3.344  0.9977  0.2729  0.1698
 1385TIP3    H225647   2.018   1.613   3.398  0.5972  0.6484  1.6332
 1386TIP3   OH225648   1.681   5.842   1.788 -0.4705 -0.1096  0.5014
 1386TIP3    H125649   1.740   5.917   1.790 -0.5580 -0.0264 -0.0379
 1386TIP3    H225650   1.594   5.880   1.788 -0.5231 -0.2271  0.9790
 1387TIP3   OH225651   5.246   5.333  12.492  0.1224  0.4199 -0.2597
 1387TIP3    H125652   5.258   5.289  12.577  0.4196 -1.0494 -1.0459
 1387TIP3    H225653   5.321   5.392  12.485  0.5180 -0.0286  0.1498
 1388TIP3   OH225654   6.738   3.982   1.351  0.1588  0.0191  1.0164
 1388TIP3    H125655   6.821   3.981   1.302 -0.1841 -0.3805  0.4371
 1388TIP3    H225656   6.736   4.068   1.393  0.4382  0.3863  0.2890
 1389TIP3   OH225657   1.760   0.037   5.180  0.4562 -0.4800 -0.0789
 1389TIP3    H125658   1.769   0.045   5.275  1.0233 -0.0330 -0.1684
 1389TIP3    H225659   1.819  -0.035   5.156  1.0906  0.0711 -0.2106
 1390TIP3   OH225660   3.161   0.833  12.427  0.1947  0.4572 -0.2437
 1390TIP3    H125661   3.113   0.752  12.444  0.7848  0.0427 -0.5098
 1390TIP3    H225662   3.217   0.844  12.504 -0.7638  1.2680  0.3455
 1391TIP3   OH225663   3.655   3.592  17.109 -0.1186  0.1407 -0.3435
 1391TIP3    H125664   3.605   3.572  17.188  0.2378 -0.3719 -0.2488
 1391TIP3    H225665   3.641   3.686  17.095  0.7615  0.4792  0.9810
 1392TIP3   OH225666   6.313   5.427  11.962  0.3870  0.6177  0.6826
 1392TIP3    H125667   6.384   5.482  11.996  1.2534 -0.0766  0.0433
 1392TIP3    H225668   6.358   5.364  11.905 -0.8095  0.5088 -0.1543
 1393TIP3   OH225669   0.197   5.207  11.797  0.4366 -0.4647 -0.2832
 1393TIP3    H125670   0.266   5.141  11.787  1.7889  0.9536 -0.4976
 1393TIP3    H225671   0.189   5.246  11.710  2.5728  2.4708  0.7563
 1394TIP3   OH225672   6.307   2.005   4.231 -0.5734  0.1427  0.2277
 1394TIP3    H125673   6.257   1.968   4.159 -0.5892 -0.7995  0.7171
 1394TIP3    H225674   6.301   1.940   4.301 -0.0439  0.7654  0.8634
 1395TIP3   OH225675   2.907   1.887   3.211 -0.5094 -1.2480  0.3101
 1395TIP3    H125676   2.951   1.914   3.131 -0.7863 -2.7458 -0.3546
 1395TIP3    H225677   2.953   1.935   3.280 -0.8440  0.7188 -0.8006
 1396TIP3   OH225678   2.385   5.466   2.303 -0.0465  0.1643  0.0805
 1396TIP3    H125679   2.430   5.542   2.267 -1.0554 -0.1395 -1.8939
 1396TIP3    H225680   2.455   5.409   2.334  0.7164  1.9822  1.8091
 1397TIP3   OH225681   4.029   4.247   3.040  0.0294  0.0778 -0.0031
 1397TIP3    H125682   4.046   4.154   3.055 -0.2125 -0.3656 -2.4339
 1397TIP3    H225683   3.935   4.257   3.052  0.1630  0.2007  1.0726
 1398TIP3   OH225684   6.165   2.451   0.952  1.0842 -0.7666  0.2638
 1398TIP3    H125685   6.121   2.536   0.950  3.3601  0.4551  0.0007
 1398TIP3    H225686   6.155   2.417   0.863 -1.3952 -1.6251  0.8492
 1399TIP3   OH225687   0.683   3.850   6.754 -0.1155  0.0429  0.1168
 1399TIP3    H125688   0.774   3.820   6.752 -1.0438 -3.2648  2.1999
 1399TIP3    H225689   0.638   3.794   6.691 -0.9912  0.6199  0.2214
 1400TIP3   OH225690   2.777   3.469   2.955  0.0263 -0.5664 -0.1679
 1400TIP3    H125691   2.779   3.396   2.894  1.3553 -0.5771 -0.1095
 1400TIP3    H225692   2.860   3.515   2.942 -1.4123  1.8546 -1.3061
 1401TIP3   OH225693   4.925   6.274   2.565 -0.2814  0.4460  0.3615
 1401TIP3    H125694   4.882   6.313   2.641  1.8008 -0.4755  2.0905
 1401TIP3    H225695   4.963   6.193   2.599  1.3584  0.4120 -1.4830
 1402TIP3   OH225696   2.585   5.667   6.772  0.4994  0.0767 -0.7373
 1402TIP3    H125697   2.589   5.573   6.754  0.1833 -0.0411 -0.2104
 1402TIP3    H225698   2.676   5.695   6.777  0.6536 -0.8323  2.2926
 1403TIP3   OH225699   5.592   6.690  10.978 -0.6745  0.2763  0.2102
 1403TIP3    H125700   5.638   6.771  10.959 -1.2396  0.6185  0.2789
 1403TIP3    H225701   5.506   6.701  10.938 -0.6387 -0.4275 -0.0741
 1404TIP3   OH225702   1.338   1.962   0.725  0.6219 -0.0220 -0.2753
 1404TIP3    H125703   1.422   1.990   0.760  0.7775 -0.9138  0.0964
 1404TIP3    H225704   1.347   1.867   0.716  0.0899  0.0342 -1.4254
 1405TIP3   OH225705   6.619   5.411  12.655  0.1161  0.6512 -0.5267
 1405TIP3    H125706   6.561   5.370  12.590 -0.8041 -1.3011  1.4655
 1405TIP3    H225707   6.704   5.417  12.610 -0.4096 -0.9984 -1.8081
 1406TIP3   OH225708   4.274   6.773  14.333 -0.3168 -0.3846 -0.1318
 1406TIP3    H125709   4.332   6.734  14.399  0.6949 -0.1417 -0.8637
 1406TIP3    H225710   4.311   6.744  14.249 -0.7877  0.4328 -0.6240
 1407TIP3   OH225711   4.371   2.464   0.010  0.2732 -0.5466  0.5007
 1407TIP3    H125712   4.450   2.414  -0.010  0.1041 -1.5177  2.2107
 1407TIP3    H225713   4.300   2.415  -0.032  0.4424 -0.2137 -0.1839
 1408TIP3   OH225714   0.838   5.715   0.901 -0.0050 -0.2561 -0.6305
 1408TIP3    H125715   0.855   5.766   0.821 -0.0265  0.9787  0.1294
 1408TIP3    H225716   0.783   5.643   0.873  1.3048 -0.7446 -2.0205
 1409TIP3   OH225717   0.806   0.777   0.229 -0.1467  0.3584  0.0065
 1409TIP3    H125718   0.726   0.819   0.197  0.7790  1.3148 -1.1059
 1409TIP3    H225719   0.850   0.746   0.150  2.4472  3.2393  0.2250
 1410TIP3   OH225720   4.668   6.047  12.058 -0.1559  0.0499  0.2002
 1410TIP3    H125721   4.614   6.034  12.136  0.0363 -0.0351  0.3180
 1410TIP3    H225722   4.618   6.109  12.004 -0.0872  0.4321  0.5769
 1411TIP3   OH225723   2.370   5.703  12.418  0.2278 -0.1058  0.2380
 1411TIP3    H125724   2.356   5.716  12.512 -0.5121  1.2083 -0.0517
 1411TIP3    H225725   2.419   5.781  12.390 -0.4955  0.0172 -0.6755
 1412TIP3   OH225726   1.230   4.163  12.104  0.3344  0.2405 -0.2281
 1412TIP3    H125727   1.251   4.078  12.145  2.3401  1.6677  1.8408
 1412TIP3    H225728   1.138   4.178  12.128  1.4901  1.1377  4.1727
 1413TIP3   OH225729   6.661   4.475  17.227  0.0371  0.4323 -0.0449
 1413TIP3    H125730   6.690   4.494  17.138  0.9854  0.8712  0.3552
 1413TIP3    H225731   6.566   4.462  17.219  0.4051 -1.7399 -1.4765
 1414TIP3   OH225732   2.416   2.376   1.748 -0.3370  0.7019 -0.0370
 1414TIP3    H125733   2.446   2.404   1.661  1.3502  0.9334  0.6092
 1414TIP3    H225734   2.496   2.373   1.801 -1.1541 -0.8851  1.1160
 1415TIP3   OH225735   1.776   4.786  12.519 -0.4449 -0.0016 -0.5306
 1415TIP3    H125736   1.754   4.706  12.471  0.8522 -0.4957 -0.3305
 1415TIP3    H225737   1.833   4.834  12.460  2.2601 -1.2390  0.9949
 1416TIP3   OH225738   2.521   2.218   1.387 -0.1967  0.0519 -0.1542
 1416TIP3    H125739   2.438   2.209   1.342 -0.3486  2.3640 -0.3937
 1416TIP3    H225740   2.507   2.177   1.472 -0.9651 -1.2696 -0.9046
 1417TIP3   OH225741   5.201   5.572  14.609  0.2362 -0.1916 -0.0798
 1417TIP3    H125742   5.235   5.517  14.539  1.4751  0.2125  0.1796
 1417TIP3    H225743   5.276   5.584  14.668 -0.5705  0.1184  0.8950
 1418TIP3   OH225744   5.937   0.861   6.794 -0.1026  0.3646  0.5154
 1418TIP3    H125745   5.880   0.918   6.742 -0.2450 -0.1896  0.0512
 1418TIP3    H225746   5.882   0.833   6.867 -0.1844  0.4326  0.4800
 1419TIP3   OH225747   4.443   1.042   4.499 -0.0181  0.2358 -0.4006
 1419TIP3    H125748   4.358   1.036   4.543 -0.0604  1.2618 -0.3382
 1419TIP3    H225749   4.505   1.061   4.569  0.5501 -2.3011 -0.1711
 1420TIP3   OH225750   4.708   2.582  12.329 -0.4551 -0.8962  0.1141
 1420TIP3    H125751   4.632   2.641  12.325 -0.0832 -0.4879 -1.0904
 1420TIP3    H225752   4.672   2.496  12.310 -0.7690 -0.8451  0.4714
 1421TIP3   OH225753   3.044   3.924   2.416  0.4221  0.0684 -0.4778
 1421TIP3    H125754   3.001   3.872   2.349  0.6800 -0.5361 -0.1842
 1421TIP3    H225755   3.037   3.871   2.496  0.4129  0.6251 -0.1078
 1422TIP3   OH225756   2.324   0.664  16.171  0.0877 -0.6180 -0.8021
 1422TIP3    H125757   2.361   0.606  16.237 -1.0932  0.3286  0.7454
 1422TIP3    H225758   2.282   0.605  16.108 -1.0232 -1.4718  0.6937
 1423TIP3   OH225759   6.693   0.001  13.622 -0.0991  0.2607 -0.4859
 1423TIP3    H125760   6.706   0.083  13.574 -1.7983  0.4915 -0.5637
 1423TIP3    H225761   6.599  -0.002  13.640 -0.2115 -2.1681 -1.3417
 1424TIP3   OH225762   0.978   0.593  16.116 -0.1547 -0.4785 -0.5565
 1424TIP3    H125763   0.891   0.625  16.142 -0.0812 -0.4853 -0.2976
 1424TIP3    H225764   1.009   0.546  16.193  0.8067  0.9993 -0.0308
 1425TIP3   OH225765   3.601   2.727  13.918 -0.4078  0.0955  0.5587
 1425TIP3    H125766   3.560   2.661  13.862  1.5800  1.1408 -2.2451
 1425TIP3    H225767   3.687   2.691  13.938  0.9366  2.0329 -1.5084
 1426TIP3   OH225768   3.833   5.252   1.932 -0.0045 -0.3888 -0.1284
 1426TIP3    H125769   3.787   5.201   1.998 -0.2495 -1.1866 -0.9063
 1426TIP3    H225770   3.890   5.189   1.889  1.4454  0.4826  0.4829
 1427TIP3   OH225771   3.949   4.178   2.638  0.5536 -0.0433 -0.0453
 1427TIP3    H125772   4.042   4.178   2.660  1.1125  1.9067 -2.1904
 1427TIP3    H225773   3.939   4.109   2.572  1.0298  1.4285 -1.7171
 1428TIP3   OH225774   2.544   5.479  14.822 -0.6762  0.1920 -0.5207
 1428TIP3    H125775   2.453   5.456  14.842 -0.6056  0.5779  0.2536
 1428TIP3    H225776   2.596   5.424  14.880 -0.4852  1.7552  0.8395
 1429TIP3   OH225777   0.566   5.717   6.681  0.3589  0.8082  0.6262
 1429TIP3    H125778   0.564   5.802   6.725  0.7393  0.2862  1.6755
 1429TIP3    H225779   0.541   5.736   6.591  0.5209  2.0430  0.8335
 1430TIP3   OH225780   3.913   5.170   0.765  0.6508  0.0410 -0.4797
 1430TIP3    H125781   3.832   5.144   0.809  0.4038  1.7309  0.0875
 1430TIP3    H225782   3.892   5.253   0.722  1.8434  0.0741 -1.0213
 1431TIP3   OH225783   2.894   2.136   5.143  0.4730  0.8790 -0.1878
 1431TIP3    H125784   2.893   2.048   5.179 -1.5180  0.1682 -1.9016
 1431TIP3    H225785   2.857   2.191   5.212  1.2309  0.3154  0.6799
 1432TIP3   OH225786   0.518   1.429   5.872  0.3103  0.4595 -0.4061
 1432TIP3    H125787   0.523   1.525   5.874 -1.6465  0.5477  1.0417
 1432TIP3    H225788   0.552   1.402   5.957  3.7927 -0.3372 -1.9464
 1433TIP3   OH225789   3.665   6.226  12.928 -0.6604 -0.0459 -0.1773
 1433TIP3    H125790   3.662   6.298  12.991  1.5980 -2.3179  2.7017
 1433TIP3    H225791   3.735   6.249  12.868 -0.3458  0.4236  0.3701
 1434TIP3   OH225792   1.865   2.619   4.499 -0.2418 -0.3474 -0.8769
 1434TIP3    H125793   1.899   2.530   4.497  1.4820  0.2262  0.9559
 1434TIP3    H225794   1.772   2.609   4.516 -0.1326 -1.7942 -1.0600
 1435TIP3   OH225795   6.023   3.403   4.837 -0.0618  1.3775 -0.2304
 1435TIP3    H125796   5.983   3.373   4.755  0.6787 -2.3096  0.6466
 1435TIP3    H225797   6.081   3.474   4.811  1.3884 -0.7779 -3.1831
 1436TIP3   OH225798   4.471   2.198   0.447  0.0787  0.0438 -0.5316
 1436TIP3    H125799   4.464   2.239   0.361 -3.8550 -0.9928 -0.7828
 1436TIP3    H225800   4.449   2.267   0.509  2.2233  0.6022 -0.3537
 1437TIP3   OH225801   0.378   5.820   5.891  0.3071 -0.0406 -0.3909
 1437TIP3    H125802   0.373   5.776   5.975 -2.0150 -2.7071 -1.8161
 1437TIP3    H225803   0.290   5.858   5.879  1.6783  3.3927 -0.0644
 1438TIP3   OH225804   6.182   0.453  16.415  0.1604  0.1609  0.0669
 1438TIP3    H125805   6.094   0.436  16.382  0.7785 -0.2111 -1.4232
 1438TIP3    H225806   6.169   0.514  16.487 -1.5601 -1.8863  1.5578
 1439TIP3   OH225807   5.749   4.776  11.771  0.0260 -0.5926  0.6390
 1439TIP3    H125808   5.693   4.815  11.838 -1.6162  0.2216 -1.1502
 1439TIP3    H225809   5.835   4.815  11.785 -0.4207 -0.0466  1.9330
 1440TIP3   OH225810   3.327   1.249   1.891  0.1381 -0.0036  0.3446
 1440TIP3    H125811   3.250   1.302   1.872 -0.3567 -0.9651 -0.3882
 1440TIP3    H225812   3.401   1.308   1.876 -0.3874  0.2951 -1.1372
 1441TIP3   OH225813   5.603   3.603   0.554 -0.0436  0.4424  0.2074
 1441TIP3    H125814   5.690   3.641   0.564 -0.6204  1.6191  0.7982
 1441TIP3    H225815   5.579   3.623   0.464  0.0222  0.6829  0.2435
 1442TIP3   OH225816   5.928   0.588   4.369  0.1900 -0.5147  0.3169
 1442TIP3    H125817   5.849   0.595   4.423  1.1907 -2.3032  2.0829
 1442TIP3    H225818   6.000   0.596   4.431  1.4793  2.6986 -1.4818
 1443TIP3   OH225819   4.032   3.063  16.211 -0.2016  0.2171  0.3106
 1443TIP3    H125820   3.938   3.070  16.224 -0.0214  0.0420  1.8170
 1443TIP3    H225821   4.042   3.001  16.138 -1.2935  2.0522 -1.4328
 1444TIP3   OH225822   4.587   5.678   0.008 -0.0321 -0.2247 -0.0421
 1444TIP3    H125823   4.669   5.688   0.057  0.3332  0.3716 -0.7627
 1444TIP3    H225824   4.540   5.609   0.054  0.7540 -0.3769  0.5476
 1445TIP3   OH225825   6.081   0.194   4.857  0.4400 -0.4937  0.8083
 1445TIP3    H125826   6.037   0.171   4.776  0.8277  0.5964  0.2864
 1445TIP3    H225827   6.097   0.110   4.900 -1.5356 -0.9402  0.6997
 1446TIP3   OH225828   2.317   0.056  12.250 -0.1698  0.3400 -0.0432
 1446TIP3    H125829   2.409   0.083  12.243  0.1659 -0.3363  1.4015
 1446TIP3    H225830   2.292   0.083  12.338 -1.0758 -0.2970 -0.1028
 1447TIP3   OH225831   1.672   4.031  13.835  0.1174  0.1208  0.5121
 1447TIP3    H125832   1.626   3.957  13.796  0.6291 -0.2097  0.5330
 1447TIP3    H225833   1.699   4.085  13.760 -0.1726  0.2401  0.4927
 1448TIP3   OH225834   6.006   5.626   6.354  0.7171 -0.5364 -0.0975
 1448TIP3    H125835   6.070   5.640   6.285  2.4959 -0.7966  1.4710
 1448TIP3    H225836   6.056   5.630   6.435 -0.9361 -2.5574  1.0891
 1449TIP3   OH225837   1.070   3.757   2.335  0.2947 -0.2667  0.3529
 1449TIP3    H125838   0.978   3.768   2.312  0.7230  0.4691 -1.0474
 1449TIP3    H225839   1.081   3.811   2.414  0.2413  2.1972 -1.2657
 1450TIP3   OH225840   4.370   5.499  13.914 -0.5154  0.2886  0.3111
 1450TIP3    H125841   4.406   5.519  14.001 -1.1337  1.0559  0.3922
 1450TIP3    H225842   4.307   5.569  13.897 -1.6094 -0.7644 -0.0494
 1451TIP3   OH225843   3.522   2.066   3.818 -0.4380  0.2539 -0.1127
 1451TIP3    H125844   3.521   2.113   3.735  0.5109 -0.7384 -0.7059
 1451TIP3    H225845   3.432   2.037   3.830 -0.7263  0.9790 -0.4507
 1452TIP3   OH225846   0.076   6.498   4.601 -0.7395 -0.3709  0.1262
 1452TIP3    H125847   0.077   6.553   4.522 -2.6766  2.3627  1.9267
 1452TIP3    H225848   0.121   6.551   4.667 -1.4201 -1.5561  1.5495
 1453TIP3   OH225849   3.758   0.307   1.318 -0.4508  0.1687 -0.1145
 1453TIP3    H125850   3.729   0.243   1.383  1.5079 -1.0979 -0.4561
 1453TIP3    H225851   3.683   0.367   1.309 -1.4963 -0.7825  1.8181
 1454TIP3   OH225852   3.648   3.314  13.445  0.0581 -0.1683  0.4944
 1454TIP3    H125853   3.573   3.301  13.387  0.9572 -0.1073 -0.7100
 1454TIP3    H225854   3.670   3.227  13.476  1.2173 -0.5843 -1.3898
 1455TIP3   OH225855   3.782   6.113   1.884  0.1259 -0.0115  0.2980
 1455TIP3    H125856   3.875   6.114   1.904 -0.2135 -0.6114  1.9997
 1455TIP3    H225857   3.754   6.205   1.891  0.2732 -0.0455  1.3726
 1456TIP3   OH225858   5.066   1.423   1.518 -0.2591 -0.1854 -0.0819
 1456TIP3    H125859   5.014   1.493   1.558 -0.7636 -0.3085 -0.5279
 1456TIP3    H225860   5.013   1.344   1.528 -0.4238 -0.2035 -1.0751
 1457TIP3   OH225861   4.106   0.711  15.638 -0.1046 -0.8574  0.6204
 1457TIP3    H125862   4.100   0.763  15.558  0.6476 -0.9056  0.5374
 1457TIP3    H225863   4.032   0.651  15.633 -0.1127 -0.7975  0.0077
 1458TIP3   OH225864   2.169   5.085   0.845  0.8233 -0.1555  0.3436
 1458TIP3    H125865   2.247   5.033   0.823 -0.0230 -1.6328  0.7463
 1458TIP3    H225866   2.172   5.092   0.940  0.7605  0.2510  0.3128
 1459TIP3   OH225867   6.384   3.650   3.530  0.6921  0.2739  0.3355
 1459TIP3    H125868   6.300   3.693   3.513  0.4380 -0.9626 -1.7349
 1459TIP3    H225869   6.389   3.644   3.625 -0.7811  1.8804  0.5385
 1460TIP3   OH225870   1.494   3.979  16.664 -0.4762 -0.1659  0.6123
 1460TIP3    H125871   1.440   3.900  16.656 -1.0672  0.2308  0.6297
 1460TIP3    H225872   1.584   3.948  16.653 -0.6695 -0.9128  1.0911
 1461TIP3   OH225873   2.689   0.023  13.725  0.4798 -0.2870  0.5166
 1461TIP3    H125874   2.636   0.098  13.754 -0.9000 -1.4626  1.0968
 1461TIP3    H225875   2.766   0.026  13.782 -0.4396 -0.3703  1.7978
 1462TIP3   OH225876   4.959   4.760   4.091  0.7095  0.5094  0.3554
 1462TIP3    H125877   4.920   4.766   4.178  2.4620  0.0951  1.1960
 1462TIP3    H225878   5.010   4.840   4.082  2.5472 -0.5906  0.7399
 1463TIP3   OH225879   0.889   2.026  16.330  0.5294 -0.3046  0.0229
 1463TIP3    H125880   0.889   2.028  16.234  0.3403 -1.2423  0.0052
 1463TIP3    H225881   0.931   1.943  16.353  1.3494  0.3045  0.7600
 1464TIP3   OH225882   0.511   4.119  16.207 -0.1792  0.1401 -0.2661
 1464TIP3    H125883   0.550   4.168  16.135 -0.3433 -0.2047 -0.5864
 1464TIP3    H225884   0.435   4.171  16.233  0.7072  1.0308  0.6316
 1465TIP3   OH225885   6.767   1.527  16.340  0.4427  0.0402 -0.1790
 1465TIP3    H125886   6.702   1.541  16.271 -0.4761 -1.3843  0.3712
 1465TIP3    H225887   6.849   1.510  16.293  0.7906  3.4205 -0.8596
 1466TIP3   OH225888   1.430   0.748  14.335  0.3595  0.4786 -0.0353
 1466TIP3    H125889   1.505   0.803  14.361 -0.5101  0.8597  1.7251
 1466TIP3    H225890   1.363   0.811  14.309  0.0782  0.1942  0.0064
 1467TIP3   OH225891   4.305   1.597   5.083  0.0845  0.0387 -0.0153
 1467TIP3    H125892   4.344   1.672   5.128  2.4787 -0.9897 -0.2956
 1467TIP3    H225893   4.257   1.636   5.010  1.0894  1.3374 -0.0060
 1468TIP3   OH225894   6.517   3.113  12.455  0.3344 -0.8426  0.2687
 1468TIP3    H125895   6.591   3.099  12.396  0.9769 -0.4352  0.9711
 1468TIP3    H225896   6.514   3.035  12.510 -0.6593 -1.5106 -0.7110
 1469TIP3   OH225897   0.534   0.417   3.456  0.7222 -0.3758 -0.0715
 1469TIP3    H125898   0.465   0.455   3.402 -1.1366 -2.0692  1.0160
 1469TIP3    H225899   0.533   0.324   3.435  0.4725 -0.9466  2.2695
 1470TIP3   OH225900   4.340   5.240   3.983  0.2315 -0.3567 -0.1703
 1470TIP3    H125901   4.408   5.303   4.007 -0.2787 -0.0269  0.4246
 1470TIP3    H225902   4.299   5.277   3.905  0.9677 -0.7439 -0.7648
 1471TIP3   OH225903   2.903   2.751  16.862  0.7706  0.6371  0.3784
 1471TIP3    H125904   2.870   2.790  16.781  2.1194 -0.0046 -0.5040
 1471TIP3    H225905   2.828   2.703  16.897 -0.3341  2.4029  0.4579
 1472TIP3   OH225906   4.936   0.412  13.588  0.2913  0.1642 -0.1784
 1472TIP3    H125907   5.024   0.380  13.610  0.7080  0.8867 -0.7621
 1472TIP3    H225908   4.929   0.496  13.633 -0.7239 -0.6237  1.1861
 1473TIP3   OH225909   4.998   6.307  12.014  0.0818 -0.3531 -0.2644
 1473TIP3    H125910   4.942   6.368  11.965  1.1293 -0.2460 -1.3304
 1473TIP3    H225911   4.955   6.222  12.003 -0.8965  0.0302  0.4890
 1474TIP3   OH225912   6.561   2.357   4.334 -0.5455  0.5476  0.6631
 1474TIP3    H125913   6.625   2.347   4.405  0.4418  1.7289 -0.0232
 1474TIP3    H225914   6.577   2.282   4.277 -0.8048  0.0198  1.2839
 1475TIP3   OH225915   3.800   5.550  14.540  0.2795  1.0048 -0.1613
 1475TIP3    H125916   3.811   5.559  14.445 -3.6621  0.1458 -0.7560
 1475TIP3    H225917   3.841   5.466  14.561  1.9885  1.6226 -0.9169
 1476TIP3   OH225918   2.537   0.999  11.835 -0.5594  0.3952 -0.0199
 1476TIP3    H125919   2.547   1.037  11.748 -0.5163 -0.2253 -0.2927
 1476TIP3    H225920   2.610   1.035  11.886  0.6402 -0.8136 -0.8162
 1477TIP3   OH225921   6.800   0.853  16.701 -0.5911 -0.1873  0.2210
 1477TIP3    H125922   6.893   0.843  16.721 -0.3400  1.9031  0.2293
 1477TIP3    H225923   6.792   0.826  16.610 -0.1953 -1.4366  0.5421
 1478TIP3   OH225924   4.026   4.309  17.172  0.3467 -0.1325  0.0944
 1478TIP3    H125925   4.068   4.240  17.121  0.3582 -0.4983  0.6039
 1478TIP3    H225926   4.065   4.303  17.259 -1.4221 -1.0830  0.8377
 1479TIP3   OH225927   4.838   1.130   3.565 -0.3180 -0.2336  0.5224
 1479TIP3    H125928   4.755   1.081   3.566  0.0253 -0.8440 -0.3058
 1479TIP3    H225929   4.905   1.063   3.558  0.4011  0.1115  3.4124
 1480TIP3   OH225930   4.239   3.056   0.542  0.2603  0.3175 -0.1969
 1480TIP3    H125931   4.182   3.056   0.619  0.3888  1.8511 -0.0718
 1480TIP3    H225932   4.178   3.059   0.468  0.1459  1.9724 -0.0629
 1481TIP3   OH225933   6.292   4.583   0.919 -0.0302 -0.1253 -0.3083
 1481TIP3    H125934   6.270   4.668   0.879  0.1928  0.7809  1.4245
 1481TIP3    H225935   6.385   4.572   0.902  0.1409  0.4247  0.2406
 1482TIP3   OH225936   2.310   0.803  14.160 -0.0476 -0.3954 -0.9160
 1482TIP3    H125937   2.379   0.761  14.109  0.1506  0.4669 -1.3653
 1482TIP3    H225938   2.354   0.836  14.238 -0.6006 -2.9617  0.5430
 1483TIP3   OH225939   4.986   4.019   0.574 -0.1505  0.5312  0.1888
 1483TIP3    H125940   4.943   3.972   0.503 -1.7976  2.1586  0.0889
 1483TIP3    H225941   4.917   4.032   0.640  1.1220 -0.1544  1.6979
 1484TIP3   OH225942   0.737   1.714   1.882  0.3382  0.2387 -0.3775
 1484TIP3    H125943   0.815   1.660   1.870  0.0385 -0.2287 -0.2643
 1484TIP3    H225944   0.688   1.669   1.952 -0.5911 -0.1118 -1.2410
 1485TIP3   OH225945   5.773   3.201  13.106 -0.0889  0.1127 -0.4792
 1485TIP3    H125946   5.766   3.266  13.176 -0.1579 -1.2825  0.8364
 1485TIP3    H225947   5.864   3.206  13.077 -0.0472  0.6580 -0.2640
 1486TIP3   OH225948   4.152   6.294  14.651  0.1579  0.4357  0.0132
 1486TIP3    H125949   4.162   6.249  14.735  1.1103 -0.2141 -0.4284
 1486TIP3    H225950   4.113   6.378  14.673  2.1606  1.0520  1.3299
 1487TIP3   OH225951   5.406   3.552  10.906  0.4689  0.0371 -0.1972
 1487TIP3    H125952   5.433   3.495  10.834  0.9542  0.8645 -0.6694
 1487TIP3    H225953   5.372   3.630  10.864  1.3053  0.7784  0.4749
 1488TIP3   OH225954   3.394   4.574   4.523 -0.2734 -0.0134 -0.0243
 1488TIP3    H125955   3.359   4.656   4.489  0.8307 -0.3660 -2.1311
 1488TIP3    H225956   3.487   4.591   4.537 -0.3829 -0.3903  1.2342
 1489TIP3   OH225957   6.459   5.606   6.640 -0.5546  0.2255 -0.5853
 1489TIP3    H125958   6.514   5.622   6.716 -0.9585  1.1427 -0.4894
 1489TIP3    H225959   6.517   5.620   6.565  0.2195 -2.0112 -0.4565
 1490TIP3   OH225960   4.299   1.208  16.627  0.5047  0.9076 -0.0701
 1490TIP3    H125961   4.289   1.294  16.587  0.3731  0.7229 -0.4380
 1490TIP3    H225962   4.305   1.148  16.553  0.0134  0.5355  0.1882
 1491TIP3   OH225963   3.658   5.915   2.599 -0.2935  0.4956 -0.1451
 1491TIP3    H125964   3.735   5.972   2.600 -0.5307  0.8285 -0.7135
 1491TIP3    H225965   3.585   5.972   2.624 -0.5638  0.4931 -0.9101
 1492TIP3   OH225966   2.043   6.047  13.698 -0.1676 -0.0695  0.3727
 1492TIP3    H125967   2.123   5.996  13.711  0.6366  0.9073 -0.7235
 1492TIP3    H225968   2.067   6.115  13.636 -1.7675  0.4464  0.2946
 1493TIP3   OH225969   1.840   4.819   6.813  0.2775  0.4835 -0.3366
 1493TIP3    H125970   1.835   4.831   6.718  1.2073 -1.7839 -0.7331
 1493TIP3    H225971   1.761   4.770   6.835  1.6364 -1.8872 -0.5154
 1494TIP3   OH225972   3.596   4.575  14.962 -0.0719 -0.0300  0.5122
 1494TIP3    H125973   3.622   4.604  15.049  1.1178  1.9183 -0.4549
 1494TIP3    H225974   3.518   4.626  14.941  0.5609  0.6655 -0.1883
 1495TIP3   OH225975   0.506   0.131   5.661 -0.3548 -0.3908  0.1189
 1495TIP3    H125976   0.592   0.089   5.667 -0.0506  0.1962 -0.0522
 1495TIP3    H225977   0.519   0.203   5.599 -0.7951  0.1436  0.6402
 1496TIP3   OH225978   6.165   3.256  14.032  0.3853  0.0658 -0.4082
 1496TIP3    H125979   6.192   3.325  13.972 -0.9540  1.6365  0.7454
 1496TIP3    H225980   6.216   3.179  14.006  2.0489  1.5467 -1.5850
 1497TIP3   OH225981   3.430   2.245   0.971  0.4666  0.4022 -0.2333
 1497TIP3    H125982   3.500   2.207   0.918  1.0851  0.0376  0.8272
 1497TIP3    H225983   3.458   2.230   1.061 -0.6762  0.8254  0.1943
 1498TIP3   OH225984   2.658   2.095  16.240  0.1149  0.2286 -0.0292
 1498TIP3    H125985   2.678   2.186  16.259  0.0192  0.6435 -1.8295
 1498TIP3    H225986   2.671   2.086  16.145 -1.0872 -1.3112 -0.0782
 1499TIP3   OH225987   5.299   4.418   6.127  0.0979  0.5126  0.4145
 1499TIP3    H125988   5.259   4.331   6.130  1.3823 -0.0889  0.7363
 1499TIP3    H225989   5.252   4.469   6.193  0.3849 -0.4063  1.3369
 1500TIP3   OH225990   0.781   1.314  16.468  0.1548 -0.4690 -0.8126
 1500TIP3    H125991   0.829   1.256  16.528  1.5819 -1.6027 -2.9689
 1500TIP3    H225992   0.690   1.286  16.476 -0.1210  1.2350  2.8132
 1501TIP3   OH225993   3.192   0.106   3.594  0.1950 -0.5911 -0.4766
 1501TIP3    H125994   3.153   0.147   3.672 -0.6491  1.1788 -1.7953
 1501TIP3    H225995   3.132   0.035   3.573 -0.5028 -0.0014 -0.5017
 1502TIP3   OH225996   4.293   5.949  12.455  0.1841  0.2219 -0.3027
 1502TIP3    H125997   4.211   5.989  12.483  1.0667  1.5190  0.4527
 1502TIP3    H225998   4.359   5.985  12.514  1.2254 -1.2219 -0.5586
 1503TIP3   OH225999   0.726   2.588  13.901 -0.1870  0.1558  0.4458
 1503TIP3    H126000   0.745   2.682  13.893 -0.8238  0.1994 -0.5777
 1503TIP3    H226001   0.805   2.545  13.867  1.0495  0.2837  3.0068
 1504TIP3   OH226002   2.650   0.911  16.692  0.0224  0.3339  0.2569
 1504TIP3    H126003   2.648   0.904  16.787 -0.2356 -1.0038  0.1623
 1504TIP3    H226004   2.570   0.867  16.663  1.4130 -1.5959 -0.7076
 1505TIP3   OH226005   4.109   5.197   0.403  0.5239  0.1208 -0.4048
 1505TIP3    H126006   4.197   5.178   0.370  0.5156 -2.2957  0.8780
 1505TIP3    H226007   4.057   5.122   0.374 -0.2949 -0.2206  1.8876
 1506TIP3   OH226008   2.111   5.638   0.431 -0.3615  0.4453  0.2210
 1506TIP3    H126009   2.047   5.575   0.464  0.4362  0.1154  1.1740
 1506TIP3    H226010   2.073   5.670   0.350 -0.6953 -1.4638 -0.4207
 1507TIP3   OH226011   2.994   1.432  12.134  0.1255 -0.0615 -0.0354
 1507TIP3    H126012   3.003   1.511  12.186 -0.6549  0.2736 -0.3928
 1507TIP3    H226013   3.075   1.426  12.083 -0.0868  0.8629 -0.4849
 1508TIP3   OH226014   1.430   0.720  13.540 -0.1141  0.5367 -0.2260
 1508TIP3    H126015   1.348   0.701  13.494 -0.4041  0.8443  0.1641
 1508TIP3    H226016   1.470   0.634  13.553 -0.3257  0.3950 -0.5037
 1509TIP3   OH226017   6.699   2.869  10.373 -0.2300  0.1216  0.4285
 1509TIP3    H126018   6.765   2.817  10.328 -0.1870 -0.1561  0.8067
 1509TIP3    H226019   6.621   2.812  10.376 -0.8125  0.8283 -0.9198
 1510TIP3   OH226020   4.585   6.430  14.309 -0.0948  0.1870 -0.0735
 1510TIP3    H126021   4.601   6.340  14.281 -0.0785 -0.3881  1.6972
 1510TIP3    H226022   4.653   6.447  14.374 -1.5988  0.6014  1.4299
 1511TIP3   OH226023   0.024   6.054   1.050  0.1290  0.5993 -0.1476
 1511TIP3    H126024  -0.026   6.122   1.095  0.9906 -0.4459  2.4686
 1511TIP3    H226025  -0.020   5.972   1.071  0.3824  0.0959 -1.4769
 1512TIP3   OH226026   1.561   2.202  14.548  0.5122  0.1524 -0.0801
 1512TIP3    H126027   1.639   2.220  14.495 -0.0018 -0.3984 -1.0356
 1512TIP3    H226028   1.590   2.138  14.612  1.9368  3.0220  2.2896
 1513TIP3   OH226029   2.811   6.757  15.971 -0.0434  0.1676 -0.3338
 1513TIP3    H126030   2.757   6.680  15.993  1.3104 -1.0086 -1.0806
 1513TIP3    H226031   2.900   6.723  15.963  0.5902  1.8377 -0.6460
 1514TIP3   OH226032   5.619   4.818   2.184 -0.5502 -0.2141 -0.4469
 1514TIP3    H126033   5.637   4.871   2.261 -0.4387  0.5610 -1.0073
 1514TIP3    H226034   5.644   4.729   2.210 -0.6551  0.0133  0.4584
 1515TIP3   OH226035   4.672   6.730   5.523 -0.2596  0.3363 -0.3628
 1515TIP3    H126036   4.598   6.729   5.584  0.9399  2.0662  1.1963
 1515TIP3    H226037   4.726   6.804   5.552  2.0417 -0.8218 -1.4879
 1516TIP3   OH226038   4.953   3.382   3.199 -0.2045 -0.0480 -0.3963
 1516TIP3    H126039   5.006   3.451   3.239 -1.0214  0.1888  0.2908
 1516TIP3    H226040   4.933   3.415   3.112 -0.3753  0.4751 -0.1627
 1517TIP3   OH226041   4.830   0.962  11.777 -0.4168  0.0200 -0.2986
 1517TIP3    H126042   4.774   1.037  11.798 -0.5271  0.3443 -1.7053
 1517TIP3    H226043   4.916   1.000  11.762 -0.2915 -0.2306 -0.2074
 1518TIP3   OH226044   0.071   0.186  12.907 -0.2609  0.5008  0.4025
 1518TIP3    H126045  -0.025   0.179  12.902 -0.1440 -0.3488 -0.8740
 1518TIP3    H226046   0.102   0.140  12.829  1.1601  1.6057  0.3065
 1519TIP3   OH226047   1.769   3.081  12.016  0.1746 -0.0020 -0.1993
 1519TIP3    H126048   1.847   3.134  12.031  0.1146 -0.0183  0.1762
 1519TIP3    H226049   1.788   2.997  12.057  0.1992 -0.2145 -0.6392
 1520TIP3   OH226050   1.885   2.718  17.134 -0.0799 -0.8165  0.4129
 1520TIP3    H126051   1.921   2.710  17.046 -0.7295 -2.1470  0.2564
 1520TIP3    H226052   1.861   2.810  17.142 -2.6149 -1.2209 -1.8516
 1521TIP3   OH226053   0.247   3.958  16.756  0.0674  0.0586 -0.0728
 1521TIP3    H126054   0.273   3.974  16.665  1.0736 -0.2047  0.1567
 1521TIP3    H226055   0.294   4.025  16.807 -2.0335  1.4785  0.0711
 1522TIP3   OH226056   4.118   2.536   2.375  0.4910 -0.1583  0.1030
 1522TIP3    H126057   4.114   2.572   2.286 -0.6017  0.4588  0.3921
 1522TIP3    H226058   4.196   2.482   2.375  0.3412 -0.4010 -1.3274
 1523TIP3   OH226059   3.457   0.050   1.079 -0.4811  0.6624 -0.1282
 1523TIP3    H126060   3.486  -0.038   1.101  0.9846  0.8508 -1.2093
 1523TIP3    H226061   3.438   0.091   1.163  1.1200  0.0832  0.5401
 1524TIP3   OH226062   2.146   5.786  11.191  0.1160  0.2199 -0.5095
 1524TIP3    H126063   2.100   5.844  11.251 -1.4979 -0.0688 -1.4401
 1524TIP3    H226064   2.099   5.795  11.108  1.3784 -0.5355 -1.3224
 1525TIP3   OH226065   5.350   4.080   4.848  0.2192  0.4115 -0.4419
 1525TIP3    H126066   5.318   3.994   4.822  1.8539 -0.1499 -0.6720
 1525TIP3    H226067   5.285   4.141   4.812  0.0743 -0.6131 -1.9992
 1526TIP3   OH226068   6.730   1.712  13.554 -0.9778  0.0280 -0.2656
 1526TIP3    H126069   6.651   1.707  13.608 -0.6915 -2.4963 -0.0363
 1526TIP3    H226070   6.747   1.806  13.545 -2.5854  0.5413  1.7501
 1527TIP3   OH226071   5.293   1.835   2.690 -0.0818  0.1486  0.1947
 1527TIP3    H126072   5.328   1.859   2.776  0.6224  2.3471 -0.6999
 1527TIP3    H226073   5.210   1.882   2.683 -0.7113 -0.9312  0.1113
 1528TIP3   OH226074   6.186   4.775   1.403 -0.2308 -0.2688  0.1727
 1528TIP3    H126075   6.177   4.718   1.479  0.8278 -1.6207 -0.6873
 1528TIP3    H226076   6.201   4.715   1.330 -0.5629  1.0436 -0.9881
 1529TIP3   OH226077   2.193   2.585   5.393 -0.0291 -0.2397  0.2825
 1529TIP3    H126078   2.137   2.647   5.440 -1.3132 -0.9716 -0.2524
 1529TIP3    H226079   2.249   2.546   5.460  0.3309  1.0070  0.7169
 1530TIP3   OH226080   3.914   5.452  16.990 -0.1490  0.4491 -0.2804
 1530TIP3    H126081   3.894   5.486  17.077  1.4278 -0.4908  0.4793
 1530TIP3    H226082   3.988   5.504  16.961  1.8878 -1.8025  0.6330
 1531TIP3   OH226083   5.201   3.959  15.550 -0.2019  0.6713 -0.1892
 1531TIP3    H126084   5.208   3.910  15.468 -0.9719  1.5978 -0.8158
 1531TIP3    H226085   5.108   3.952  15.573 -0.3371  1.9527 -0.3530
 1532TIP3   OH226086   2.767   1.408   1.858 -0.3332 -0.5466  0.2262
 1532TIP3    H126087   2.687   1.365   1.889 -1.5659  0.3755 -1.5600
 1532TIP3    H226088   2.785   1.476   1.923 -1.0474 -0.7156  0.6108
 1533TIP3   OH226089   6.118   1.468  10.973 -0.1019 -0.4072 -0.5992
 1533TIP3    H126090   6.103   1.478  10.879  0.6352 -0.4675 -0.7252
 1533TIP3    H226091   6.184   1.399  10.979  0.7365  0.4232 -0.0976
 1534TIP3   OH226092   1.983   5.088  13.604  0.0252  0.6664 -0.1559
 1534TIP3    H126093   1.958   5.124  13.689  0.0891  2.4462 -0.8787
 1534TIP3    H226094   2.011   4.998  13.624  1.5268  1.5462  1.9451
 1535TIP3   OH226095   2.644   2.233  12.939  0.1783  0.2099  0.0711
 1535TIP3    H126096   2.610   2.303  12.995  2.0903  0.6245  0.7519
 1535TIP3    H226097   2.721   2.200  12.985  1.8406  0.5810 -2.2908
 1536TIP3   OH226098   3.401   5.922   3.071  0.8316 -0.2477 -0.4120
 1536TIP3    H126099   3.308   5.916   3.092  1.0400 -1.6709  0.1752
 1536TIP3    H226100   3.404   5.961   2.984 -0.3305 -0.5466 -0.5873
 1537TIP3   OH226101   2.489   6.135   4.581  0.3152 -0.2275  0.8114
 1537TIP3    H126102   2.450   6.216   4.547  2.4973  0.9510  1.0631
 1537TIP3    H226103   2.537   6.163   4.659  0.6816 -1.8551  1.1774
 1538TIP3   OH226104   4.369   3.527   1.451  0.4436  0.0120 -0.6696
 1538TIP3    H126105   4.440   3.574   1.496  0.5834 -1.2261  0.4614
 1538TIP3    H226106   4.296   3.589   1.450  1.1679  0.8733 -0.7617
 1539TIP3   OH226107   3.201   5.815   1.583  0.1082  0.1953  0.2856
 1539TIP3    H126108   3.171   5.724   1.595 -0.0639  0.3189  0.8154
 1539TIP3    H226109   3.296   5.810   1.591 -0.0352  0.3805  2.5673
 1540TIP3   OH226110   3.748   2.125   5.041 -0.3364 -0.3308 -0.1663
 1540TIP3    H126111   3.812   2.069   5.085 -0.1381  0.2034  0.2205
 1540TIP3    H226112   3.767   2.115   4.948 -0.2830 -0.8891 -0.0979
 1541TIP3   OH226113   5.966   0.881  17.195  0.7468  0.3781  0.0021
 1541TIP3    H126114   5.959   0.824  17.272  1.3632  1.4162  0.8536
 1541TIP3    H226115   6.059   0.879  17.173  0.7744  1.0573  0.0457
 1542TIP3   OH226116   5.494   4.743   4.941  0.0079 -0.0855 -0.2907
 1542TIP3    H126117   5.501   4.839   4.933 -0.1087  0.1105  1.8605
 1542TIP3    H226118   5.585   4.714   4.949  0.1192 -0.2818 -2.0026
 1543TIP3   OH226119   0.286   5.019   1.223  0.2559 -0.2778  0.1786
 1543TIP3    H126120   0.352   5.021   1.292  0.3892  0.1844  0.0340
 1543TIP3    H226121   0.333   4.989   1.145 -0.1498 -2.0148  0.5675
 1544TIP3   OH226122   6.132   6.796   5.014  0.2628  0.8982  0.1337
 1544TIP3    H126123   6.200   6.832   5.072  0.8186 -0.4875  0.3695
 1544TIP3    H226124   6.052   6.799   5.066  0.3106  1.7595  0.1597
 1545TIP3   OH226125   4.842   0.358  11.902  0.0071  0.3574 -0.0760
 1545TIP3    H126126   4.807   0.323  11.984 -1.9498  0.5677 -0.8005
 1545TIP3    H226127   4.810   0.448  11.898  0.6342  0.5613 -0.7717
 1546TIP3   OH226128   5.422   0.854   3.393  0.0975  0.1483 -0.1179
 1546TIP3    H126129   5.467   0.830   3.474 -1.0096  2.8018  1.3342
 1546TIP3    H226130   5.450   0.944   3.376 -1.6209  0.4811 -1.3179
 1547TIP3   OH226131   3.059   0.177  10.996  0.0174  0.2660  0.5138
 1547TIP3    H126132   2.966   0.168  11.019 -0.4226  1.5454 -0.7383
 1547TIP3    H226133   3.067   0.266  10.961  1.3748 -0.3950 -0.9292
 1548TIP3   OH226134   5.260   4.378   6.706 -0.5042  0.2105 -0.8424
 1548TIP3    H126135   5.277   4.291   6.744 -0.8289  0.7835  0.6383
 1548TIP3    H226136   5.178   4.368   6.659 -0.2438 -0.4384 -1.1647
 1549TIP3   OH226137   1.977   6.130  12.818  0.2885 -0.3176  0.2329
 1549TIP3    H126138   1.977   6.195  12.889  0.6088 -0.7525  0.6284
 1549TIP3    H226139   1.928   6.056  12.854  0.9520 -0.7680  0.2035
 1550TIP3   OH226140   0.906   3.352  14.967 -0.3521  0.0923 -0.5014
 1550TIP3    H126141   0.963   3.296  14.914 -0.8542 -0.3666 -0.5701
 1550TIP3    H226142   0.819   3.338  14.930 -0.1456  2.8374 -2.1421
 1551TIP3   OH226143   5.804   1.996  14.097  0.0195  0.0323 -0.3608
 1551TIP3    H126144   5.899   2.005  14.101 -0.1780  1.4012  1.8305
 1551TIP3    H226145   5.776   2.068  14.040  0.2627 -0.3053 -0.9185
 1552TIP3   OH226146   6.542   4.729  14.602  0.3117 -0.7041  0.0901
 1552TIP3    H126147   6.610   4.797  14.608 -0.0298 -0.3862  0.4320
 1552TIP3    H226148   6.460   4.777  14.616  0.1291 -1.3161  1.1197
 1553TIP3   OH226149   2.632   4.833  13.969 -0.5241 -0.1986  0.2453
 1553TIP3    H126150   2.694   4.787  13.913 -0.3868  2.2285 -1.6452
 1553TIP3    H226151   2.580   4.763  14.010  0.0454 -2.0401 -2.1146
 1554TIP3   OH226152   4.966   6.465  11.123  0.3343 -0.0556 -0.1684
 1554TIP3    H126153   4.924   6.516  11.053  1.8123  0.5213 -0.6444
 1554TIP3    H226154   5.002   6.389  11.079  0.4466 -0.1659  0.1145
 1555TIP3   OH226155   5.890   0.416   4.789  0.7173 -0.3391 -0.1356
 1555TIP3    H126156   5.931   0.344   4.836  1.3389  0.3849  0.4546
 1555TIP3    H226157   5.961   0.453   4.735  0.2459 -0.5750 -0.9313
 1556TIP3   OH226158   1.532   4.543   5.658  0.7305  0.3649  0.0564
 1556TIP3    H126159   1.596   4.519   5.724 -0.2541 -1.0817  0.4953
 1556TIP3    H226160   1.447   4.529   5.700  0.1059  2.6878 -0.3572
 1557TIP3   OH226161   0.362   5.703  11.459 -0.1815 -0.1961 -0.6985
 1557TIP3    H126162   0.342   5.641  11.529  0.2455 -0.8162 -1.1220
 1557TIP3    H226163   0.320   5.785  11.487  1.2689 -0.0166  1.0158
 1558TIP3   OH226164   0.977   4.395  11.637 -0.4321 -0.0834  0.4247
 1558TIP3    H126165   0.999   4.335  11.566  0.7091  0.2826  0.4662
 1558TIP3    H226166   0.887   4.371  11.661  0.4516 -2.6637  1.3302
 1559TIP3   OH226167   2.967   3.855   3.581 -0.6169  0.4003 -0.1510
 1559TIP3    H126168   2.919   3.912   3.642 -1.3475 -0.2080 -0.1485
 1559TIP3    H226169   2.944   3.888   3.494 -1.8191 -0.4863 -0.1841
 1560TIP3   OH226170   0.289   4.045   1.426 -0.1011 -0.2390 -0.2869
 1560TIP3    H126171   0.281   4.122   1.482  0.9123 -0.9374  0.8490
 1560TIP3    H226172   0.320   4.080   1.342 -0.4174  0.6780 -0.0279
 1561TIP3   OH226173   4.597   1.656   1.125  0.0467 -0.1541 -0.5004
 1561TIP3    H126174   4.537   1.669   1.052  1.3533 -1.6106 -1.8806
 1561TIP3    H226175   4.578   1.567   1.155  0.0715  0.1471  0.4189
 1562TIP3   OH226176   6.082   3.234   2.825 -0.1899  0.3175  0.1354
 1562TIP3    H126177   6.040   3.151   2.807 -0.8587  0.6829 -0.0093
 1562TIP3    H226178   6.040   3.266   2.905 -0.9126  1.1577 -0.5596
 1563TIP3   OH226179   0.689   0.658  16.169 -0.4230 -0.8680  0.1772
 1563TIP3    H126180   0.661   0.579  16.215  1.9849 -1.9947 -0.2363
 1563TIP3    H226181   0.709   0.629  16.080  0.0828  0.2940 -0.1039
 1564TIP3   OH226182   0.736   3.276  13.179  0.1107 -0.1930  0.1956
 1564TIP3    H126183   0.814   3.291  13.125 -0.6886 -1.2803 -1.3347
 1564TIP3    H226184   0.732   3.180  13.187 -0.5813 -0.0966  0.9904
 1565TIP3   OH226185   0.383   3.884  15.969  0.4948  0.0908 -0.0157
 1565TIP3    H126186   0.389   3.789  15.981 -1.2413 -0.3951 -2.5062
 1565TIP3    H226187   0.472   3.911  15.947  0.7472 -1.2008 -0.6593
 1566TIP3   OH226188   4.507   4.975  12.839 -0.2586 -0.1798 -0.2382
 1566TIP3    H126189   4.575   4.952  12.901  2.4358  0.9225 -2.6478
 1566TIP3    H226190   4.477   4.891  12.803 -1.2235 -0.7556  1.8494
 1567TIP3   OH226191   3.201   2.632  15.946 -0.3591  0.2364  0.1178
 1567TIP3    H126192   3.149   2.642  15.866 -0.4647  1.5022  0.3250
 1567TIP3    H226193   3.143   2.662  16.016 -0.3742 -1.1652  0.7126
 1568TIP3   OH226194   0.237   4.226   5.716 -0.2162 -0.8493  0.5263
 1568TIP3    H126195   0.191   4.295   5.763 -1.0052  1.1814 -3.0168
 1568TIP3    H226196   0.330   4.244   5.732 -0.4795 -1.3799  2.8172
 1569TIP3   OH226197   6.750   1.148   3.120  0.0684 -0.0107 -0.2316
 1569TIP3    H126198   6.736   1.210   3.048  0.8530 -0.6186 -0.9187
 1569TIP3    H226199   6.845   1.140   3.126  0.0484  0.7697  1.5294
 1570TIP3   OH226200   2.109   4.801  17.070  0.3958 -0.3846  0.0816
 1570TIP3    H126201   2.172   4.783  17.000 -0.7371 -2.4107 -0.4664
 1570TIP3    H226202   2.083   4.892  17.057  1.6180 -0.1819 -0.9844
 1571TIP3   OH226203   1.151   2.560  15.642 -0.2812  0.0609 -0.4011
 1571TIP3    H126204   1.081   2.605  15.690  1.1641  1.5315  0.3792
 1571TIP3    H226205   1.208   2.525  15.711 -0.2488 -1.1538 -1.0285
 1572TIP3   OH226206   1.108   3.057   2.537  0.2374  0.8609  0.1400
 1572TIP3    H126207   1.203   3.064   2.526  0.2832 -0.5571 -0.5325
 1572TIP3    H226208   1.073   3.072   2.449  0.1017 -2.4878 -0.4462
 1573TIP3   OH226209   0.116   4.117   2.196  0.5012  0.2332  0.0137
 1573TIP3    H126210   0.153   4.205   2.199 -0.2513  0.5506 -0.0592
 1573TIP3    H226211   0.193   4.060   2.188  0.9304  0.9433 -1.1229
 1574TIP3   OH226212   4.786   1.993  11.512  0.6957  0.7521 -0.3313
 1574TIP3    H126213   4.765   1.957  11.599  2.2462 -1.6669 -0.8975
 1574TIP3    H226214   4.704   1.990  11.464  0.0259  1.2544  0.7459
 1575TIP3   OH226215   2.482   0.818   3.017 -0.4686  0.7387 -0.1987
 1575TIP3    H126216   2.561   0.820   3.071 -0.4024  0.2102 -0.2725
 1575TIP3    H226217   2.513   0.806   2.928 -0.5594  2.0274 -0.4126
 1576TIP3   OH226218   4.613   3.757  11.343  0.7429  0.2871  0.2268
 1576TIP3    H126219   4.707   3.751  11.356  0.7282  0.9073  0.6586
 1576TIP3    H226220   4.582   3.809  11.417  0.2829  1.4970 -0.7971
 1577TIP3   OH226221   2.829   1.829  13.483  0.2107 -0.6368 -0.0713
 1577TIP3    H126222   2.762   1.857  13.421  1.0774  0.5150 -0.4993
 1577TIP3    H226223   2.873   1.909  13.509  2.0009 -1.4771 -0.4630
 1578TIP3   OH226224   3.477   1.063   0.441 -0.6210  0.3708  0.9602
 1578TIP3    H126225   3.517   0.977   0.427 -1.5049  0.3881 -2.1231
 1578TIP3    H226226   3.538   1.125   0.400 -1.4910  0.8673  0.3878
 1579TIP3   OH226227   2.745   0.931   2.921  0.3342  0.6057 -0.2830
 1579TIP3    H126228   2.673   0.941   2.858  0.1029 -1.1826 -0.3328
 1579TIP3    H226229   2.807   1.000   2.896 -1.9455  3.0947  0.6400
 1580TIP3   OH226230   6.669   5.395  15.311  0.3864  0.1659  0.5976
 1580TIP3    H126231   6.585   5.420  15.350  1.0535  2.3518  0.6879
 1580TIP3    H226232   6.655   5.402  15.217  0.3063 -0.0391  0.5926
 1581TIP3   OH226233   2.931   3.193   1.796  0.1854  0.6547  0.3737
 1581TIP3    H126234   2.950   3.192   1.890  1.0587  0.1095  0.1957
 1581TIP3    H226235   2.971   3.273   1.764  0.0390  0.7520  0.4325
 1582TIP3   OH226236   6.154   2.854   0.138 -0.5190  0.3852  0.7134
 1582TIP3    H126237   6.152   2.867   0.233 -2.0535 -0.6156  0.8360
 1582TIP3    H226238   6.062   2.840   0.114  0.2060 -2.7968 -0.4354
 1583TIP3   OH226239   6.360   0.319   4.625 -0.2935  0.0348  0.2169
 1583TIP3    H126240   6.392   0.339   4.713  1.2394 -1.0174 -0.0685
 1583TIP3    H226241   6.426   0.355   4.567 -1.3557  0.8157 -0.5192
 1584TIP3   OH226242   5.934   4.436  14.434 -0.4770 -0.2168  0.4459
 1584TIP3    H126243   5.984   4.465  14.510 -1.4004 -0.8492  1.3059
 1584TIP3    H226244   5.857   4.492  14.432  0.4439  1.0381 -1.1279
 1585TIP3   OH226245   2.918   5.588   4.141  0.3005 -0.6981 -0.0507
 1585TIP3    H126246   2.843   5.627   4.097  1.3490 -0.2335 -1.4576
 1585TIP3    H226247   2.977   5.662   4.157  0.7470 -1.1658  0.4715
 1586TIP3   OH226248   2.831   3.224   2.793  0.0737  0.2220  0.0116
 1586TIP3    H126249   2.924   3.222   2.814  0.0900 -2.2637 -0.1853
 1586TIP3    H226250   2.810   3.135   2.766 -2.8204  0.2221  2.0169
 1587TIP3   OH226251   5.597   1.216  14.677  0.4415 -0.0735 -0.7052
 1587TIP3    H126252   5.575   1.309  14.666  0.3208 -0.0867 -0.5804
 1587TIP3    H226253   5.649   1.194  14.600  0.5565  0.1249 -0.6842
 1588TIP3   OH226254   2.881   3.373  15.235 -0.4837  0.7803  0.0647
 1588TIP3    H126255   2.802   3.414  15.269 -2.3990 -0.5117 -2.6736
 1588TIP3    H226256   2.851   3.293  15.194  2.5518 -0.8257  0.8239
 1589TIP3   OH226257   4.117   3.025  13.546 -0.1502 -0.1541  0.1845
 1589TIP3    H126258   4.189   3.035  13.484  0.7997  0.2102  1.3318
 1589TIP3    H226259   4.048   3.082  13.511  0.0364 -0.6614 -1.0288
 1590TIP3   OH226260   3.080   5.947  14.321 -0.4170 -0.2900 -0.1730
 1590TIP3    H126261   3.082   6.042  14.306 -0.6385 -0.1864  0.4399
 1590TIP3    H226262   3.083   5.938  14.416  1.7904 -0.9588 -0.2754
 1591TIP3   OH226263   0.527   4.118   2.544 -0.5276 -0.2622 -0.0167
 1591TIP3    H126264   0.497   4.073   2.465 -0.1829  0.1171 -0.3685
 1591TIP3    H226265   0.614   4.080   2.561  0.5685  1.5340 -1.3643
 1592TIP3   OH226266   1.930   1.724   1.891  0.1957 -0.6198  0.1122
 1592TIP3    H126267   1.929   1.640   1.846  1.7126 -1.3493  1.4017
 1592TIP3    H226268   1.874   1.781   1.838  0.5531 -1.9499 -1.7147
 1593TIP3   OH226269   5.335   1.746   1.629 -0.4166  0.9205 -0.7335
 1593TIP3    H126270   5.420   1.787   1.614 -0.2335  0.4372 -1.0461
 1593TIP3    H226271   5.323   1.687   1.554  0.6581 -1.7593  1.1018
 1594TIP3   OH226272   2.936   6.346  13.135 -0.5859  0.1858  0.2011
 1594TIP3    H126273   2.891   6.303  13.208 -1.1270 -0.8693 -0.7304
 1594TIP3    H226274   2.985   6.276  13.093  1.2449  1.1515  0.6519
 1595TIP3   OH226275   3.484   0.451   1.908  0.0762  0.8287 -0.3614
 1595TIP3    H126276   3.513   0.523   1.851  0.5008  1.0108  0.0760
 1595TIP3    H226277   3.559   0.436   1.966  0.1265 -0.2214 -0.6994
 1596TIP3   OH226278   1.787   2.782  11.973  0.2551 -0.3795 -0.0932
 1596TIP3    H126279   1.714   2.770  11.912  1.1690  0.3146 -1.3374
 1596TIP3    H226280   1.862   2.800  11.917  1.2226 -0.2989  1.2208
 1597TIP3   OH226281   2.176   3.209   5.023  0.0946  0.3241  0.1700
 1597TIP3    H126282   2.214   3.265   4.956  0.8785  0.3423  0.6247
 1597TIP3    H226283   2.094   3.253   5.047  0.3121  0.8491 -0.0423
 1598TIP3   OH226284   2.478   5.436   3.711  0.7036 -0.4447  0.5940
 1598TIP3    H126285   2.411   5.505   3.711  0.1262 -0.9792 -0.4825
 1598TIP3    H226286   2.466   5.392   3.626  0.2429 -2.6506  1.7593
 1599TIP3   OH226287   0.983   5.872  11.491  0.0699  0.5055  0.3459
 1599TIP3    H126288   0.943   5.823  11.419 -0.8737  2.3379 -0.3838
 1599TIP3    H226289   1.074   5.884  11.464  0.3227 -0.8361  0.5418
 1600TIP3   OH226290   6.354   0.370  13.906 -0.0940 -0.5173 -0.0638
 1600TIP3    H126291   6.428   0.330  13.952  0.4579  0.2708 -0.2596
 1600TIP3    H226292   6.394   0.424  13.838 -0.7617  1.5760  1.1609
 1601TIP3   OH226293   3.344   1.351   2.489  0.3352  0.0967 -0.1675
 1601TIP3    H126294   3.412   1.340   2.555 -0.0329  0.4057  0.2686
 1601TIP3    H226295   3.262   1.349   2.538  0.0027 -0.7764 -0.7509
 1602TIP3   OH226296   4.894   5.561  14.926  0.1443  0.2688 -0.0198
 1602TIP3    H126297   4.955   5.631  14.902  1.7082 -0.4381  1.7612
 1602TIP3    H226298   4.863   5.526  14.842  0.9072  1.7199 -0.9334
 1603TIP3   OH226299   4.093   1.906  13.487 -0.4766  0.0717 -0.3631
 1603TIP3    H126300   4.102   1.818  13.524 -0.4108  0.7018  1.1503
 1603TIP3    H226301   3.999   1.919  13.477 -0.4575 -0.4119 -1.1916
 1604TIP3   OH226302   3.281   1.984  12.778  1.2373  0.0745  0.0118
 1604TIP3    H126303   3.261   2.054  12.716 -2.0246 -0.4782  0.3553
 1604TIP3    H226304   3.239   1.906  12.741 -0.0124 -0.4457  2.4080
 1605TIP3   OH226305   4.853   5.752   5.625  0.1191  0.2130  0.2742
 1605TIP3    H126306   4.758   5.759   5.617  0.2526  1.6490 -0.2727
 1605TIP3    H226307   4.875   5.810   5.698  0.7096  0.9823 -0.5060
 1606TIP3   OH226308   5.050   4.945  13.637  0.4517  0.2995 -0.2320
 1606TIP3    H126309   5.091   4.866  13.602 -0.3940 -0.3022  0.1127
 1606TIP3    H226310   5.123   5.007  13.646  1.2936 -0.7469  0.3821
 1607TIP3   OH226311   3.089   4.821   0.781 -0.1829 -0.4927  0.1654
 1607TIP3    H126312   3.091   4.736   0.825  0.7098 -0.8790 -0.6080
 1607TIP3    H226313   3.151   4.875   0.829 -0.6775 -0.2970  0.5958
 1608TIP3   OH226314   3.184   6.154   5.426 -0.1998  0.1684 -0.5506
 1608TIP3    H126315   3.156   6.211   5.498  0.8242  0.4566 -0.3828
 1608TIP3    H226316   3.132   6.184   5.351 -1.9965 -0.7788  0.2728
 1609TIP3   OH226317   2.332   3.817   3.748 -0.2330  0.3646  0.7910
 1609TIP3    H126318   2.240   3.839   3.763  0.4349  1.9887  2.8583
 1609TIP3    H226319   2.334   3.722   3.743 -2.1005  0.3404  0.2186
 1610TIP3   OH226320   3.848   5.273  13.310 -0.2430 -0.5388  0.6590
 1610TIP3    H126321   3.902   5.225  13.372  1.3868  0.4036 -0.0156
 1610TIP3    H226322   3.780   5.314  13.364  0.3883 -0.7787  1.6414
 1611TIP3   OH226323   1.270   0.693  16.812 -0.2230  0.1274  0.0661
 1611TIP3    H126324   1.302   0.739  16.890  0.2560 -1.3007  0.7147
 1611TIP3    H226325   1.349   0.674  16.761 -0.3281 -0.7725  0.2324
 1612TIP3   OH226326   6.428   1.268   0.484 -0.2604 -0.0866  0.1054
 1612TIP3    H126327   6.519   1.253   0.510  0.9460  1.9801 -2.6928
 1612TIP3    H226328   6.396   1.181   0.458  0.1600 -1.2061  3.0754
 1613TIP3   OH226329   5.508   3.310  10.719 -0.5658  0.0647 -0.5508
 1613TIP3    H126330   5.486   3.336  10.629  2.0439 -1.1400 -1.5631
 1613TIP3    H226331   5.491   3.216  10.722  2.5556 -0.5300 -0.7976
 1614TIP3   OH226332   0.220   2.195  13.276 -0.7640  0.1397  0.0623
 1614TIP3    H126333   0.310   2.185  13.308 -0.9111  1.4557  0.9112
 1614TIP3    H226334   0.214   2.132  13.204 -0.4684 -2.9806  2.6288
 1615TIP3   OH226335   0.467   2.670   1.212  0.1659  0.1781  0.1878
 1615TIP3    H126336   0.528   2.612   1.257  0.9935  0.4213 -0.6034
 1615TIP3    H226337   0.439   2.732   1.280 -1.8252 -1.9631  1.3980
 1616TIP3   OH226338   4.106   5.932   0.777 -0.0211  0.5826  0.2588
 1616TIP3    H126339   4.046   5.954   0.848 -2.2976  0.7247 -1.6658
 1616TIP3    H226340   4.121   6.014   0.731  0.3469  0.2246 -0.2772
 1617TIP3   OH226341   0.064   1.203  16.770  0.1659  0.0687 -0.2296
 1617TIP3    H126342   0.135   1.256  16.731  0.1541  2.4327  2.7480
 1617TIP3    H226343  -0.009   1.264  16.779 -0.6583 -1.0852  1.1012
 1618TIP3   OH226344   1.709   5.407   1.253  0.8088 -0.5390 -0.2563
 1618TIP3    H126345   1.708   5.448   1.166  0.4042 -1.6081 -0.7628
 1618TIP3    H226346   1.686   5.316   1.236  0.4949 -0.6927  1.0118
 1619TIP3   OH226347   0.609   3.540  16.146 -0.7485 -0.0990 -0.3059
 1619TIP3    H126348   0.699   3.561  16.172 -0.3337 -1.5203 -0.5372
 1619TIP3    H226349   0.598   3.583  16.061  0.4059 -1.5613 -1.2231
 1620TIP3   OH226350   1.449   5.317   5.013 -0.3677 -0.1601 -0.2537
 1620TIP3    H126351   1.393   5.272   5.077 -2.3775  1.8490 -0.5344
 1620TIP3    H226352   1.401   5.311   4.931  0.6093  0.2028 -0.8519
 1621TIP3   OH226353   5.732   3.470   4.841  0.4765  0.5303  0.3692
 1621TIP3    H126354   5.762   3.407   4.775 -1.2267  1.0501 -0.9362
 1621TIP3    H226355   5.699   3.544   4.790 -1.4106  0.6951  1.7746
 1622TIP3   OH226356   0.586   2.393  11.969  0.1298  0.4235  0.1974
 1622TIP3    H126357   0.530   2.362  12.041 -0.5915 -1.5849 -1.2002
 1622TIP3    H226358   0.628   2.314  11.935  0.7569  1.4053 -1.3483
 1623TIP3   OH226359   1.190   1.955  14.232  0.4717  0.4760 -0.0197
 1623TIP3    H126360   1.220   1.866  14.219 -1.0149  0.2224 -1.9310
 1623TIP3    H226361   1.250   2.009  14.180  1.8702  0.7146  1.7806
 1624TIP3   OH226362   5.270   0.085  14.164  0.1672  0.2474  0.2294
 1624TIP3    H126363   5.251  -0.005  14.189 -1.6162 -0.2067 -2.6185
 1624TIP3    H226364   5.265   0.134  14.246 -2.2094 -1.6905  1.3083
 1625TIP3   OH226365   4.279   5.661  15.693  0.2703 -0.7605 -0.8919
 1625TIP3    H126366   4.191   5.638  15.724 -0.1815 -0.3279 -1.8238
 1625TIP3    H226367   4.269   5.671  15.598  0.9425  0.9765 -0.7921
 1626TIP3   OH226368   4.809   2.073   2.149 -0.0537  0.1818  0.6146
 1626TIP3    H126369   4.851   2.032   2.224  1.1392  0.4757  0.1223
 1626TIP3    H226370   4.827   2.166   2.159 -1.5354  0.4317  0.9758
 1627TIP3   OH226371   5.354   5.108  15.039 -0.4125  0.0218  0.0866
 1627TIP3    H126372   5.347   5.032  15.097 -0.0648  0.1071  0.2391
 1627TIP3    H226373   5.397   5.075  14.961  0.2879  0.1945  0.3946
 1628TIP3   OH226374   3.802   4.450  17.143  0.1086  0.3566 -0.1970
 1628TIP3    H126375   3.858   4.377  17.171  0.5526 -0.1774 -2.3775
 1628TIP3    H226376   3.749   4.413  17.073  0.5229  2.2088 -1.5003
 1629TIP3   OH226377   5.783   2.840   5.130 -0.8692 -0.2225 -0.1502
 1629TIP3    H126378   5.831   2.760   5.111 -0.3810 -0.1340  0.6726
 1629TIP3    H226379   5.850   2.901   5.161 -1.3136  0.3388 -0.2838
 1630TIP3   OH226380   3.019   2.708  16.133  0.3726  0.1232  0.3471
 1630TIP3    H126381   2.946   2.678  16.187  0.8058 -0.3079  0.6946
 1630TIP3    H226382   3.026   2.802  16.151 -0.2662  0.2224  0.1049
 1631TIP3   OH226383   2.475   0.003   3.868 -0.2814 -0.0405 -0.6441
 1631TIP3    H126384   2.498  -0.008   3.775 -1.7145 -1.8543 -0.8264
 1631TIP3    H226385   2.449  -0.085   3.896  0.4769  0.4185  1.5914
 1632TIP3   OH226386   0.136   1.840  12.422  0.1589 -0.0466  0.5152
 1632TIP3    H126387   0.067   1.801  12.368  0.9726  0.0061 -0.5721
 1632TIP3    H226388   0.215   1.832  12.369  0.7592  1.0097  1.2389
 1633TIP3   OH226389   6.055   2.764   3.213 -0.0906 -0.1249  0.1567
 1633TIP3    H126390   5.967   2.726   3.213 -0.0225 -0.2957 -0.7017
 1633TIP3    H226391   6.104   2.709   3.275 -0.6348  0.0936  0.7877
 1634TIP3   OH226392   0.702   4.201  10.748 -0.0970  0.2311  0.3589
 1634TIP3    H126393   0.771   4.139  10.771 -0.3061  0.0625  0.5339
 1634TIP3    H226394   0.699   4.262  10.822  0.6158  0.8937 -0.1483
 1635TIP3   OH226395   4.495   4.970  16.377  0.3098 -0.0896 -0.2037
 1635TIP3    H126396   4.417   5.025  16.381  0.6095  0.3258  0.0538
 1635TIP3    H226397   4.468   4.886  16.414  0.2918  0.4304  1.0020
 1636TIP3   OH226398   6.576   0.885  11.974  0.2344 -0.1002 -0.0575
 1636TIP3    H126399   6.641   0.953  11.989 -0.8731  1.5929 -2.6324
 1636TIP3    H226400   6.524   0.882  12.054  1.1443  1.1137  0.5822
 1637TIP3   OH226401   3.835   5.833   0.919  0.5690 -0.4123  0.4801
 1637TIP3    H126402   3.883   5.765   0.965  2.3377  0.4181 -0.0772
 1637TIP3    H226403   3.844   5.811   0.826 -0.7853 -0.6678  0.3999
 1638TIP3   OH226404   4.223   5.742   6.021 -0.0151  0.2157 -0.3476
 1638TIP3    H126405   4.174   5.818   6.051  0.6765 -0.1247  1.7489
 1638TIP3    H226406   4.197   5.672   6.081  0.3884 -0.8480 -1.4009
 1639TIP3   OH226407   0.105   2.609   5.043  0.0882 -0.2457 -0.3904
 1639TIP3    H126408   0.052   2.606   5.123  0.2363 -2.8087 -0.3693
 1639TIP3    H226409   0.170   2.677   5.060  0.5015 -1.1678  1.9105
 1640TIP3   OH226410   3.111   4.846  11.883  0.3129  0.0227  0.2839
 1640TIP3    H126411   3.123   4.773  11.945  0.7071 -0.1332  0.0278
 1640TIP3    H226412   3.048   4.904  11.926  0.1113 -0.3956  0.5584
 1641TIP3   OH226413   2.855   4.183   2.825 -0.0692  0.1620 -0.4160
 1641TIP3    H126414   2.804   4.115   2.781  0.4686 -1.5695  1.5324
 1641TIP3    H226415   2.905   4.224   2.755 -2.8220  0.7402 -2.1059
 1642TIP3   OH226416   2.742   3.717   0.604  0.2466  0.4460  0.1663
 1642TIP3    H126417   2.718   3.785   0.542  1.7491  0.8359 -0.0139
 1642TIP3    H226418   2.671   3.716   0.668 -1.6311 -0.3643 -1.8610
 1643TIP3   OH226419   3.663   1.868   1.948  0.3550  0.5928 -0.7367
 1643TIP3    H126420   3.690   1.882   2.039 -0.2470  2.3764 -0.8097
 1643TIP3    H226421   3.682   1.776   1.931  0.7708  0.3215  1.0962
 1644TIP3   OH226422   4.165   6.318   3.360  0.2260  0.2256  0.1435
 1644TIP3    H126423   4.084   6.348   3.401 -0.5635 -0.7690 -0.6571
 1644TIP3    H226424   4.197   6.394   3.311 -1.5695 -0.1122 -1.6008
 1645TIP3   OH226425   5.084   6.369  15.271 -0.2478  0.4323 -0.7311
 1645TIP3    H126426   5.107   6.427  15.343 -0.1228  1.0047 -1.2306
 1645TIP3    H226427   5.101   6.281  15.305 -2.6039  0.5458  0.8219
 1646TIP3   OH226428   4.735   2.183  11.931 -0.1162  0.0754  0.2289
 1646TIP3    H126429   4.681   2.248  11.886 -0.5106 -0.7029 -0.4061
 1646TIP3    H226430   4.821   2.225  11.938  0.3012 -0.2799 -2.3480
 1647TIP3   OH226431   1.853   3.423  13.728 -0.3689  0.2849  0.2730
 1647TIP3    H126432   1.773   3.374  13.749 -1.9796  3.5570  2.1627
 1647TIP3    H226433   1.849   3.435  13.633 -1.1428 -1.1819  0.0994
 1648TIP3   OH226434   3.624   3.729  14.141 -0.1997  0.2320  0.4909
 1648TIP3    H126435   3.541   3.763  14.173 -0.2500 -1.1140  1.8062
 1648TIP3    H226436   3.604   3.694  14.054 -0.9027  0.3252  0.6122
 1649TIP3   OH226437   1.475   0.052  14.491 -0.2235 -0.6302  0.0660
 1649TIP3    H126438   1.442   0.135  14.527 -0.9092 -0.7850 -0.2089
 1649TIP3    H226439   1.457  -0.013  14.559  0.0098 -0.6165  0.1417
 1650TIP3   OH226440   2.784   2.963   0.879 -0.0128  0.6203 -0.1756
 1650TIP3    H126441   2.808   3.036   0.937 -0.5361  0.8563 -0.2556
 1650TIP3    H226442   2.698   2.936   0.910 -0.5455  1.1236 -1.2100
 1651TIP3   OH226443   3.656   2.828  15.027  0.2271  0.1090 -0.8805
 1651TIP3    H126444   3.698   2.834  14.941 -0.8422  0.7459 -1.3711
 1651TIP3    H226445   3.565   2.805  15.007  0.4370 -1.6973  0.1856
 1652TIP3   OH226446   0.527   4.209   5.715  0.0935 -1.2275  0.1777
 1652TIP3    H126447   0.581   4.174   5.787 -0.4544 -0.8166  0.8013
 1652TIP3    H226448   0.569   4.292   5.692  1.6085 -2.4563 -1.5544
 1653TIP3   OH226449   6.074   2.212   3.687  0.7114 -0.0313 -0.3954
 1653TIP3    H126450   6.161   2.228   3.726 -0.4000 -1.2475  2.7541
 1653TIP3    H226451   6.025   2.292   3.705  0.2871 -0.4788  0.4563
 1654TIP3   OH226452   5.941   3.275   0.921 -0.6780 -0.3820 -0.6020
 1654TIP3    H126453   5.873   3.336   0.951 -1.0280 -0.7380 -0.6586
 1654TIP3    H226454   6.023   3.323   0.930 -0.8515 -0.2458  0.2738
 1655TIP3   OH226455   3.827   0.086  15.893 -0.2964 -0.1734 -0.0658
 1655TIP3    H126456   3.794   0.126  15.973  1.6318  1.3970  0.0052
 1655TIP3    H226457   3.813   0.153  15.825  0.5785 -0.3993 -0.4812
 1656TIP3   OH226458   3.867   4.747  14.840 -0.7396  0.0014 -0.1067
 1656TIP3    H126459   3.799   4.788  14.786 -1.2890 -2.2366 -1.1706
 1656TIP3    H226460   3.939   4.731  14.779 -0.2817 -0.0473  0.4474
 1657TIP3   OH226461   2.261   3.122  16.746  0.1483  0.0050  0.9098
 1657TIP3    H126462   2.204   3.078  16.683  0.3633  0.2059  0.5718
 1657TIP3    H226463   2.350   3.102  16.716  0.2460  0.7648  0.6846
 1658TIP3   OH226464   3.688   4.138  14.156  0.3222 -0.1521  0.1949
 1658TIP3    H126465   3.621   4.117  14.221  0.5620  0.8110  0.7758
 1658TIP3    H226466   3.700   4.058  14.106 -1.5765 -0.1984 -0.1963
 1659TIP3   OH226467   3.380   1.139  12.286 -0.8165  0.7385 -0.0126
 1659TIP3    H126468   3.457   1.177  12.328 -0.0899 -0.2101 -0.4627
 1659TIP3    H226469   3.350   1.072  12.348  0.2429 -0.6475 -0.9673
 1660TIP3   OH226470   4.257   1.996  16.912 -0.2239 -0.0714  0.2836
 1660TIP3    H126471   4.333   1.959  16.958  0.1255  1.2035  0.7623
 1660TIP3    H226472   4.189   2.001  16.978  0.1649  1.4209  0.5893
 1661TIP3   OH226473   6.411   6.816  14.571  0.1530  0.3775  0.0771
 1661TIP3    H126474   6.359   6.834  14.493 -0.3758  0.0249  0.3422
 1661TIP3    H226475   6.497   6.790  14.537 -0.5447 -1.2980 -0.4511
 1662TIP3   OH226476   2.434   2.017   5.603  0.1774  0.1541  0.0676
 1662TIP3    H126477   2.417   2.098   5.555 -1.2105 -0.9626 -1.3800
 1662TIP3    H226478   2.355   2.003   5.656  0.1572 -0.5507 -0.1434
 1663TIP3   OH226479   5.217   3.055   0.907 -0.2418  0.1342  0.2408
 1663TIP3    H126480   5.171   3.139   0.908 -2.6694 -1.1236 -0.5181
 1663TIP3    H226481   5.241   3.042   0.815 -1.7519 -0.9391 -0.0269
 1664TIP3   OH226482   2.109   2.619   2.458  0.0039 -0.0667 -0.3928
 1664TIP3    H126483   2.172   2.611   2.529 -2.2878 -2.2961  1.4709
 1664TIP3    H226484   2.059   2.698   2.478 -0.7576 -0.7911  0.6235
 1665TIP3   OH226485   5.415   5.290  16.020 -0.1170 -0.2382  0.2222
 1665TIP3    H126486   5.420   5.202  16.056 -1.7333 -1.0930 -1.5445
 1665TIP3    H226487   5.483   5.292  15.952 -0.0424 -0.0896  0.3010
 1666TIP3   OH226488   0.278   3.187   0.373 -0.2639 -0.3095  0.4281
 1666TIP3    H126489   0.208   3.232   0.421  0.1057 -0.2709  0.9360
 1666TIP3    H226490   0.273   3.097   0.403 -0.3229 -0.3800  0.2031
 1667TIP3   OH226491   2.107   5.682  13.309  0.1325  0.0726  0.0425
 1667TIP3    H126492   2.141   5.770  13.298 -1.7385  1.1066  2.0150
 1667TIP3    H226493   2.019   5.685  13.272 -0.1440 -0.8213  0.6048
 1668TIP3   OH226494   5.257   0.015  15.311  0.3483 -0.1324  0.6383
 1668TIP3    H126495   5.269  -0.071  15.271 -3.5474 -0.0732 -0.8223
 1668TIP3    H226496   5.232  -0.004  15.401 -2.2056 -0.6489 -0.1375
 1669TIP3   OH226497   3.172   0.335   5.066  0.1632 -0.3840 -0.1537
 1669TIP3    H126498   3.084   0.298   5.063  0.5077 -1.1438 -1.6869
 1669TIP3    H226499   3.219   0.282   5.130 -0.2292 -0.5644 -0.0166
 1670TIP3   OH226500   5.660   2.448   3.846  0.6026  0.1955 -0.2424
 1670TIP3    H126501   5.754   2.439   3.861  0.4539  1.2888  1.4327
 1670TIP3    H226502   5.627   2.358   3.850  1.7247 -0.3484 -2.1494
 1671TIP3   OH226503   5.497   3.660   4.566 -0.2898 -0.3635  0.3554
 1671TIP3    H126504   5.568   3.695   4.619 -1.6050  1.3888  0.9960
 1671TIP3    H226505   5.485   3.725   4.496  1.4507 -2.6454 -2.1752
 1672TIP3   OH226506   1.018   5.383  12.846  0.3729 -0.3035  0.0604
 1672TIP3    H126507   0.982   5.333  12.773 -1.5233  0.3703  0.4979
 1672TIP3    H226508   1.093   5.332  12.876 -0.0235 -1.5828 -1.0876
 1673TIP3   OH226509   4.665   4.716  16.090  0.1895 -0.3365 -0.4722
 1673TIP3    H126510   4.710   4.650  16.036  0.4952 -0.5904  0.0840
 1673TIP3    H226511   4.622   4.665  16.158 -0.4528 -0.0397 -0.6562
 1674TIP3   OH226512   2.190   3.661   0.526  0.0950 -0.4336  0.3871
 1674TIP3    H126513   2.117   3.708   0.486  0.7823  0.1990 -0.1337
 1674TIP3    H226514   2.201   3.702   0.612 -0.2129 -0.5849  0.4993
 1675TIP3   OH226515   5.731   5.860  16.376 -0.2345 -0.0231 -0.0307
 1675TIP3    H126516   5.703   5.900  16.294  1.5705  1.7202  0.1819
 1675TIP3    H226517   5.826   5.869  16.377 -0.3367  1.2739  2.8859
 1676TIP3   OH226518   5.727   4.492  15.629 -0.1940  0.5530  0.3308
 1676TIP3    H126519   5.789   4.557  15.663 -1.0791  2.4205 -1.4821
 1676TIP3    H226520   5.776   4.445  15.562 -0.7093  2.1462 -1.2269
 1677TIP3   OH226521   1.251   1.363  14.089  0.0157  0.1982  0.2483
 1677TIP3    H126522   1.331   1.366  14.141  0.7513  0.4993 -0.8748
 1677TIP3    H226523   1.241   1.452  14.055 -0.6450  0.0933  0.1544
 1678TIP3   OH226524   5.065   0.046  10.693  0.0424  0.1524  0.0572
 1678TIP3    H126525   5.007  -0.018  10.734 -2.5186  2.4632  0.2111
 1678TIP3    H226526   5.107   0.091  10.765  0.5726 -0.2460 -0.0050
 1679TIP3   OH226527   1.206   2.247  15.933  0.6197  0.3072  0.1325
 1679TIP3    H126528   1.119   2.269  15.900  0.0996  3.1034  3.1147
 1679TIP3    H226529   1.213   2.153  15.921 -3.2760 -0.1524  0.7535
 1680TIP3   OH226530   0.116   3.184   1.491 -0.5905  0.5476  0.3791
 1680TIP3    H126531   0.171   3.216   1.563 -1.4685  2.5798  0.1816
 1680TIP3    H226532   0.178   3.165   1.420  0.1313 -0.0146  1.1468
 1681TIP3   OH226533   5.398   2.438   1.083 -0.0988  0.2080  0.4433
 1681TIP3    H126534   5.345   2.476   1.013 -0.9298 -1.6433  0.0539
 1681TIP3    H226535   5.337   2.427   1.156  0.4081  0.6624  0.9473
 1682TIP3   OH226536   0.160   1.381  13.067  0.0911  0.5172  0.1740
 1682TIP3    H126537   0.098   1.326  13.113 -1.3442  2.0380  0.1066
 1682TIP3    H226538   0.229   1.321  13.038 -1.6406 -1.3038 -0.2836
 1683TIP3   OH226539   4.029   0.275   4.422 -0.1234  0.3891 -0.0486
 1683TIP3    H126540   4.106   0.305   4.373  0.2756  0.5291  0.6513
 1683TIP3    H226541   4.048   0.183   4.442 -1.0376 -0.1566 -1.5991
 1684TIP3   OH226542   0.299   4.823   4.716 -0.3205 -0.0179  0.4216
 1684TIP3    H126543   0.385   4.794   4.748  0.4725  1.1630 -0.5627
 1684TIP3    H226544   0.243   4.822   4.794  0.8417  0.1271  1.2785
 1685TIP3   OH226545   4.432   3.032   4.525 -0.2089  0.7039 -0.3840
 1685TIP3    H126546   4.428   3.105   4.463 -1.4372  0.9383 -0.0456
 1685TIP3    H226547   4.356   2.979   4.504  1.0474 -0.8614 -1.0553
 1686TIP3   OH226548   5.110   3.199   4.682  0.7473  0.2924 -0.4128
 1686TIP3    H126549   5.196   3.212   4.721  0.3029  0.1939  0.6226
 1686TIP3    H226550   5.055   3.171   4.755 -0.0545 -0.0891 -1.1545
 1687TIP3   OH226551   0.096   2.685  13.636 -0.3485 -0.4657  0.0164
 1687TIP3    H126552   0.108   2.778  13.615  1.4533 -0.5842  0.4686
 1687TIP3    H226553   0.084   2.683  13.731 -2.9705 -0.4637 -0.2940
 1688TIP3   OH226554   2.796   3.048   0.623  0.2270  0.2962  0.1357
 1688TIP3    H126555   2.801   3.008   0.710  1.7881 -0.1556 -0.1558
 1688TIP3    H226556   2.703   3.042   0.600  0.2832 -2.4345  0.4427
 1689TIP3   OH226557   5.181   0.043   3.776  0.1521  0.5530  0.0234
 1689TIP3    H126558   5.265   0.028   3.733 -0.7185 -0.7848 -1.2569
 1689TIP3    H226559   5.122   0.073   3.706 -0.3093  2.0304  1.0105
 1690TIP3   OH226560   2.440   4.117  13.625  0.0837  0.0581  0.1887
 1690TIP3    H126561   2.460   4.114  13.532 -0.3592  2.1908 -0.0073
 1690TIP3    H226562   2.524   4.129  13.668 -0.1310  4.0238 -0.3063
 1691TIP3   OH226563   0.705   5.169  17.024 -0.0924  0.1645  0.0120
 1691TIP3    H126564   0.631   5.157  16.964 -0.2902  0.6645  0.1506
 1691TIP3    H226565   0.735   5.258  17.006  0.6648 -0.1379 -0.2528
 1692TIP3   OH226566   5.838   1.181   4.810  0.0151  0.5280 -0.0264
 1692TIP3    H126567   5.789   1.207   4.732  0.3286 -0.5487 -0.5847
 1692TIP3    H226568   5.824   1.253   4.872 -2.2044  0.2772 -0.2040
 1693TIP3   OH226569   3.358   0.830   4.272  0.2986 -0.3062 -0.3113
 1693TIP3    H126570   3.376   0.874   4.355  3.3825 -4.2998  1.3307
 1693TIP3    H226571   3.278   0.779   4.289  0.8578 -1.0235  0.2127
 1694TIP3   OH226572   0.981   5.388   0.676 -0.4604 -0.1892  0.0514
 1694TIP3    H126573   0.913   5.407   0.741 -0.2037  1.4240 -0.1349
 1694TIP3    H226574   0.953   5.434   0.597  0.4949 -0.0925 -0.2422
 1695TIP3   OH226575   3.333   6.595  11.137 -1.0414 -0.5068 -0.0588
 1695TIP3    H126576   3.340   6.536  11.063 -0.7499 -1.6016  0.8295
 1695TIP3    H226577   3.423   6.606  11.168 -1.0840  0.4577 -0.2570
 1696TIP3   OH226578   5.557   3.318  12.474 -0.6516  0.3167  0.2923
 1696TIP3    H126579   5.652   3.316  12.462 -0.6409  0.3911  0.3612
 1696TIP3    H226580   5.540   3.402  12.518 -0.6609 -0.0989  1.0853
 1697TIP3   OH226581   4.599   6.088  15.281 -0.0920  0.0712  0.4621
 1697TIP3    H126582   4.583   6.144  15.357  0.3975  0.8510 -0.0054
 1697TIP3    H226583   4.694   6.087  15.271 -0.1316 -0.4088  0.1401
 1698TIP3   OH226584   2.899   4.199  12.662  0.2786 -0.7784  0.5685
 1698TIP3    H126585   2.913   4.108  12.638 -1.4899 -1.1195  0.7267
 1698TIP3    H226586   2.874   4.242  12.580  1.4438 -0.3661  0.4294
 1699TIP3   OH226587   3.339   0.731  16.245 -0.0663 -0.7390  0.6377
 1699TIP3    H126588   3.246   0.711  16.259 -0.6597  0.4774 -1.4064
 1699TIP3    H226589   3.344   0.826  16.254  1.1032 -0.8567  1.2685
 1700TIP3   OH226590   4.183   1.081   4.584  0.0786 -0.0524  0.6864
 1700TIP3    H126591   4.198   1.173   4.606 -2.5796  0.3115  1.1993
 1700TIP3    H226592   4.127   1.049   4.655  0.6422 -1.9736  0.2920
 1701TIP3   OH226593   6.649   4.482   2.210 -0.0682 -0.2299 -0.1510
 1701TIP3    H126594   6.658   4.398   2.255  1.1340  0.3216  0.6563
 1701TIP3    H226595   6.692   4.469   2.126  0.7416 -0.2017  0.2630
 1702TIP3   OH226596   4.461   4.130   0.721  0.2221  0.5890 -0.2142
 1702TIP3    H126597   4.456   4.209   0.667  0.1881 -0.1259 -1.2624
 1702TIP3    H226598   4.555   4.117   0.736  0.3312 -0.0941 -1.4250
 1703TIP3   OH226599   6.052   1.363  13.764 -0.3406  0.0569  0.1637
 1703TIP3    H126600   6.120   1.430  13.769 -2.6346  2.4772  0.0107
 1703TIP3    H226601   6.070   1.318  13.682  0.8965  0.8961 -0.0436
 1704TIP3   OH226602   0.340   0.520   1.389 -0.1039  0.1123 -0.2845
 1704TIP3    H126603   0.414   0.479   1.435 -1.5856 -2.3430 -0.0026
 1704TIP3    H226604   0.303   0.450   1.336 -1.5099  1.6245 -1.3388
 1705TIP3   OH226605   4.744   2.736   3.727  0.0250  0.5599  0.4943
 1705TIP3    H126606   4.676   2.797   3.699 -1.0048 -0.2905  1.0946
 1705TIP3    H226607   4.753   2.751   3.822  0.0505  0.0603  0.5748
 1706TIP3   OH226608   2.403   2.264  14.673  0.1890  0.1426  0.4926
 1706TIP3    H126609   2.312   2.237  14.686 -0.6052  2.5670  0.0992
 1706TIP3    H226610   2.440   2.194  14.619 -0.6243 -2.3046  2.9600
 1707TIP3   OH226611   1.918   0.447   3.581  0.0963 -0.3831 -0.1193
 1707TIP3    H126612   1.834   0.459   3.627  0.9371 -0.3680  1.4295
 1707TIP3    H226613   1.954   0.366   3.617  0.4253 -0.7662 -1.2967
 1708TIP3   OH226614   0.500   4.196   3.980 -0.0550 -0.3583 -0.2522
 1708TIP3    H126615   0.545   4.194   4.065 -0.9914 -1.0727  0.2365
 1708TIP3    H226616   0.508   4.287   3.951  1.6094 -0.4459 -0.1309
 1709TIP3   OH226617   4.083   1.933   5.844 -0.4725 -0.5074 -0.0183
 1709TIP3    H126618   4.113   1.865   5.783  0.2824  0.3402 -0.5961
 1709TIP3    H226619   4.137   2.009   5.823 -1.9020  0.5278  0.0626
 1710TIP3   OH226620   6.193   0.897  14.628  0.2711 -0.3877 -0.4798
 1710TIP3    H126621   6.141   0.833  14.677 -0.6183  0.6472 -0.0615
 1710TIP3    H226622   6.143   0.979  14.635  0.8432  0.0955 -1.9327
 1711TIP3   OH226623   5.089   3.483  10.205  0.0580  0.0298 -0.4567
 1711TIP3    H126624   5.003   3.519  10.227  0.4005  0.8597 -0.4845
 1711TIP3    H226625   5.111   3.524  10.122  0.7111  0.1962 -0.2003
 1712TIP3   OH226626   1.628   4.847   4.583  0.1531  0.6359 -0.8654
 1712TIP3    H126627   1.543   4.888   4.598 -0.9065 -1.1515 -1.7235
 1712TIP3    H226628   1.611   4.753   4.593  2.1974  0.3054 -0.2998
 1713TIP3   OH226629   1.643   6.527  11.872  0.0697 -0.5798  0.1727
 1713TIP3    H126630   1.561   6.521  11.822  0.7252  1.9979 -1.2913
 1713TIP3    H226631   1.652   6.620  11.892  1.8229 -1.0629  1.7773
 1714TIP3   OH226632   6.073   5.177   1.709 -0.3766 -0.0624  0.1630
 1714TIP3    H126633   6.122   5.176   1.626 -2.2186  1.0451 -0.9736
 1714TIP3    H226634   5.981   5.171   1.682 -0.9283 -0.9364  2.2034
 1715TIP3   OH226635   5.922   3.995   1.365  0.2678  0.4789  0.0205
 1715TIP3    H126636   5.926   4.046   1.284  1.3956 -0.6102 -0.6189
 1715TIP3    H226637   6.000   3.940   1.363 -0.6014 -0.8371  0.9975
 1716TIP3   OH226638   1.882   0.824   0.118 -0.7585 -0.2291  0.0214
 1716TIP3    H126639   1.817   0.824   0.048 -0.2558 -1.0985 -0.4433
 1716TIP3    H226640   1.966   0.840   0.074 -0.6653  1.0376  0.6362
 1717TIP3   OH226641   6.534   3.188   4.505  0.0612  0.8093  0.5292
 1717TIP3    H126642   6.457   3.227   4.462 -0.6723 -2.5596 -1.3788
 1717TIP3    H226643   6.568   3.126   4.441  2.5321 -0.0631  2.6037
 1718TIP3   OH226644   2.103   4.835  16.341 -0.1998  0.5070 -0.8557
 1718TIP3    H126645   2.178   4.871  16.294 -0.1716  2.6687  0.7571
 1718TIP3    H226646   2.043   4.909  16.351 -1.1109 -0.4120  0.6962
 1719TIP3   OH226647   1.843   5.910   0.722  0.0902 -0.1154 -0.9366
 1719TIP3    H126648   1.882   5.846   0.662 -0.5090 -0.1094 -1.3379
 1719TIP3    H226649   1.750   5.911   0.699 -0.8549 -2.7777  2.4012
 1720TIP3   OH226650   5.330   6.512  15.881 -0.1818 -0.2382 -0.6164
 1720TIP3    H126651   5.333   6.600  15.918  1.6669 -0.6435  0.2657
 1720TIP3    H226652   5.247   6.508  15.834 -0.8864  1.5271  0.4459
 1721TIP3   OH226653   3.897   6.516   3.611 -0.1732  0.7088  0.4708
 1721TIP3    H126654   3.865   6.487   3.526 -1.9091  1.3550  0.8943
 1721TIP3    H226655   3.838   6.586   3.637  0.0604  0.2053  2.4289
 1722TIP3   OH226656   4.731   5.177   5.378 -0.8925  0.0591 -0.5679
 1722TIP3    H126657   4.799   5.167   5.444 -0.0171  1.9253 -1.1770
 1722TIP3    H226658   4.657   5.127   5.413 -0.1646  0.3154  1.4212
 1723TIP3   OH226659   5.501   3.779  16.665 -0.6643  0.2890  0.2916
 1723TIP3    H126660   5.577   3.835  16.650 -0.8301  0.0349 -1.6467
 1723TIP3    H226661   5.444   3.830  16.721 -0.4336  1.7423 -0.7679
 1724TIP3   OH226662   5.830   6.453   4.308 -0.5340  0.0218 -0.1211
 1724TIP3    H126663   5.756   6.426   4.253  0.4413  1.8860 -2.4931
 1724TIP3    H226664   5.898   6.389   4.290 -1.2646 -1.1895  1.3834
 1725TIP3   OH226665   0.793   1.096  14.660 -0.5377 -0.4079 -0.0886
 1725TIP3    H126666   0.832   1.029  14.604  0.9861  0.4886 -0.1014
 1725TIP3    H226667   0.782   1.172  14.603 -1.4505 -0.3416  0.1587
 1726TIP3   OH226668   2.251   2.573  13.837 -0.5142  0.3836  0.2045
 1726TIP3    H126669   2.174   2.536  13.880 -0.6792  2.3413  1.6139
 1726TIP3    H226670   2.323   2.557  13.899 -0.0179 -0.2062 -0.5037
 1727TIP3   OH226671   0.612   2.957  16.584  0.0559 -0.2129  0.4462
 1727TIP3    H126672   0.626   3.040  16.538  2.2008  0.0568  1.5017
 1727TIP3    H226673   0.525   2.965  16.623 -1.3093  0.0022 -2.5734
 1728TIP3   OH226674   5.187   1.693   4.270 -0.5649  0.8112 -0.5631
 1728TIP3    H126675   5.160   1.762   4.209 -0.3642  0.7515 -0.7194
 1728TIP3    H226676   5.194   1.614   4.217  0.0363  0.8524 -0.5482
 1729TIP3   OH226677   4.548   3.676  15.454 -0.3800 -0.1348 -0.2474
 1729TIP3    H126678   4.537   3.611  15.385 -1.4324  0.9908 -1.1752
 1729TIP3    H226679   4.616   3.735  15.422  0.7428 -0.8966  0.6956
 1730TIP3   OH226680   5.304   4.559   1.747 -0.4679  0.1850  0.3221
 1730TIP3    H126681   5.269   4.565   1.836 -0.2328 -0.9331  0.4946
 1730TIP3    H226682   5.396   4.583   1.756 -0.3687 -0.2345  0.4335
 1731TIP3   OH226683   0.331   0.064   2.129 -0.1175 -0.0040  0.5260
 1731TIP3    H126684   0.258   0.116   2.095  0.2834  0.3680  0.2287
 1731TIP3    H226685   0.396   0.129   2.157  0.8318 -0.3474 -0.8228
 1732TIP3   OH226686   1.639   1.834   4.711  0.2275 -0.1986 -0.3648
 1732TIP3    H126687   1.581   1.859   4.784 -0.5959  2.0548 -1.7190
 1732TIP3    H226688   1.622   1.741   4.697  0.3393 -0.6620  2.2441
 1733TIP3   OH226689   3.478   2.573   0.381 -0.6607 -0.2691  0.1756
 1733TIP3    H126690   3.443   2.661   0.396 -2.1221 -0.7436 -0.2794
 1733TIP3    H226691   3.427   2.516   0.439 -0.6875 -0.9984 -0.5480
 1734TIP3   OH226692   0.632   4.108  12.145 -0.1178 -0.4205 -0.2788
 1734TIP3    H126693   0.650   4.052  12.220  0.1456  1.0040  0.7537
 1734TIP3    H226694   0.711   4.103  12.091 -0.9055 -2.6775 -1.2941
 1735TIP3   OH226695   4.692   1.861   3.381 -0.1136 -0.0542  0.1915
 1735TIP3    H126696   4.722   1.784   3.333 -1.5882  1.4941 -3.4124
 1735TIP3    H226697   4.748   1.932   3.350 -0.8314  0.9099  1.0666
 1736TIP3   OH226698   3.384   2.389  15.314  0.6112  0.1010 -0.5340
 1736TIP3    H126699   3.291   2.374  15.296  0.6054 -1.1222  0.4654
 1736TIP3    H226700   3.413   2.310  15.358  1.7283  1.1746  0.6958
 1737TIP3   OH226701   4.512   5.116  10.955 -0.6386  0.6638  0.4086
 1737TIP3    H126702   4.506   5.212  10.950 -1.2417  0.7066  1.7290
 1737TIP3    H226703   4.435   5.085  10.907 -1.8685  0.9085  2.1684
 1738TIP3   OH226704   6.333   5.030  17.182  0.4477 -0.8996  0.3303
 1738TIP3    H126705   6.413   5.072  17.211 -0.0117 -1.1076  1.9160
 1738TIP3    H226706   6.292   5.095  17.124  1.5114 -0.6190 -0.1229
 1739TIP3   OH226707   4.374   0.099   2.603 -0.6012 -0.1845  0.2961
 1739TIP3    H126708   4.415   0.185   2.602  0.6774 -0.5875  4.7246
 1739TIP3    H226709   4.446   0.038   2.586 -1.2117 -0.4817 -1.3024
 1740TIP3   OH226710   4.494   5.048  12.433  1.4435  0.2952  0.3046
 1740TIP3    H126711   4.420   5.047  12.373 -1.0116 -2.9197  3.1140
 1740TIP3    H226712   4.571   5.055  12.377 -0.8255  0.0233 -2.9972
 1741TIP3   OH226713   0.409   0.330  14.092  0.4479  0.1223 -0.2758
 1741TIP3    H126714   0.361   0.412  14.103 -0.3383 -0.4815  1.0976
 1741TIP3    H226715   0.371   0.290  14.014 -2.5472 -1.0975  1.6559
 1742TIP3   OH226716   3.174   3.431   1.751  0.2868 -0.7115 -0.0679
 1742TIP3    H126717   3.203   3.341   1.744 -1.6068 -1.3323 -0.3666
 1742TIP3    H226718   3.163   3.460   1.660 -0.0763 -0.5172  0.0358
 1743TIP3   OH226719   4.123   0.560   1.805 -0.7868  0.4090 -0.6070
 1743TIP3    H126720   4.132   0.479   1.855 -0.6074  0.3806 -0.6869
 1743TIP3    H226721   4.206   0.570   1.758 -1.1256  0.1930 -1.2597
 1744TIP3   OH226722   1.754   2.537  10.329  0.0435  0.1745  0.3916
 1744TIP3    H126723   1.770   2.537  10.423  1.4065 -1.0165  0.1760
 1744TIP3    H226724   1.660   2.522  10.320 -0.2085  1.0454  1.5794
 1745TIP3   OH226725   4.065   6.515  12.617 -0.7135  0.2530  0.2296
 1745TIP3    H126726   4.134   6.560  12.666 -0.4502 -1.3774  1.3853
 1745TIP3    H226727   4.023   6.585  12.566  0.7506  1.5249  0.7161
 1746TIP3   OH226728   0.654   3.025   4.982  0.3904 -0.0582  0.2662
 1746TIP3    H126729   0.720   2.965   4.948 -0.5444 -0.7797 -0.2966
 1746TIP3    H226730   0.605   3.052   4.904  1.4330  2.2289  0.3669
 1747TIP3   OH226731   5.745   0.604   4.895 -0.1869  0.5567  0.6130
 1747TIP3    H126732   5.794   0.528   4.863 -0.9005  1.1168 -1.9521
 1747TIP3    H226733   5.768   0.611   4.988 -0.7154 -3.2606  1.1014
 1748TIP3   OH226734   3.878   3.721  14.870  0.1983  0.1777  0.3045
 1748TIP3    H126735   3.908   3.803  14.909  1.5923 -0.7320  1.1722
 1748TIP3    H226736   3.845   3.670  14.944  0.1851 -0.4102 -0.1021
 1749TIP3   OH226737   6.543   2.394  12.539 -0.0251 -0.1039 -0.3448
 1749TIP3    H126738   6.551   2.311  12.492  1.9017  0.7368 -1.5641
 1749TIP3    H226739   6.452   2.395  12.570  0.0060 -2.7931 -0.0123
 1750TIP3   OH226740   5.385   2.662  12.270 -0.1320  0.1143 -0.2538
 1750TIP3    H126741   5.327   2.738  12.270 -0.3294 -0.0362 -0.7841
 1750TIP3    H226742   5.471   2.698  12.248 -0.3430  0.1007 -1.1332
 1751TIP3   OH226743   1.271   3.819   5.306 -0.4911 -0.6908  0.1792
 1751TIP3    H126744   1.216   3.880   5.257 -1.5754 -1.8629 -0.0775
 1751TIP3    H226745   1.327   3.779   5.239 -1.3080 -1.5846  0.0172
 1752TIP3   OH226746   0.757   0.913  17.229 -0.5194  0.3246  0.2841
 1752TIP3    H126747   0.718   0.836  17.188  0.5448 -0.0407 -0.0675
 1752TIP3    H226748   0.688   0.979  17.228 -1.1322 -0.3222 -0.2786
 1753TIP3   OH226749   5.536   6.193  12.927 -0.2123  0.1009 -0.3341
 1753TIP3    H126750   5.547   6.131  13.000 -0.0494 -0.0233 -0.4663
 1753TIP3    H226751   5.540   6.280  12.969 -1.9203  0.0082  0.0596
 1754TIP3   OH226752   1.993   3.614  12.728 -0.0532  0.3332 -0.0093
 1754TIP3    H126753   2.033   3.562  12.797  0.8062  2.4492  1.1531
 1754TIP3    H226754   2.045   3.597  12.650  1.7845  1.3882  0.9714
 1755TIP3   OH226755   4.682   4.625  11.189  0.3953 -0.5837 -0.7837
 1755TIP3    H126756   4.717   4.536  11.185 -0.9507 -1.0910 -1.7438
 1755TIP3    H226757   4.588   4.614  11.181  0.1084  0.8568  0.3596
 1756TIP3   OH226758   0.108   0.482  16.533 -0.2082  0.2503 -0.0232
 1756TIP3    H126759   0.025   0.478  16.486  0.0821  1.8721 -0.7137
 1756TIP3    H226760   0.084   0.474  16.625 -0.7868 -2.8408 -0.3947
 1757TIP3   OH226761   1.726   0.773  13.279  0.0541  0.4937 -0.3780
 1757TIP3    H126762   1.774   0.739  13.355  1.0552  0.8541 -0.8411
 1757TIP3    H226763   1.705   0.863  13.303  1.1971  0.9075 -0.9016
 1758TIP3   OH226764   3.824   2.415   2.319 -0.0164 -0.2844 -0.1589
 1758TIP3    H126765   3.907   2.376   2.347 -0.0191  0.6555  1.1529
 1758TIP3    H226766   3.839   2.441   2.228  0.7510 -1.1504 -0.2872
 1759TIP3   OH226767   5.560   1.313   0.090 -0.1181  0.5413 -0.2417
 1759TIP3    H126768   5.612   1.234   0.104  0.8751  1.3207  0.5930
 1759TIP3    H226769   5.474   1.281   0.062 -0.0449 -0.8809  1.0709
 1760TIP3   OH226770   2.053   2.667  10.498  0.0029 -0.0760  0.2668
 1760TIP3    H126771   2.115   2.740  10.494 -1.7394  1.4581  0.4676
 1760TIP3    H226772   1.997   2.687  10.573  0.3012 -2.3015  1.1185
 1761TIP3   OH226773   3.292   3.489  12.220  0.3914 -0.7171 -0.3176
 1761TIP3    H126774   3.369   3.455  12.174  1.1732 -0.3556  0.7172
 1761TIP3    H226775   3.238   3.527  12.151  1.3832 -0.5016 -0.9859
 1762TIP3   OH226776   6.740   5.264   4.902 -0.0085 -0.4391 -0.0207
 1762TIP3    H126777   6.812   5.293   4.958  1.4429  0.8044 -2.4480
 1762TIP3    H226778   6.671   5.330   4.915 -1.1093 -2.1282  2.9976
 1763TIP3   OH226779   0.924   0.880  12.703 -0.4077  0.0186  0.2398
 1763TIP3    H126780   0.842   0.840  12.675  1.1299 -2.1810 -1.4319
 1763TIP3    H226781   0.956   0.823  12.773  0.2817  0.1521  0.0350
 1764TIP3   OH226782   2.114   1.929  12.803  0.2964  0.3392  0.1793
 1764TIP3    H126783   2.125   1.872  12.726  0.3169  1.2375 -0.4948
 1764TIP3    H226784   2.200   1.969  12.816  0.6281 -0.7768  1.4554
 1765TIP3   OH226785   2.451   6.801  13.062  0.1324  0.1665  0.1045
 1765TIP3    H126786   2.424   6.805  13.154  1.2042  0.5237  0.4039
 1765TIP3    H226787   2.380   6.752  13.019 -1.2701  1.5410  0.7803
 1766TIP3   OH226788   3.053   2.952   2.145  0.2838  0.2809  0.2081
 1766TIP3    H126789   3.120   2.897   2.186  2.1774  2.2082 -0.2132
 1766TIP3    H226790   2.998   2.981   2.217  0.8089 -0.1060  0.7727
 1767TIP3   OH226791   5.203   5.156  11.599 -0.3756 -0.2414 -0.0434
 1767TIP3    H126792   5.120   5.169  11.644 -0.3253  0.5970 -0.1875
 1767TIP3    H226793   5.238   5.074  11.636 -0.8366 -0.1191  0.6658
 1768TIP3   OH226794   5.355   4.446  16.786 -0.0185  0.2983  0.1840
 1768TIP3    H126795   5.445   4.419  16.768  0.3190  2.3511 -1.5330
 1768TIP3    H226796   5.362   4.502  16.863  0.1083  0.0747  0.3331
 1769TIP3   OH226797   3.165   2.205  15.198 -0.0955  0.2194  0.1958
 1769TIP3    H126798   3.240   2.147  15.181  0.9333  1.7999 -0.7742
 1769TIP3    H226799   3.094   2.168  15.147  0.8245  0.3680 -1.2191
 1770TIP3   OH226800   6.478   1.873   2.665  0.0822  0.3491  0.2811
 1770TIP3    H126801   6.395   1.856   2.708 -1.2876  0.1898 -2.3178
 1770TIP3    H226802   6.491   1.967   2.673 -1.4181  0.6995 -1.0775
 1771TIP3   OH226803   4.198   5.129   4.795 -0.3082 -0.3277 -0.5823
 1771TIP3    H126804   4.222   5.188   4.867 -1.4012  0.8012 -1.1165
 1771TIP3    H226805   4.275   5.128   4.738 -0.0144  0.0167 -0.1971
 1772TIP3   OH226806   3.598   5.907   6.314  0.0891  0.1488  0.3654
 1772TIP3    H126807   3.634   5.993   6.294  1.8668 -0.7643 -0.4485
 1772TIP3    H226808   3.652   5.846   6.264  0.3518 -1.6463  2.7760
 1773TIP3   OH226809   0.738   0.859   2.273 -0.1439 -0.3806 -0.3843
 1773TIP3    H126810   0.679   0.801   2.224  0.1535 -0.3402 -0.7931
 1773TIP3    H226811   0.706   0.855   2.363 -2.1391  1.3481 -0.9869
 1774TIP3   OH226812   3.812   2.335  15.939 -0.0245  0.1992 -0.5318
 1774TIP3    H126813   3.841   2.264  15.996 -2.3974  0.2045  0.7474
 1774TIP3    H226814   3.720   2.315  15.920 -0.5342  2.5305 -0.7140
 1775TIP3   OH226815   3.151   6.187  16.813  0.4164 -0.2277 -0.2128
 1775TIP3    H126816   3.097   6.248  16.762  0.2438  0.3270  0.6368
 1775TIP3    H226817   3.240   6.223  16.806  0.3612 -0.0413  0.0452
 1776TIP3   OH226818   2.358   4.749   4.398 -0.4629  0.0104 -0.4008
 1776TIP3    H126819   2.431   4.781   4.345 -0.6598  0.3393 -0.4754
 1776TIP3    H226820   2.394   4.674   4.446  0.7249  1.8159  1.6392
 1777TIP3   OH226821   5.050   4.727  16.643 -0.2086 -0.3338  0.0380
 1777TIP3    H126822   5.128   4.693  16.599  0.8674  2.0316  0.0648
 1777TIP3    H226823   5.001   4.772  16.574 -1.4880 -1.6566  0.0548
 1778TIP3   OH226824   4.149   3.311  14.788  0.1823 -0.2529 -0.0815
 1778TIP3    H126825   4.085   3.381  14.778  1.8362  1.1029 -1.7521
 1778TIP3    H226826   4.153   3.271  14.701 -0.4076 -2.1444  0.7404
 1779TIP3   OH226827   6.050   3.004  13.104 -0.4943  1.4323 -0.0535
 1779TIP3    H126828   6.116   2.976  13.041 -0.0350  0.9849  0.6212
 1779TIP3    H226829   6.035   2.928  13.159 -2.3095  1.2182 -0.8102
 1780TIP3   OH226830   4.782   3.905  16.508 -0.3358  0.3145  0.3388
 1780TIP3    H126831   4.830   3.823  16.518 -0.5307 -0.0821 -1.6270
 1780TIP3    H226832   4.825   3.949  16.434 -0.5699  1.7308  1.0326
 1781TIP3   OH226833   6.314   1.649  11.646  0.7267 -0.4440 -0.6214
 1781TIP3    H126834   6.384   1.593  11.613  0.0093 -0.9237 -1.3391
 1781TIP3    H226835   6.306   1.718  11.580  1.8478  0.7166  0.4287
 1782TIP3   OH226836   1.625   2.893   3.798  0.0361  0.3726  0.7582
 1782TIP3    H126837   1.574   2.972   3.814 -0.2022  0.7307 -1.6194
 1782TIP3    H226838   1.571   2.840   3.741  2.5570  1.1434 -2.5352
 1783TIP3   OH226839   2.777   1.221  15.588  0.0102  0.2497  0.6149
 1783TIP3    H126840   2.798   1.218  15.681  1.5292 -0.3501  0.2728
 1783TIP3    H226841   2.851   1.268  15.548 -0.0431 -0.5352 -0.4309
 1784TIP3   OH226842   3.652   3.920  11.777  0.2778  0.0754 -0.1255
 1784TIP3    H126843   3.590   3.993  11.773  2.1862  1.6772 -1.5364
 1784TIP3    H226844   3.662   3.903  11.871  0.8089  2.5654  0.3245
 1785TIP3   OH226845   6.738   2.106   2.144 -0.3590 -0.2210  0.7383
 1785TIP3    H126846   6.752   2.118   2.238  0.6164  0.1144  0.5622
 1785TIP3    H226847   6.684   2.028   2.138  0.5809 -0.9500  1.5365
 1786TIP3   OH226848   4.693   2.310   2.696  0.5478  0.3551 -0.8504
 1786TIP3    H126849   4.612   2.303   2.745  0.6410 -0.2696 -0.7784
 1786TIP3    H226850   4.680   2.384   2.637  0.9790  2.0466  1.1244
 1787TIP3   OH226851   5.671   4.844  12.304 -0.7509 -0.2373 -0.2046
 1787TIP3    H126852   5.654   4.913  12.368 -0.8102 -1.0900  0.7093
 1787TIP3    H226853   5.757   4.809  12.329 -0.3086  0.1024 -1.2120
 1788TIP3   OH226854   3.870   4.347  14.476 -0.0086  0.0252 -0.6073
 1788TIP3    H126855   3.953   4.391  14.494  0.4138 -0.0698 -2.2630
 1788TIP3    H226856   3.804   4.400  14.522  0.7211  1.2918 -1.0053
 1789TIP3   OH226857   1.822   1.328   1.875  0.0347 -0.1509 -0.0721
 1789TIP3    H126858   1.832   1.404   1.817  1.2048  0.5474  1.0243
 1789TIP3    H226859   1.732   1.335   1.907  0.9885  2.4066  2.2289
 1790TIP3   OH226860   1.625   4.317   1.593 -0.1535  0.3667 -0.3187
 1790TIP3    H126861   1.570   4.305   1.515  0.4188 -1.9068 -0.3925
 1790TIP3    H226862   1.708   4.350   1.559 -0.6941  1.6392 -0.4292
 1791TIP3   OH226863   0.770   6.465   3.273 -0.5029  0.2295 -0.8184
 1791TIP3    H126864   0.827   6.516   3.216 -1.8206  0.2132 -2.1948
 1791TIP3    H226865   0.706   6.425   3.214 -0.6759 -1.4500  0.4478
 1792TIP3   OH226866   1.784   6.447   5.617  0.3489 -0.7757  0.0991
 1792TIP3    H126867   1.729   6.377   5.580  0.2381 -0.0241 -1.1952
 1792TIP3    H226868   1.750   6.527   5.577  0.9967 -0.0719  0.9604
 1793TIP3   OH226869   2.371   3.946  16.324 -0.6290 -0.0116 -0.1387
 1793TIP3    H126870   2.463   3.962  16.303 -0.4376 -1.3192 -0.3643
 1793TIP3    H226871   2.373   3.873  16.386 -1.5074  0.0250 -0.0584
 1794TIP3   OH226872   1.382   3.622   4.166  0.9633  0.1153  0.5176
 1794TIP3    H126873   1.341   3.599   4.082  1.3170  1.5939 -0.0830
 1794TIP3    H226874   1.345   3.708   4.187  3.3032  1.2216  0.2462
 1795TIP3   OH226875   4.335   1.651   5.454  0.8326 -0.4822  0.3912
 1795TIP3    H126876   4.254   1.694   5.482  0.7534 -1.1525  1.2177
 1795TIP3    H226877   4.310   1.560   5.439  1.3129 -0.5663  0.0978
 1796TIP3   OH226878   1.200   2.169   0.566 -0.3766  0.2404  0.4139
 1796TIP3    H126879   1.246   2.113   0.628 -0.7385 -0.2829  0.2066
 1796TIP3    H226880   1.255   2.248   0.560 -0.0796  0.0795  1.0056
 1797TIP3   OH226881   6.546   5.982  17.166 -0.3702 -0.6800 -0.5413
 1797TIP3    H126882   6.474   5.956  17.109 -0.9452  0.1478 -0.1903
 1797TIP3    H226883   6.532   6.075  17.183  2.5859  0.3198 -3.1065
 1798TIP3   OH226884   6.065   2.980   5.393 -0.1677 -0.6107  1.1421
 1798TIP3    H126885   6.018   3.011   5.315 -1.9957 -1.9677  1.6808
 1798TIP3    H226886   6.032   3.035   5.464  2.6747  1.7290  0.7765
 1799TIP3   OH226887   4.702   4.963  11.820 -0.4873  0.0771  0.2603
 1799TIP3    H126888   4.666   4.995  11.736  0.4866 -1.6979 -0.8524
 1799TIP3    H226889   4.644   4.891  11.844  0.1533 -0.4073  0.3394
 1800TIP3   OH226890   1.559   4.171  15.152  0.1343  1.0719  0.6159
 1800TIP3    H126891   1.594   4.111  15.086  0.0308  2.5988 -0.8669
 1800TIP3    H226892   1.634   4.193  15.206  0.6480  1.3013 -0.1724
 1801TIP3   OH226893   1.297   1.406   1.970  0.3592 -0.0149 -0.5289
 1801TIP3    H126894   1.277   1.446   1.886  0.4341  1.6364  0.2157
 1801TIP3    H226895   1.214   1.368   1.999  0.0450  0.4768 -0.7875
 1802TIP3   OH226896   4.279   0.512   1.031 -0.2718  0.5485  0.0772
 1802TIP3    H126897   4.216   0.448   0.999  0.7422 -1.4084  1.8995
 1802TIP3    H226898   4.239   0.597   1.012 -2.4672 -0.6362 -0.7102
 1803TIP3   OH226899   4.491   2.507  14.869 -0.2690 -0.3009  0.0167
 1803TIP3    H126900   4.448   2.505  14.955 -1.0833  0.2658 -0.3665
 1803TIP3    H226901   4.431   2.459  14.812 -0.5371  0.7311 -0.5876
 1804TIP3   OH226902   4.806   6.672   5.121  0.6765 -0.3006 -0.0690
 1804TIP3    H126903   4.793   6.612   5.048 -0.4853  1.3428 -1.2357
 1804TIP3    H226904   4.754   6.635   5.192  0.1802 -0.8095 -0.7000
 1805TIP3   OH226905   1.206   3.102  16.774  0.5191  0.4920  0.0563
 1805TIP3    H126906   1.134   3.052  16.812  0.6895  1.2272  1.3813
 1805TIP3    H226907   1.236   3.158  16.845  0.8321  1.9251 -1.1961
 1806TIP3   OH226908   5.485   4.787   4.085 -0.2661  0.1301 -0.2414
 1806TIP3    H126909   5.488   4.801   4.180  0.2061  0.7143 -0.3415
 1806TIP3    H226910   5.475   4.692   4.076  0.1676  0.0157  0.3897
 1807TIP3   OH226911   2.594   2.738   4.828 -0.0737  0.0508 -0.1507
 1807TIP3    H126912   2.629   2.700   4.909 -0.0407 -0.8678 -0.5805
 1807TIP3    H226913   2.509   2.773   4.853 -0.9882 -2.0801 -0.1464
 1808TIP3   OH226914   4.995   2.294   1.156 -0.1266 -0.2571 -0.6036
 1808TIP3    H126915   5.012   2.200   1.158 -1.2365 -0.4345  0.8488
 1808TIP3    H226916   5.026   2.327   1.240 -1.4318  0.3685 -0.3451
 1809TIP3   OH226917   2.958   3.422  11.611 -0.0159 -0.1701 -0.3307
 1809TIP3    H126918   2.924   3.510  11.598  0.0848  0.0882  1.0539
 1809TIP3    H226919   2.889   3.376  11.658  0.5834 -0.3544  0.3753
 1810TIP3   OH226920   4.048   6.621  16.286  0.7889 -0.0266 -0.0058
 1810TIP3    H126921   4.120   6.572  16.247  0.8282  0.3233 -0.3806
 1810TIP3    H226922   4.021   6.569  16.362 -0.2257 -1.4445 -1.3061
 1811TIP3   OH226923   1.854   1.098   3.133  0.0242 -1.3090 -0.5047
 1811TIP3    H126924   1.818   1.035   3.195  0.5755 -0.2326  0.9127
 1811TIP3    H226925   1.943   1.113   3.163 -0.5742  1.2839  0.0392
 1812TIP3   OH226926   3.405   3.117  13.629 -0.1512  0.1714 -0.6451
 1812TIP3    H126927   3.368   3.197  13.666 -0.8603 -0.1074 -0.7351
 1812TIP3    H226928   3.499   3.122  13.648 -0.5095  0.0004  1.2786
 1813TIP3   OH226929   6.130   5.298   0.719 -0.6492  0.2223  0.3818
 1813TIP3    H126930   6.196   5.344   0.770 -0.8400  0.2264  0.6262
 1813TIP3    H226931   6.048   5.313   0.766 -0.4815 -1.6930  1.3463
 1814TIP3   OH226932   3.674   1.014   2.660 -0.1212 -0.2492  0.4036
 1814TIP3    H126933   3.677   0.999   2.754  1.3126 -0.5632  0.3306
 1814TIP3    H226934   3.766   1.022   2.634 -0.4589 -0.8887 -1.0713
 1815TIP3   OH226935   3.778   0.331  12.574  0.2195  0.0062 -0.0335
 1815TIP3    H126936   3.697   0.367  12.538  0.0085  0.0272  0.4584
 1815TIP3    H226937   3.802   0.392  12.644  0.6163 -0.0432 -0.1268
 1816TIP3   OH226938   2.474   0.251  16.231 -0.0947  0.0204 -0.2388
 1816TIP3    H126939   2.467   0.239  16.326  0.0589  0.2031 -0.2010
 1816TIP3    H226940   2.502   0.166  16.198  1.2519  0.3287  0.0462
 1817TIP3   OH226941   5.150   0.329  13.773  0.1677  0.2560  0.3249
 1817TIP3    H126942   5.170   0.258  13.711  0.3928  0.4647  0.1555
 1817TIP3    H226943   5.115   0.284  13.850  3.2003 -0.2752  1.4374
 1818TIP3   OH226944   0.669   0.282   1.230 -0.0249  0.3097  0.4186
 1818TIP3    H126945   0.594   0.264   1.287  1.4927 -1.8339  1.8329
 1818TIP3    H226946   0.737   0.312   1.291  0.9115  0.2017 -0.5697
 1819TIP3   OH226947   0.890   5.422  14.775  0.1822 -0.4673 -0.6958
 1819TIP3    H126948   0.862   5.338  14.810 -0.3936 -0.3331 -0.8302
 1819TIP3    H226949   0.827   5.485  14.810  1.3060  0.0871  0.3718
 1820TIP3   OH226950   1.872   3.240  14.358  0.3713 -0.0652  0.0472
 1820TIP3    H126951   1.911   3.173  14.414 -1.2971 -1.1015 -0.0034
 1820TIP3    H226952   1.883   3.322  14.407 -0.7578 -0.9060  1.7462
 1821TIP3   OH226953   0.088   4.513   0.073 -0.0011  0.0853 -0.2410
 1821TIP3    H126954   0.000   4.516   0.034 -0.0052  0.2396 -0.2205
 1821TIP3    H226955   0.132   4.442   0.026 -0.0933  0.0957 -0.3448
 1822TIP3   OH226956   2.989   5.906  11.280  0.2118  0.5302 -0.0228
 1822TIP3    H126957   3.074   5.942  11.256  0.2560  0.4261 -0.0214
 1822TIP3    H226958   2.926   5.970  11.245  0.1213 -1.3524 -3.5280
 1823TIP3   OH226959   5.197   1.489   6.112  0.1009  0.2390  0.3258
 1823TIP3    H126960   5.198   1.483   6.207 -0.4431 -0.0490  0.3165
 1823TIP3    H226961   5.166   1.403   6.083 -1.1028  0.7907 -0.0587
 1824TIP3   OH226962   0.694   2.463  11.475 -0.2774 -0.3641 -0.2311
 1824TIP3    H126963   0.623   2.440  11.416  0.2365  0.4525 -1.1862
 1824TIP3    H226964   0.770   2.417  11.440  0.1579  0.5860 -0.5576
 1825TIP3   OH226965   6.006   5.837  16.366  0.4717 -0.2142  0.6879
 1825TIP3    H126966   6.067   5.905  16.339 -0.2884  0.7052  1.2380
 1825TIP3    H226967   6.003   5.776  16.292  1.2444  0.2835  0.2406
 1826TIP3   OH226968   0.873   2.794  10.862 -0.2348  0.1778  0.3961
 1826TIP3    H126969   0.779   2.807  10.860 -0.7057 -2.7394  0.3435
 1826TIP3    H226970   0.900   2.794  10.770 -0.4557 -0.6031  0.3288
 1827TIP3   OH226971   5.792   6.148   4.480  0.1161  0.4568  0.6308
 1827TIP3    H126972   5.791   6.195   4.397 -0.1709  2.0028  1.5017
 1827TIP3    H226973   5.868   6.090   4.474  1.5334  2.3393  0.2774
 1828TIP3   OH226974   4.962   6.472   4.212  0.3705  0.1949 -0.0325
 1828TIP3    H126975   4.922   6.430   4.287  0.5046  1.2281  0.6288
 1828TIP3    H226976   4.980   6.401   4.151 -1.5158 -0.4127  0.0961
 1829TIP3   OH226977   2.822   2.445   4.102  0.4333 -0.9719  0.1272
 1829TIP3    H126978   2.727   2.457   4.110  0.2513 -2.0269 -0.3988
 1829TIP3    H226979   2.847   2.399   4.182  0.5214 -0.5864  0.3213
 1830TIP3   OH226980   5.636   6.310  11.020  0.2310 -0.2163 -0.3060
 1830TIP3    H126981   5.561   6.252  11.015 -0.1670  0.2876 -0.2002
 1830TIP3    H226982   5.669   6.315  10.930  0.0366 -0.3059 -0.3807
 1831TIP3   OH226983   5.052   4.155   5.015  0.5197 -0.4417 -0.0339
 1831TIP3    H126984   5.012   4.127   4.932  1.3794 -1.0545 -0.2592
 1831TIP3    H226985   5.064   4.249   5.005  2.7923 -0.8536 -1.5909
 1832TIP3   OH226986   1.810   2.553  12.492  0.3473 -0.1058  0.0115
 1832TIP3    H126987   1.798   2.572  12.585  1.0077  1.2890 -0.1775
 1832TIP3    H226988   1.896   2.513  12.487  0.5422  0.3214 -0.0675
 1833TIP3   OH226989   5.191   4.672   4.704 -0.0524  0.1015 -0.4625
 1833TIP3    H126990   5.186   4.763   4.731  1.3298  0.3865 -1.1408
 1833TIP3    H226991   5.100   4.641   4.708 -0.3794  1.1835  0.8147
 1834TIP3   OH226992   2.140   6.702  14.123 -0.1513  0.0844 -0.0020
 1834TIP3    H126993   2.199   6.752  14.067 -0.7305  0.9449  0.1496
 1834TIP3    H226994   2.057   6.703  14.077 -1.2986  2.8691  1.9725
 1835TIP3   OH226995   2.714   2.851   3.007 -0.3425 -0.1235  0.3178
 1835TIP3    H126996   2.641   2.844   3.067  0.6248  0.7443  1.6231
 1835TIP3    H226997   2.707   2.774   2.950 -3.0513  0.6729 -0.4815
 1836TIP3   OH226998   6.778   3.445  16.367 -0.1198 -0.5479 -0.4775
 1836TIP3    H126999   6.750   3.493  16.289  0.7803  0.7785 -0.0048
 1836TIP3    H227000   6.802   3.513  16.429  0.2264 -1.6156  0.5666
 1837TIP3   OH227001   0.902   5.053   2.270 -0.2937 -0.4429  0.3491
 1837TIP3    H127002   0.845   5.012   2.336 -0.1528  0.5904  1.1459
 1837TIP3    H227003   0.910   5.144   2.300 -2.8084  0.9136 -2.8023
 1838TIP3   OH227004   4.288   4.261  11.895 -0.4798 -0.0970 -0.2646
 1838TIP3    H127005   4.225   4.333  11.891 -2.2437 -1.6228 -0.2029
 1838TIP3    H227006   4.347   4.285  11.967  0.0272  2.1262 -1.3892
 1839TIP3   OH227007   3.093   5.956  11.557  0.0425 -0.6067  0.2525
 1839TIP3    H127008   3.187   5.939  11.546  0.1878 -0.1719  0.7969
 1839TIP3    H227009   3.052   5.910  11.484  0.7276 -0.3284 -0.3197
 1840TIP3   OH227010   5.996   2.470   1.185  0.3810  0.1540  0.3788
 1840TIP3    H127011   6.072   2.508   1.231  1.2713 -3.1776  1.8187
 1840TIP3    H227012   6.034   2.417   1.116 -0.8592  2.0142 -1.7970
 1841TIP3   OH227013   5.054   3.621   2.267  0.4437  1.0875 -0.5802
 1841TIP3    H127014   4.980   3.680   2.280  1.6466  2.2314  1.2760
 1841TIP3    H227015   5.095   3.653   2.186 -0.5345  1.0403 -1.0962
 1842TIP3   OH227016   2.762   3.808   2.490 -0.1311  0.1465 -0.2429
 1842TIP3    H127017   2.702   3.745   2.451 -0.7924 -0.3565  1.5454
 1842TIP3    H227018   2.842   3.757   2.505  0.4902  0.6081 -1.8671
 1843TIP3   OH227019   0.722   5.703   3.664 -0.3338  0.0018 -0.1869
 1843TIP3    H127020   0.772   5.629   3.631 -0.7142  0.5241 -1.9911
 1843TIP3    H227021   0.774   5.780   3.641  0.1689  0.3248  1.8648
 1844TIP3   OH227022   6.280   5.686  12.145 -0.0689  0.3986  0.0759
 1844TIP3    H127023   6.187   5.706  12.157 -0.2672 -0.3339 -0.2419
 1844TIP3    H227024   6.299   5.716  12.056 -0.2170 -0.2476 -0.1763
 1845TIP3   OH227025   2.961   4.783  16.664 -0.1809  0.9950 -0.6251
 1845TIP3    H127026   2.895   4.724  16.701 -0.0450 -0.2167 -2.2629
 1845TIP3    H227027   3.031   4.724  16.634  0.9252  2.1521 -0.3563
 1846TIP3   OH227028   6.380   6.462   1.108 -0.2361  0.2889 -0.1776
 1846TIP3    H127029   6.320   6.391   1.133  1.0994  0.1476  2.8460
 1846TIP3    H227030   6.460   6.417   1.082  0.4343  0.6636  1.2316
 1847TIP3   OH227031   0.895   5.364  15.959  0.4306  0.0211  0.0123
 1847TIP3    H127032   0.922   5.429  16.024 -1.7176  0.0139  0.9424
 1847TIP3    H227033   0.855   5.293  16.010 -2.2914  0.5106 -1.3214
 1848TIP3   OH227034   0.855   0.193  11.323 -0.4776  0.0401  0.5127
 1848TIP3    H127035   0.917   0.207  11.251  0.7823  1.1150  1.7900
 1848TIP3    H227036   0.905   0.214  11.402 -1.9822 -0.7147  1.6824
 1849TIP3   OH227037   6.247   1.178   1.492 -0.1267 -0.0817  0.1853
 1849TIP3    H127038   6.256   1.098   1.545  0.5093 -0.6368 -0.7436
 1849TIP3    H227039   6.154   1.182   1.471 -0.2440 -0.3159  0.6547
 1850TIP3   OH227040   6.719   1.069   0.864  0.1113 -0.3795  0.4114
 1850TIP3    H127041   6.703   0.993   0.920  0.1827 -1.5257 -1.0921
 1850TIP3    H227042   6.685   1.144   0.913  0.9517 -1.2521  2.3501
 1851TIP3   OH227043   1.988   0.578  14.555  0.2659 -0.6201  0.4246
 1851TIP3    H127044   2.007   0.487  14.534  0.0173 -0.6038  0.1253
 1851TIP3    H227045   2.058   0.628  14.513  0.3705 -0.6669  0.5422
 1852TIP3   OH227046   2.874   1.852   3.869  0.3866 -0.2289  0.6514
 1852TIP3    H127047   2.836   1.815   3.789 -2.7564 -0.9059  2.4049
 1852TIP3    H227048   2.875   1.947   3.854  1.1903 -0.4496 -0.7563
 1853TIP3   OH227049   6.677   5.854   1.096 -0.0721  0.1375  0.3198
 1853TIP3    H127050   6.581   5.855   1.094 -0.0807  0.6444  0.7904
 1853TIP3    H227051   6.701   5.774   1.051 -0.7219  0.0050  0.2033
 1854TIP3   OH227052   0.255   1.841  10.649 -0.1283  0.0254  0.4301
 1854TIP3    H127053   0.202   1.826  10.727 -1.2915  1.1922 -0.1124
 1854TIP3    H227054   0.344   1.815  10.674 -0.9222 -1.8655  1.3802
 1855TIP3   OH227055   1.783   0.638   3.274  0.0474  0.0300  0.7876
 1855TIP3    H127056   1.704   0.659   3.225  0.3182 -2.6732 -0.9293
 1855TIP3    H227057   1.759   0.560   3.325  1.7138 -1.0455 -0.0502
 1856TIP3   OH227058   3.949   5.769   1.521  0.3946  0.3382  0.3043
 1856TIP3    H127059   3.904   5.822   1.587  0.0467  0.2688  0.1255
 1856TIP3    H227060   3.971   5.688   1.566 -0.7545 -0.1226  0.0513
 1857TIP3   OH227061   2.102   0.347   0.535  0.1952 -0.4086 -0.8564
 1857TIP3    H127062   2.108   0.420   0.474 -1.2476  0.9964  0.6308
 1857TIP3    H227063   2.176   0.360   0.594  1.6901 -1.8627 -2.3641
 1858TIP3   OH227064   3.343   2.808   0.452  0.0368  0.5616 -0.0900
 1858TIP3    H127065   3.371   2.795   0.543  0.8668 -0.2008 -0.4516
 1858TIP3    H227066   3.313   2.899   0.450 -0.3660  0.4695  1.0439
 1859TIP3   OH227067   2.047   4.696   5.274  0.0754  0.2680 -0.1504
 1859TIP3    H127068   2.091   4.737   5.200 -1.0466  0.8573 -0.5106
 1859TIP3    H227069   2.091   4.611   5.284 -0.9988 -0.6525 -2.7487
 1860TIP3   OH227070   0.365   6.737  14.130  0.0473 -0.0088  0.8872
 1860TIP3    H127071   0.457   6.735  14.105 -0.4873  2.7852 -1.5312
 1860TIP3    H227072   0.325   6.668  14.078  0.7034 -1.1195  1.8211
 1861TIP3   OH227073   5.844   3.684   3.540  0.1724 -0.3918 -0.2469
 1861TIP3    H127074   5.924   3.634   3.523 -0.1613 -0.6434 -1.0956
 1861TIP3    H227075   5.775   3.619   3.544  0.1342 -0.2756  1.4872
 1862TIP3   OH227076   3.434   3.152  14.855  0.3310  0.1103  0.0975
 1862TIP3    H127077   3.486   3.090  14.803  0.1800  0.3712 -0.3652
 1862TIP3    H227078   3.400   3.215  14.791  0.3262  0.5632  0.5456
 1863TIP3   OH227079   4.995   5.444  15.763 -0.0767  0.0378  0.3442
 1863TIP3    H127080   4.932   5.400  15.821  2.0342 -1.5847  1.4598
 1863TIP3    H227081   4.990   5.536  15.788 -1.0855 -0.2718  1.3050
 1864TIP3   OH227082   4.315   1.341   4.134  0.4419  0.0736  0.4249
 1864TIP3    H127083   4.292   1.284   4.207  0.5743 -0.3286  0.1555
 1864TIP3    H227084   4.340   1.424   4.175 -0.6193  0.2320  0.7663
 1865TIP3   OH227085   5.441   0.125  10.233  0.4921 -0.2749 -0.2484
 1865TIP3    H127086   5.525   0.111  10.190  0.9931  0.4963  0.4432
 1865TIP3    H227087   5.437   0.057  10.301  0.7180 -0.0995 -0.0569
 1866TIP3   OH227088   5.965   5.661   0.875  0.0169  0.1554 -0.0930
 1866TIP3    H127089   5.981   5.593   0.941  1.1430 -0.6451 -1.1553
 1866TIP3    H227090   5.993   5.621   0.792 -0.4631  1.4855 -0.9174
 1867TIP3   OH227091   0.109   5.896   5.835 -0.1371  0.0784  0.2865
 1867TIP3    H127092   0.064   5.963   5.886  0.6374 -0.2690  1.4570
 1867TIP3    H227093   0.070   5.901   5.748 -0.0135  2.1328  0.3152
 1868TIP3   OH227094   1.609   2.236   5.140 -0.1463 -0.6108 -0.3680
 1868TIP3    H127095   1.701   2.219   5.118 -0.0173 -1.0724  0.5104
 1868TIP3    H227096   1.597   2.197   5.226 -0.8076  0.6358  0.1267
 1869TIP3   OH227097   3.305   6.390  15.351  0.1169 -0.1599  0.0711
 1869TIP3    H127098   3.329   6.447  15.278  1.5060  0.0070  0.6432
 1869TIP3    H227099   3.355   6.424  15.426 -1.5386 -0.1120  1.1944
 1870TIP3   OH227100   1.280   6.217   2.381  0.7306 -0.7213 -0.3597
 1870TIP3    H127101   1.231   6.297   2.401  0.3272 -0.6314 -1.6365
 1870TIP3    H227102   1.223   6.146   2.411  1.3485 -0.5361  1.3249
 1871TIP3   OH227103   3.373   3.504   4.034  0.3682  0.1027  0.0117
 1871TIP3    H127104   3.343   3.518   3.944  1.1696  1.8857  0.0030
 1871TIP3    H227105   3.468   3.506   4.028  0.4447 -1.0672  0.7195
 1872TIP3   OH227106   1.014   1.080  16.354 -0.1580  0.2319 -0.6859
 1872TIP3    H127107   0.977   1.142  16.291  0.1737 -0.1263 -1.2409
 1872TIP3    H227108   1.023   0.998  16.305  2.0749  0.5143 -0.8010
 1873TIP3   OH227109   0.595   1.103   2.144 -0.1160 -0.1486  0.3802
 1873TIP3    H127110   0.662   1.043   2.176  0.8232  1.4006  1.3581
 1873TIP3    H227111   0.525   1.046   2.113  1.0164 -1.7589  0.7376
 1874TIP3   OH227112   1.467   2.269  11.172 -0.2014  0.5194  1.2105
 1874TIP3    H127113   1.433   2.300  11.088  0.5271  0.1085  0.7562
 1874TIP3    H227114   1.493   2.178  11.155 -2.2008 -0.3201  2.4968
 1875TIP3   OH227115   5.260   6.440   3.515  0.2618 -0.4655 -0.1144
 1875TIP3    H127116   5.328   6.424   3.580 -0.7494 -2.1366  0.5634
 1875TIP3    H227117   5.193   6.374   3.533 -0.0054 -1.0306 -2.8847
 1876TIP3   OH227118   4.931   4.851  15.143  0.1482 -0.3223 -0.8263
 1876TIP3    H127119   4.956   4.849  15.236  1.0094 -1.2733 -1.0758
 1876TIP3    H227120   5.008   4.884  15.098 -0.2482  0.0741 -1.2246
 1877TIP3   OH227121   1.025   0.684   3.181 -0.1908  0.1044  0.1144
 1877TIP3    H127122   1.044   0.598   3.141 -1.0242  0.2563 -0.6212
 1877TIP3    H227123   0.974   0.663   3.259 -0.7383 -0.0571 -0.2798
 1878TIP3   OH227124   2.482   1.792   0.870  0.5040 -0.1933  0.1546
 1878TIP3    H127125   2.506   1.701   0.850 -0.2362  0.5304 -4.6130
 1878TIP3    H227126   2.411   1.812   0.809  0.8997  3.7005  0.8716
 1879TIP3   OH227127   2.447   2.588  13.494 -0.0425  0.3485 -0.2565
 1879TIP3    H127128   2.536   2.596  13.528  0.1391 -1.6454 -0.2295
 1879TIP3    H227129   2.435   2.666  13.439  0.5539  2.2917  2.3056
 1880TIP3   OH227130   3.049   5.688  13.393 -0.0559 -0.4277 -0.1417
 1880TIP3    H127131   3.138   5.717  13.375  0.7152 -1.8999  1.1139
 1880TIP3    H227132   3.046   5.599  13.358 -1.5587  0.1783 -1.6225
 1881TIP3   OH227133   4.994   3.505   1.197  0.4902 -0.0141 -0.2729
 1881TIP3    H127134   5.077   3.515   1.151  0.1148 -0.7075 -1.1227
 1881TIP3    H227135   4.989   3.412   1.218  0.0344  0.0665 -0.0172
 1882TIP3   OH227136   1.284   0.712   3.061 -0.1601  0.3102  0.0690
 1882TIP3    H127137   1.291   0.806   3.044 -0.1934  0.2958 -0.0266
 1882TIP3    H227138   1.206   0.703   3.115  0.5700  0.4763  1.1661
 1883TIP3   OH227139   2.844   6.338  11.665  0.3687  0.1180 -0.6404
 1883TIP3    H127140   2.851   6.244  11.681 -0.4551  0.6488  3.4886
 1883TIP3    H227141   2.918   6.376  11.711 -0.9798  1.7002  0.2895
 1884TIP3   OH227142   4.394   3.533   3.210  0.2127  0.1860 -0.0363
 1884TIP3    H127143   4.488   3.521   3.218  0.2369 -1.4915 -2.1911
 1884TIP3    H227144   4.384   3.599   3.142 -0.1591  1.9317  1.6858
 1885TIP3   OH227145   4.936   3.909  16.000 -0.2457  0.1438 -0.4549
 1885TIP3    H127146   4.995   3.837  16.021  0.0459  0.0862 -1.4176
 1885TIP3    H227147   4.993   3.985  15.994 -0.5643  0.4728  0.6304
 1886TIP3   OH227148   3.188   1.846  15.560  0.1953  0.0903  0.3818
 1886TIP3    H127149   3.163   1.810  15.645 -1.5294 -2.3308 -1.0688
 1886TIP3    H227150   3.282   1.829  15.553  0.2204 -0.2960  1.5048
 1887TIP3   OH227151   1.093   6.715   3.400  0.1348 -0.2161 -0.7209
 1887TIP3    H127152   1.180   6.728   3.439 -0.5504 -2.3719  1.6229
 1887TIP3    H227153   1.076   6.621   3.410 -2.0948  0.0189 -1.9923
 1888TIP3   OH227154   1.490   0.587  15.542  0.0543 -0.1147 -0.1502
 1888TIP3    H127155   1.575   0.549  15.519 -0.6524 -1.1817 -1.0915
 1888TIP3    H227156   1.490   0.590  15.637  0.1821 -2.5032 -0.0254
 1889TIP3   OH227157   5.072   4.597   1.518 -0.2070 -0.1785  0.2628
 1889TIP3    H127158   5.077   4.596   1.422 -1.1249 -0.4265  0.2134
 1889TIP3    H227159   4.991   4.643   1.538  0.2300  0.3080  0.9364
 1890TIP3   OH227160   0.204   0.622  14.290 -0.1231  0.6890 -0.2975
 1890TIP3    H127161   0.278   0.604  14.231 -0.5520  0.3416 -0.7287
 1890TIP3    H227162   0.141   0.553  14.272  0.0984  0.0911  1.1768
 1891TIP3   OH227163   5.486   6.767  14.004  0.3456  0.3953 -0.1768
 1891TIP3    H127164   5.411   6.821  14.029  0.8819  1.8883 -1.7121
 1891TIP3    H227165   5.529   6.816  13.934  0.4359 -2.3562 -2.1254
 1892TIP3   OH227166   5.551   4.583   5.338  0.0663  0.0699 -0.2013
 1892TIP3    H127167   5.522   4.571   5.429  2.9663 -0.4988  0.6964
 1892TIP3    H227168   5.470   4.593   5.288 -1.6924 -2.4791  2.0276
 1893TIP3   OH227169   2.516   5.561   3.120 -0.2946  0.1062 -0.2690
 1893TIP3    H127170   2.539   5.495   3.185 -2.0524  0.4349  0.7264
 1893TIP3    H227171   2.483   5.511   3.046  1.2274 -0.2479 -0.7220
 1894TIP3   OH227172   5.491   0.549   0.171 -0.1072 -0.2251 -0.1704
 1894TIP3    H127173   5.515   0.552   0.263 -1.3724 -0.4546  0.1859
 1894TIP3    H227174   5.424   0.618   0.162 -1.8077 -1.8510 -0.3422
 1895TIP3   OH227175   5.322   0.612  14.784 -0.5657  0.3034  0.0861
 1895TIP3    H127176   5.345   0.631  14.875 -0.3797  0.2571  0.0482
 1895TIP3    H227177   5.228   0.629  14.779 -1.1904 -2.6562  1.0691
 1896TIP3   OH227178   1.586   1.819  16.550  0.0439 -0.3023 -0.7608
 1896TIP3    H127179   1.592   1.913  16.563  0.0795 -0.4068  0.0300
 1896TIP3    H227180   1.610   1.805  16.458  0.1497  0.4461 -0.8464
 1897TIP3   OH227181   2.328   1.391   4.273 -0.4538  0.1607  0.0301
 1897TIP3    H127182   2.401   1.332   4.252 -1.7927 -1.2789 -0.7031
 1897TIP3    H227183   2.342   1.415   4.364  0.3471 -0.9562  0.2130
 1898TIP3   OH227184   1.314   3.494  15.511  0.0548 -0.0713 -0.4305
 1898TIP3    H127185   1.220   3.502  15.492 -0.0790 -0.0929  0.2042
 1898TIP3    H227186   1.344   3.424  15.453 -0.2946  0.0262 -0.7330
 1899TIP3   OH227187   4.725   6.796   2.822  0.9564  0.5561 -0.4066
 1899TIP3    H127188   4.724   6.806   2.918 -2.2528  0.0890 -0.3444
 1899TIP3    H227189   4.722   6.886   2.789  0.8311  0.6834 -0.0580
 1900TIP3   OH227190   1.479   5.253  13.217  0.5495 -0.3147 -0.0208
 1900TIP3    H127191   1.477   5.166  13.257 -0.1340 -0.5952 -0.6415
 1900TIP3    H227192   1.399   5.256  13.164 -0.3338  1.3296  1.3454
 1901TIP3   OH227193   2.621   2.669  13.888  0.0729  0.1683 -0.7405
 1901TIP3    H127194   2.632   2.763  13.895  1.0901 -0.0028  0.1649
 1901TIP3    H227195   2.665   2.645  13.807 -1.2719  0.6297 -1.6135
 1902TIP3   OH227196   3.846   4.500  11.895  0.0497 -0.0922  0.2467
 1902TIP3    H127197   3.792   4.421  11.902 -0.7366  0.3296 -0.8503
 1902TIP3    H227198   3.824   4.551  11.972  1.1970 -1.3295  1.4054
 1903TIP3   OH227199   0.158   5.317  11.564  0.4829  0.0055 -0.0661
 1903TIP3    H127200   0.088   5.367  11.521  0.0895 -1.0652 -0.6862
 1903TIP3    H227201   0.206   5.276  11.492  0.3671 -1.0861  0.4743
 1904TIP3   OH227202   3.691   4.960   1.928 -0.3179  0.2929 -0.0974
 1904TIP3    H127203   3.632   5.031   1.953 -0.0737 -0.1801  1.8733
 1904TIP3    H227204   3.635   4.882   1.927 -0.2876  0.2817 -0.8504
 1905TIP3   OH227205   6.212   5.200  14.427 -0.4642 -0.2889 -0.3573
 1905TIP3    H127206   6.277   5.270  14.421  0.0179 -0.6543  0.4811
 1905TIP3    H227207   6.257   5.123  14.391 -0.8740 -0.2454 -0.9592
 1906TIP3   OH227208   6.668   3.366  11.918 -0.6430  0.4092  0.2609
 1906TIP3    H127209   6.717   3.447  11.936 -1.7835  0.7781  1.8035
 1906TIP3    H227210   6.620   3.384  11.838 -0.9408  1.2829  0.6322
 1907TIP3   OH227211   2.904   0.094  16.970 -0.1411 -0.0328 -0.8238
 1907TIP3    H127212   2.968   0.114  16.902  0.4957 -2.3817 -0.9605
 1907TIP3    H227213   2.827   0.062  16.923  0.1704 -1.3127 -0.4965
 1908TIP3   OH227214   4.287   4.762  12.283  0.0238 -0.7663 -0.1645
 1908TIP3    H127215   4.244   4.763  12.368  2.2509 -2.1912  1.0141
 1908TIP3    H227216   4.278   4.852  12.251 -1.2152 -0.3287  1.3691
 1909TIP3   OH227217   2.309   4.482   3.209  0.4368 -0.7320  0.0300
 1909TIP3    H127218   2.344   4.498   3.297  0.7141  0.1606 -0.2348
 1909TIP3    H227219   2.333   4.560   3.159  0.8284 -1.4983 -1.0108
 1910TIP3   OH227220   3.716   4.245   2.766 -0.1005  0.0175 -0.1500
 1910TIP3    H127221   3.685   4.314   2.707  0.5143  0.1363 -0.3391
 1910TIP3    H227222   3.799   4.216   2.728  0.2367  0.0068  0.5818
 1911TIP3   OH227223   0.734   2.804   2.331  0.5300  0.5817 -0.1227
 1911TIP3    H127224   0.651   2.842   2.359 -0.0279 -0.8552  0.2161
 1911TIP3    H227225   0.750   2.843   2.245  0.8216  2.8302  0.9079
 1912TIP3   OH227226   3.960   3.673  11.522  0.0549 -0.1009 -0.3637
 1912TIP3    H127227   3.914   3.626  11.592  0.5165 -1.1842 -0.7768
 1912TIP3    H227228   3.926   3.763  11.527  0.7721  0.0839  1.8687
 1913TIP3   OH227229   3.079   4.215   1.560 -0.5974 -0.3326 -0.6460
 1913TIP3    H127230   2.996   4.175   1.533 -1.1634  0.8562 -0.6953
 1913TIP3    H227231   3.122   4.149   1.614 -1.6942 -0.8616 -0.4261
 1914TIP3   OH227232   6.351   5.748   2.306  0.4141 -0.3764  0.3103
 1914TIP3    H127233   6.263   5.780   2.326  0.6716  0.7282 -0.2862
 1914TIP3    H227234   6.337   5.681   2.239  0.2043  1.3715 -1.4288
 1915TIP3   OH227235   1.007   2.981   2.043  0.0350  0.5529  0.0534
 1915TIP3    H127236   1.073   2.918   2.072 -0.1275  1.4879  2.6047
 1915TIP3    H227237   0.950   2.931   1.985  2.0639 -0.6526 -0.9911
 1916TIP3   OH227238   1.342   2.267  12.846  0.2766  0.1176 -0.2487
 1916TIP3    H127239   1.286   2.340  12.820  1.1219  0.6350 -0.6404
 1916TIP3    H227240   1.414   2.269  12.783  1.9885  0.9185  1.6719
 1917TIP3   OH227241   6.172   3.113   4.005  0.2458 -0.2653  0.5315
 1917TIP3    H127242   6.154   3.066   3.923 -1.2148 -0.0430  0.7089
 1917TIP3    H227243   6.107   3.183   4.007 -0.9635 -1.3858  2.7692
 1918TIP3   OH227244   5.627   4.780  11.029 -0.1001 -0.0886  0.1452
 1918TIP3    H127245   5.717   4.805  11.010 -0.1738  1.7769  2.0430
 1918TIP3    H227246   5.585   4.775  10.943  2.0418 -2.0515 -0.8256
 1919TIP3   OH227247   4.306   2.502   6.725 -0.1588 -0.1803 -0.5449
 1919TIP3    H127248   4.225   2.552   6.711 -0.1890 -0.3142 -0.8415
 1919TIP3    H227249   4.288   2.416   6.690 -0.8141 -1.0549  1.8084
 1920TIP3   OH227250   3.228   1.935   1.161  0.4316 -0.1223 -0.5114
 1920TIP3    H127251   3.317   1.912   1.132  0.5301 -1.5936  0.8635
 1920TIP3    H227252   3.231   1.923   1.256 -0.6938  1.7546 -0.2287
 1921TIP3   OH227253   5.241   1.195  15.344  0.3063  0.4227 -0.1002
 1921TIP3    H127254   5.157   1.152  15.361 -1.3626  2.9833 -1.5105
 1921TIP3    H227255   5.237   1.220  15.252  3.0294 -0.2362 -0.4232
 1922TIP3   OH227256   1.367   0.978   3.037  0.0691  0.3655 -0.1025
 1922TIP3    H127257   1.424   0.976   2.960 -3.8861  0.7800 -3.1851
 1922TIP3    H227258   1.344   1.070   3.048 -0.5790  0.1150  0.6718
 1923TIP3   OH227259   2.781   5.798  15.962  0.1274  0.0308 -0.4091
 1923TIP3    H127260   2.821   5.744  16.030  0.6777  0.6194 -0.2579
 1923TIP3    H227261   2.715   5.742  15.922 -0.2035 -0.3208  0.6161
 1924TIP3   OH227262   5.243   2.633  14.707  0.0152  0.0379  0.1600
 1924TIP3    H127263   5.198   2.563  14.661 -0.3153  1.3745 -1.6117
 1924TIP3    H227264   5.254   2.601  14.796 -0.4802 -2.0880 -0.5329
 1925TIP3   OH227265   3.246   1.487   6.725  0.5591  0.0334 -0.7838
 1925TIP3    H127266   3.317   1.550   6.718 -0.7703  2.0492  2.7349
 1925TIP3    H227267   3.288   1.406   6.754  1.7240  0.4861 -1.1918
 1926TIP3   OH227268   3.951   0.532   5.485 -0.3964 -0.2419 -0.3903
 1926TIP3    H127269   3.977   0.576   5.565  1.7014 -1.0711 -0.5631
 1926TIP3    H227270   3.877   0.477   5.510 -0.1788  0.0144  0.8355
 1927TIP3   OH227271   1.025   0.340   5.926  0.1877  0.1765  0.4712
 1927TIP3    H127272   0.973   0.377   5.854  0.4275  0.2237  0.3245
 1927TIP3    H227273   1.003   0.247   5.925 -0.2390  0.2719  0.6937
 1928TIP3   OH227274   4.773   1.195  15.388  0.0850 -0.9920  0.5327
 1928TIP3    H127275   4.717   1.254  15.337  0.8904 -0.4079  0.3070
 1928TIP3    H227276   4.845   1.251  15.417  0.8898 -1.8814  0.2714
 1929TIP3   OH227277   4.674   2.094  12.886 -0.3656  0.2851 -0.1501
 1929TIP3    H127278   4.713   2.179  12.902 -1.1880  0.5391  0.5521
 1929TIP3    H227279   4.748   2.034  12.880  0.1357  0.7996  0.8827
 1930TIP3   OH227280   3.587   0.192   2.471 -0.1199 -0.0591 -0.0177
 1930TIP3    H127281   3.516   0.200   2.534 -0.5144 -0.1904 -0.4470
 1930TIP3    H227282   3.544   0.169   2.389  0.5311 -1.5736  0.0365
 1931TIP3   OH227283   3.309   1.543   4.822  0.3248  0.1292 -0.4920
 1931TIP3    H127284   3.363   1.612   4.860 -1.0699  0.3341  1.1684
 1931TIP3    H227285   3.242   1.526   4.888 -1.3859 -0.4100 -2.3152
 1932TIP3   OH227286   2.781   3.055  15.185  0.6206  0.3414  0.1184
 1932TIP3    H127287   2.761   3.020  15.098  1.1040  1.2631 -0.3747
 1932TIP3    H227288   2.699   3.096  15.214 -0.0186 -1.3711  0.8011
 1933TIP3   OH227289   1.583   2.751  11.783  0.2354  0.2893  0.2725
 1933TIP3    H127290   1.530   2.693  11.837  1.0642 -0.9324 -0.1823
 1933TIP3    H227291   1.524   2.782  11.714  0.3550 -1.9556 -0.8916
 1934TIP3   OH227292   0.963   5.679  12.739 -0.7704 -0.2477 -0.4687
 1934TIP3    H127293   0.929   5.611  12.797  1.2347 -0.8672  0.0409
 1934TIP3    H227294   1.052   5.650  12.719 -1.3082  0.1555 -3.5751
 1935TIP3   OH227295   0.221   0.474  12.951 -0.2967 -0.3099  0.3056
 1935TIP3    H127296   0.146   0.417  12.933 -1.1031  0.5641  0.8984
 1935TIP3    H227297   0.233   0.468  13.046 -1.2988  1.6267  0.5838
 1936TIP3   OH227298   5.519   4.215  12.782 -0.1694  0.0368 -0.6489
 1936TIP3    H127299   5.522   4.296  12.731  0.9342 -0.6693 -1.7407
 1936TIP3    H227300   5.524   4.145  12.717  0.3617 -0.8950  0.3650
 1937TIP3   OH227301   2.888   4.014  15.728  0.3039  0.1802 -0.6383
 1937TIP3    H127302   2.800   4.009  15.690 -0.0316 -1.1074  0.2665
 1937TIP3    H227303   2.883   3.958  15.805  1.5479  1.1813  0.1702
 1938TIP3   OH227304   6.473   2.948   1.219 -0.3436  0.7684 -0.2222
 1938TIP3    H127305   6.535   2.926   1.149 -0.8481  0.9072 -0.7169
 1938TIP3    H227306   6.388   2.919   1.186 -0.7697  1.9838 -0.1981
 1939TIP3   OH227307   5.052   6.132  15.387 -0.0379 -0.2236 -0.5232
 1939TIP3    H127308   4.980   6.077  15.355 -1.9273  1.0971  1.3482
 1939TIP3    H227309   5.061   6.107  15.479  0.4976  1.1129 -0.2139
 1940TIP3   OH227310   1.015   6.696   2.555  0.0023  0.6793 -0.3517
 1940TIP3    H127311   1.082   6.762   2.537 -0.0847  0.7618 -0.3731
 1940TIP3    H227312   1.063   6.621   2.588  0.2296  0.2920 -1.5442
 1941TIP3   OH227313   5.729   5.319  12.781  0.0242 -0.0149  0.2189
 1941TIP3    H127314   5.731   5.340  12.874 -0.9677 -0.7245  0.4102
 1941TIP3    H227315   5.802   5.258  12.769 -1.3093 -1.8636  1.0482
 1942TIP3   OH227316   1.848   5.527   2.855 -0.2610  0.0103  0.3641
 1942TIP3    H127317   1.835   5.489   2.768 -1.0902  0.7071  0.1688
 1942TIP3    H227318   1.885   5.614   2.838 -0.1920  0.0500  0.7110
 1943TIP3   OH227319   1.206   0.586  13.894  0.3179  0.3674 -0.4377
 1943TIP3    H127320   1.294   0.561  13.866  0.3403 -2.3636  1.8083
 1943TIP3    H227321   1.207   0.682  13.894  3.0194  0.3812 -1.2389
 1944TIP3   OH227322   0.657   6.641   3.813  0.0744  0.0547  0.2912
 1944TIP3    H127323   0.700   6.611   3.733  1.7309  0.3898  1.0312
 1944TIP3    H227324   0.611   6.564   3.846 -0.0299 -0.2684 -0.6103
 1945TIP3   OH227325   5.904   3.983   4.334 -0.8429  0.2612  0.0943
 1945TIP3    H127326   5.970   4.031   4.284 -2.4043  1.2511 -1.0702
 1945TIP3    H227327   5.894   3.901   4.286  1.1894 -0.9054  1.5883
 1946TIP3   OH227328   2.288   2.565  17.243 -0.5689 -0.0170 -0.0718
 1946TIP3    H127329   2.233   2.487  17.245  0.7459 -0.9671 -0.8586
 1946TIP3    H227330   2.263   2.610  17.162 -1.5437  0.5504  0.5339
 1947TIP3   OH227331   5.467   3.951  11.076 -0.0763 -0.3335 -0.2384
 1947TIP3    H127332   5.417   3.871  11.091  2.6666 -2.1713 -0.4602
 1947TIP3    H227333   5.412   4.004  11.019 -1.6848 -2.3443 -0.6091
 1948TIP3   OH227334   4.658   6.095  13.013  0.0304 -0.3930  0.4213
 1948TIP3    H127335   4.593   6.160  12.987 -1.1827 -0.9368  2.0017
 1948TIP3    H227336   4.725   6.099  12.945 -0.9343  1.2122 -0.4587
 1949TIP3   OH227337   4.506   4.617   5.926 -0.9116  0.5418  0.1266
 1949TIP3    H127338   4.532   4.702   5.961 -0.6645  0.8182 -0.7324
 1949TIP3    H227339   4.579   4.559   5.948 -0.2391  0.9786 -0.9601
 1950TIP3   OH227340   0.834   2.413   3.225 -0.1630 -0.0827 -0.1693
 1950TIP3    H127341   0.800   2.457   3.303  0.0401 -1.5553  0.7941
 1950TIP3    H227342   0.811   2.321   3.238  0.1436 -0.3937 -1.7170
 1951TIP3   OH227343   6.509   0.935  15.091 -0.0239  0.1101  0.3213
 1951TIP3    H127344   6.543   1.005  15.147 -2.9335  1.4612  0.5157
 1951TIP3    H227345   6.492   0.978  15.007  0.3685 -0.9183 -0.2881
 1952TIP3   OH227346   4.377   4.686  13.805 -0.0095  0.4283  0.1095
 1952TIP3    H127347   4.287   4.702  13.834  0.1872 -0.3782  1.2323
 1952TIP3    H227348   4.394   4.754  13.740 -0.9321  1.5122  0.9679
 1953TIP3   OH227349   3.320   5.308  14.255 -0.1031 -0.2742 -0.7258
 1953TIP3    H127350   3.364   5.241  14.203  0.5054  0.8943 -1.7292
 1953TIP3    H227351   3.251   5.341  14.198 -0.1725  0.2051 -0.3623
 1954TIP3   OH227352   3.878   0.711  13.939 -0.6998  0.3518 -0.2317
 1954TIP3    H127353   3.840   0.717  14.027  0.5969 -1.2714  0.4610
 1954TIP3    H227354   3.833   0.636  13.899 -0.6898  0.5767 -0.6717
 1955TIP3   OH227355   1.407   1.064  16.243  0.2867 -0.3005  0.4393
 1955TIP3    H127356   1.391   0.983  16.292 -0.8541 -0.5540 -0.3125
 1955TIP3    H227357   1.420   1.130  16.310  0.8308 -1.0347  1.0693
 1956TIP3   OH227358   4.261   5.520  16.129 -0.6881  0.1552 -0.4631
 1956TIP3    H127359   4.296   5.609  16.122  0.0880 -0.2727 -2.4885
 1956TIP3    H227360   4.192   5.517  16.062 -0.6732 -0.7715 -0.4389
 1957TIP3   OH227361   5.723   1.622  13.093 -0.2026 -0.1750 -0.3130
 1957TIP3    H127362   5.767   1.599  13.176  0.7129  0.4205 -0.6330
 1957TIP3    H227363   5.777   1.580  13.026  0.1676  0.9726 -0.7417
 1958TIP3   OH227364   6.131   4.063   3.136 -0.0745 -0.5472  0.2199
 1958TIP3    H127365   6.049   4.070   3.087  0.0453 -0.7448 -0.0157
 1958TIP3    H227366   6.127   4.133   3.201  0.6470  1.0437 -1.3931
 1959TIP3   OH227367   1.892   0.433   5.776 -0.1784  0.2978  0.1146
 1959TIP3    H127368   1.938   0.494   5.719  2.0989 -2.3904 -1.0352
 1959TIP3    H227369   1.962   0.383   5.819 -1.9615 -1.2541  1.2975
 1960TIP3   OH227370   2.830   2.918   6.156  0.1378 -0.5747 -0.0496
 1960TIP3    H127371   2.782   2.839   6.130 -0.2945  0.0040 -1.0303
 1960TIP3    H227372   2.763   2.975   6.193  0.8011 -1.5218  2.6972
 1961TIP3   OH227373   5.802   5.786   4.970  0.3303  0.2741  0.6865
 1961TIP3    H127374   5.712   5.784   5.002  0.0848 -0.1997 -0.0203
 1961TIP3    H227375   5.794   5.781   4.875  0.8843  4.7164  0.3014
 1962TIP3   OH227376   2.143   6.725  12.098  0.2990  0.2892  0.4090
 1962TIP3    H127377   2.149   6.761  12.010  1.2826 -0.0458  0.3291
 1962TIP3    H227378   2.210   6.771  12.148  0.5626 -0.3709  0.6746
 1963TIP3   OH227379   4.959   5.495   2.475  0.3169 -0.9710  0.4420
 1963TIP3    H127380   5.025   5.563   2.490 -0.2329 -0.6847  1.5388
 1963TIP3    H227381   4.967   5.437   2.550 -1.2185 -0.5075  0.9721
 1964TIP3   OH227382   3.343   4.100  12.874  0.1460 -0.1865  0.3235
 1964TIP3    H127383   3.321   4.078  12.964 -0.5875  1.9017  0.6826
 1964TIP3    H227384   3.329   4.195  12.868  0.4928 -0.2440 -1.8894
 1965TIP3   OH227385   5.798   6.066  17.044 -0.0976  0.3960  0.8795
 1965TIP3    H127386   5.718   6.104  17.080  0.3624  1.2705  0.9866
 1965TIP3    H227387   5.863   6.136  17.051 -0.8628  1.9608 -5.0677
 1966TIP3   OH227388   3.512   2.235   0.384  0.4845  0.1964  0.3447
 1966TIP3    H127389   3.453   2.299   0.424 -0.5892 -1.1952  1.0413
 1966TIP3    H227390   3.459   2.193   0.316  0.8330 -0.6656  0.5924
 1967TIP3   OH227391   0.760   3.278  14.285  0.2750  0.0241 -0.4218
 1967TIP3    H127392   0.686   3.238  14.330  0.3441  0.1509 -0.1969
 1967TIP3    H227393   0.825   3.208  14.279  0.3651  0.0781 -0.0974
 1968TIP3   OH227394   1.719   5.858   2.929  0.2332  0.3017  0.1097
 1968TIP3    H127395   1.726   5.953   2.924  1.1653  0.2783  0.8527
 1968TIP3    H227396   1.775   5.826   2.858  0.6092  0.2968  0.4043
 1969TIP3   OH227397   4.070   3.654   6.054 -0.4969 -0.2049  0.0329
 1969TIP3    H127398   4.047   3.738   6.014 -0.4129 -1.1425 -2.0537
 1969TIP3    H227399   4.068   3.671   6.148 -0.0846  2.2256 -0.3660
 1970TIP3   OH227400   2.271   2.525   0.933 -0.5508 -0.2025 -0.2225
 1970TIP3    H127401   2.202   2.470   0.970  0.6809 -1.2338  0.5972
 1970TIP3    H227402   2.269   2.506   0.839 -1.5058 -0.0635 -0.2349
 1971TIP3   OH227403   1.150   2.922   1.382  0.1063  0.1487 -0.5316
 1971TIP3    H127404   1.085   2.932   1.451 -0.0831 -0.7011 -0.5772
 1971TIP3    H227405   1.108   2.866   1.317  0.3041  0.9007 -1.3081
 1972TIP3   OH227406   4.723   0.458   0.184 -0.0980 -0.2850  0.1711
 1972TIP3    H127407   4.776   0.391   0.140 -1.9755 -0.7651 -1.4027
 1972TIP3    H227408   4.677   0.503   0.113 -1.6545  0.2413  1.4982
 1973TIP3   OH227409   0.818   3.309   5.473 -0.1840 -0.0889  0.1567
 1973TIP3    H127410   0.849   3.328   5.384 -1.4795  1.0334 -0.0614
 1973TIP3    H227411   0.850   3.382   5.526 -1.6314  0.5783  0.1143
 1974TIP3   OH227412   1.329   6.803  12.538  0.2920  0.1380 -0.2997
 1974TIP3    H127413   1.243   6.781  12.574  0.9715 -0.8188  0.7601
 1974TIP3    H227414   1.318   6.794  12.443 -1.3933  2.2631 -0.3433
 1975TIP3   OH227415   1.836   3.548   5.116  0.0238 -0.1189  0.0290
 1975TIP3    H127416   1.743   3.530   5.099  0.4584 -0.1651 -2.4435
 1975TIP3    H227417   1.840   3.642   5.128 -0.5974 -0.3149  1.9938
 1976TIP3   OH227418   1.484   2.187  12.285  0.1526  0.3621  0.6043
 1976TIP3    H127419   1.542   2.207  12.212  0.9332 -2.1827  0.4885
 1976TIP3    H227420   1.532   2.219  12.362 -0.3403  2.3632  0.0972
 1977TIP3   OH227421   1.606   0.199   4.638 -0.1950 -0.3621 -0.2855
 1977TIP3    H127422   1.553   0.252   4.578  0.6274 -0.0688 -0.7548
 1977TIP3    H227423   1.696   0.229   4.623 -0.1536  0.9924  2.3644
 1978TIP3   OH227424   5.732   3.310  12.074 -0.1530 -0.0536 -0.6101
 1978TIP3    H127425   5.774   3.233  12.113  0.1226  0.8268  0.8443
 1978TIP3    H227426   5.649   3.276  12.040 -0.3825 -0.8595  0.6978
 1979TIP3   OH227427   0.008   3.249  16.003 -0.3898  0.8832  0.1710
 1979TIP3    H127428   0.083   3.262  15.945 -0.8161 -0.5256 -0.7225
 1979TIP3    H227429  -0.065   3.293  15.959 -0.7022 -0.1421 -0.3426
 1980TIP3   OH227430   0.678   5.416   1.780  0.2953 -0.0777 -0.1091
 1980TIP3    H127431   0.593   5.454   1.761  1.0358  1.5490 -0.2384
 1980TIP3    H227432   0.741   5.482   1.751  1.5433 -0.1361  2.3361
 1981TIP3   OH227433   3.091   0.052  14.741 -0.3933 -0.0068  0.0515
 1981TIP3    H127434   3.155   0.031  14.673  0.3879 -1.0275  1.0863
 1981TIP3    H227435   3.053   0.135  14.713  1.3987  0.6272 -0.5734
 1982TIP3   OH227436   1.069   1.559  14.734 -0.2665 -0.4733  0.0495
 1982TIP3    H127437   1.110   1.645  14.722  1.3775 -1.3741 -1.0539
 1982TIP3    H227438   0.975   1.576  14.728  0.0756  1.1040 -1.2555
 1983TIP3   OH227439   6.592   6.595   4.263 -0.0575  0.1740 -0.1180
 1983TIP3    H127440   6.511   6.644   4.252 -1.1579 -1.3640  1.0143
 1983TIP3    H227441   6.610   6.558   4.177 -0.6916  0.3052 -0.3099
 1984TIP3   OH227442   3.115   3.000   3.271 -0.3125 -0.0329 -0.2774
 1984TIP3    H127443   3.179   2.931   3.254  1.5902  2.1663 -2.3211
 1984TIP3    H227444   3.034   2.968   3.230  0.1823 -1.5966 -0.0635
 1985TIP3   OH227445   5.274   2.050   3.114 -0.3977  0.1944  0.2991
 1985TIP3    H127446   5.209   2.107   3.156  0.6984  0.4933  1.6054
 1985TIP3    H227447   5.321   2.009   3.187  0.5979 -0.3537 -0.6375
 1986TIP3   OH227448   0.042   2.746   4.229 -0.3119  0.1633 -0.5687
 1986TIP3    H127449   0.018   2.760   4.137  1.0834 -2.0044 -1.2993
 1986TIP3    H227450  -0.039   2.713   4.270 -0.6109 -0.0058 -1.2866
 1987TIP3   OH227451   2.835   4.616  13.313 -0.0166  0.9805  0.8419
 1987TIP3    H127452   2.830   4.710  13.292  2.5480  1.0511  0.3903
 1987TIP3    H227453   2.926   4.602  13.337 -0.6653 -1.1738  2.1486
 1988TIP3   OH227454   3.541   5.443   2.945  0.1373  0.3618 -0.0079
 1988TIP3    H127455   3.545   5.529   2.903  0.5187  0.9691  1.2502
 1988TIP3    H227456   3.553   5.461   3.038 -0.9084 -0.9446  0.4028
 1989TIP3   OH227457   1.042   6.141   5.908  0.3492 -0.9259 -0.0890
 1989TIP3    H127458   1.113   6.204   5.913 -0.7377  0.2984  0.0711
 1989TIP3    H227459   0.980   6.179   5.846 -0.7251 -1.4147  0.6697
 1990TIP3   OH227460   6.143   5.601  16.219 -0.5499  0.3865  0.1729
 1990TIP3    H127461   6.051   5.607  16.194 -0.7659  2.7772  1.3553
 1990TIP3    H227462   6.182   5.543  16.153 -2.9600 -1.0275 -0.0804
 1991TIP3   OH227463   1.992   2.360  12.492  0.0160  0.3738 -0.2844
 1991TIP3    H127464   2.060   2.357  12.425  0.5635  3.0757  0.1166
 1991TIP3    H227465   2.027   2.306  12.563  0.9382  0.2717 -0.8030
 1992TIP3   OH227466   6.531   5.923   1.993  0.0539  0.4834  0.2121
 1992TIP3    H127467   6.556   6.010   2.024  2.2375  0.2804 -0.8835
 1992TIP3    H227468   6.547   5.926   1.899 -0.3530 -0.9221  0.0940
 1993TIP3   OH227469   0.640   4.352  12.342  0.5958 -0.0373 -0.0393
 1993TIP3    H127470   0.666   4.262  12.362 -0.4034 -0.4286 -0.5000
 1993TIP3    H227471   0.643   4.358  12.247  2.7742  1.0654  0.0590
 1994TIP3   OH227472   0.464   3.920  12.795 -0.0078  0.4721  0.3465
 1994TIP3    H127473   0.407   3.869  12.853  1.1018  0.5760  1.5450
 1994TIP3    H227474   0.460   4.009  12.830 -1.2999  1.0747 -1.2529
 1995TIP3   OH227475   2.192   3.227  11.456  0.1232 -0.5003 -0.4185
 1995TIP3    H127476   2.283   3.200  11.443 -0.0999 -2.3767  1.7005
 1995TIP3    H227477   2.168   3.192  11.541 -3.0281 -1.2090 -1.5284
 1996TIP3   OH227478   2.107   6.790   0.970  0.0960 -0.0756 -0.2287
 1996TIP3    H127479   2.122   6.703   1.006 -2.4859 -0.0991  0.8557
 1996TIP3    H227480   2.102   6.776   0.875 -0.0702 -1.0733 -0.0723
 1997TIP3   OH227481   5.994   2.747  13.182  0.4965 -0.4546 -0.4777
 1997TIP3    H127482   5.991   2.734  13.088 -0.2601  0.0321 -0.5258
 1997TIP3    H227483   5.913   2.707  13.215  1.1352 -1.3348  0.0571
 1998TIP3   OH227484   5.826   6.171  15.032  0.3873 -0.4116  0.3634
 1998TIP3    H127485   5.752   6.110  15.030 -0.7870  0.9870  0.9757
 1998TIP3    H227486   5.820   6.214  15.117  1.5205  0.2005  0.1496
 1999TIP3   OH227487   4.406   4.086   2.199 -0.5901  1.0362 -0.4648
 1999TIP3    H127488   4.341   4.030   2.242  0.3399 -0.1945 -0.6315
 1999TIP3    H227489   4.356   4.138   2.136 -1.4491  0.3179 -0.3828
 2000TIP3   OH227490   3.662   5.804  15.406  0.1322 -0.0900 -0.1204
 2000TIP3    H127491   3.752   5.819  15.376  0.6064 -0.8501  0.8591
 2000TIP3    H227492   3.609   5.802  15.326  1.4705 -2.9206 -0.9988
 2001TIP3   OH227493   5.762   0.762   5.906  0.3349  0.2770 -0.2855
 2001TIP3    H127494   5.681   0.748   5.858  0.5789 -1.7369 -0.1275
 2001TIP3    H227495   5.816   0.815   5.847 -0.6870  0.7664 -0.8000
 2002TIP3   OH227496   1.724   1.676  10.689  0.6580  0.3911 -0.0127
 2002TIP3    H127497   1.640   1.716  10.712  0.3480 -0.9629  1.2424
 2002TIP3    H227498   1.789   1.724  10.740  0.2787 -0.7009  1.5303
 2003TIP3   OH227499   6.608   3.179   5.160 -0.4934 -0.0725 -0.2191
 2003TIP3    H127500   6.676   3.178   5.092  0.6310 -2.5080  0.8787
 2003TIP3    H227501   6.585   3.271   5.169  2.9705  0.9010 -0.3698
 2004TIP3   OH227502   3.979   1.515  16.206 -0.3885  0.0692  0.7180
 2004TIP3    H127503   3.949   1.560  16.286  3.1000  0.2397  2.0180
 2004TIP3    H227504   4.018   1.585  16.153 -2.3082 -0.1212 -0.9955
 2005TIP3   OH227505   3.394   2.018   4.682  0.4290 -0.0378  0.5147
 2005TIP3    H127506   3.401   2.054   4.771  0.6936 -1.0734  0.9155
 2005TIP3    H227507   3.301   1.998   4.672  0.1237  1.5554 -0.0362
 2006TIP3   OH227508   0.256   2.483   5.563 -0.5336 -0.3208  0.2836
 2006TIP3    H127509   0.191   2.553   5.556 -1.9818 -1.5565  1.0544
 2006TIP3    H227510   0.334   2.517   5.519 -2.7453 -0.0860 -3.6488
 2007TIP3   OH227511   0.445   6.367   4.960  0.1105  0.0907 -0.9004
 2007TIP3    H127512   0.396   6.426   5.016  0.6801 -1.2418  1.0616
 2007TIP3    H227513   0.381   6.335   4.896 -1.2661 -0.5902  0.7943
 2008TIP3   OH227514   1.168   5.661   3.045 -0.0849  0.0464  0.2712
 2008TIP3    H127515   1.220   5.650   3.124 -0.1211 -1.3470  0.1148
 2008TIP3    H227516   1.084   5.619   3.065 -0.0302 -0.4787 -0.5745
 2009TIP3   OH227517   3.712   2.690   5.524 -0.5528  0.0183  0.4894
 2009TIP3    H127518   3.622   2.699   5.554 -0.2658  2.3153  0.7212
 2009TIP3    H227519   3.762   2.670   5.603 -0.5391  1.0122  0.7389
 2010TIP3   OH227520   6.430   5.565   1.226 -0.4333  0.3410  0.0297
 2010TIP3    H127521   6.426   5.661   1.230 -0.5871  0.4147 -1.3855
 2010TIP3    H227522   6.387   5.535   1.306 -3.0985  1.4517 -0.8950
 2011TIP3   OH227523   6.811   4.592   5.743 -0.1571 -0.1069 -0.2316
 2011TIP3    H127524   6.849   4.675   5.773 -0.2584  0.5658 -1.9479
 2011TIP3    H227525   6.736   4.618   5.690 -0.9613 -1.3432  0.2953
 2012TIP3   OH227526   1.668   5.316   0.505 -0.3404  0.5002  0.0210
 2012TIP3    H127527   1.665   5.309   0.600 -0.8193 -2.1780 -0.1493
 2012TIP3    H227528   1.587   5.362   0.482 -0.2727  1.0620  0.8959
 2013TIP3   OH227529   6.254   2.933  15.918  0.0712  0.0861  0.4779
 2013TIP3    H127530   6.260   3.026  15.894  0.6302  0.2233  1.1457
 2013TIP3    H227531   6.344   2.902  15.917  0.2655  0.4004  3.5446
 2014TIP3   OH227532   0.323   1.336  16.003  0.1340  0.4989 -0.0372
 2014TIP3    H127533   0.248   1.303  16.053 -1.0740  0.6859 -1.6783
 2014TIP3    H227534   0.397   1.286  16.036 -1.3667 -2.7122 -1.2158
 2015TIP3   OH227535   6.420   2.513   0.611  0.1651  0.0963 -0.2416
 2015TIP3    H127536   6.429   2.435   0.665  0.8244 -0.7738 -1.5984
 2015TIP3    H227537   6.439   2.484   0.522 -1.2425  1.4348 -1.0109
 2016TIP3   OH227538   2.898   6.635  14.831  0.5932 -0.2870  0.8098
 2016TIP3    H127539   2.939   6.710  14.789 -0.7627  0.2883  0.4596
 2016TIP3    H227540   2.854   6.588  14.760 -0.0196 -0.4364  1.2723
 2017TIP3   OH227541   1.573   5.161   5.867  0.1854  0.0524 -0.2041
 2017TIP3    H127542   1.656   5.197   5.899 -0.2241  1.2967 -0.5073
 2017TIP3    H227543   1.534   5.120   5.945  2.2789 -2.9392 -0.6383
 2018TIP3   OH227544   2.060   0.315   2.542 -0.3869  0.0957  0.2674
 2018TIP3    H127545   2.101   0.353   2.465  1.3605  0.1669  1.2237
 2018TIP3    H227546   2.051   0.222   2.520 -0.5121  0.2343 -0.2831
 2019TIP3   OH227547   1.295   3.808   4.494 -0.3589 -0.2748  0.1704
 2019TIP3    H127548   1.315   3.740   4.558 -1.6190 -0.3963  0.4489
 2019TIP3    H227549   1.380   3.841   4.467  0.2069 -0.5335  1.5850
 2020TIP3   OH227550   2.696   0.200   4.466 -0.1361 -0.0651  0.2662
 2020TIP3    H127551   2.659   0.147   4.396  1.9109 -0.5905 -0.4317
 2020TIP3    H227552   2.712   0.285   4.426  2.8863 -0.9511 -0.4824
 2021TIP3   OH227553   3.118   4.227   0.411  0.6158  0.2006 -0.6573
 2021TIP3    H127554   3.158   4.308   0.378 -0.4115  1.2325  0.6027
 2021TIP3    H227555   3.032   4.223   0.369  0.1946  0.3712  0.1791
 2022TIP3   OH227556   1.283   1.926  10.776 -0.1794 -0.3659 -0.3408
 2022TIP3    H127557   1.216   1.968  10.723 -2.1998 -0.0210  2.4235
 2022TIP3    H227558   1.355   1.989  10.778 -1.9045  1.6248  1.0675
 2023TIP3   OH227559   1.341   2.166  16.354  0.5925 -0.5007 -0.0135
 2023TIP3    H127560   1.388   2.215  16.422  1.0147  0.5543 -1.0388
 2023TIP3    H227561   1.324   2.231  16.285 -1.4665 -1.1051 -0.1118
 2024TIP3   OH227562   1.022   3.885   6.652 -0.0365  0.0829  0.1483
 2024TIP3    H127563   1.024   3.862   6.745 -0.2824  1.5114  0.5153
 2024TIP3    H227564   0.957   3.827   6.614 -0.6579  0.1738  1.0615
 2025TIP3   OH227565   5.668   1.727  13.521 -0.3623 -0.6217 -0.1736
 2025TIP3    H127566   5.643   1.819  13.508 -1.4528 -0.6660  1.4076
 2025TIP3    H227567   5.730   1.729  13.594 -1.6838 -1.2883  0.9926
 2026TIP3   OH227568   5.798   1.824   3.357  0.1185 -0.0984 -0.1920
 2026TIP3    H127569   5.763   1.904   3.319 -0.1128 -0.2924 -0.3931
 2026TIP3    H227570   5.780   1.756   3.292  1.0449 -0.1682 -0.3735
 2027TIP3   OH227571   0.181   4.792   4.089 -0.3291  0.6723 -0.3903
 2027TIP3    H127572   0.247   4.789   4.020  1.9988 -1.1131  1.7863
 2027TIP3    H227573   0.138   4.877   4.078  0.2836  0.6116 -3.6935
 2028TIP3   OH227574   3.435   6.016   4.246 -0.7135  0.1437 -0.4109
 2028TIP3    H127575   3.520   6.024   4.290 -2.3225 -0.1222  2.9703
 2028TIP3    H227576   3.411   6.106   4.223  0.2583  0.2754 -0.9194
 2029TIP3   OH227577   1.271   3.781  16.101 -0.1292  0.5051  0.3743
 2029TIP3    H127578   1.239   3.860  16.058 -0.2439  0.1989 -0.1164
 2029TIP3    H227579   1.285   3.719  16.029 -0.5782 -0.1059  0.8086
 2030TIP3   OH227580   0.716   5.074  15.646 -0.3101  0.9511 -0.6301
 2030TIP3    H127581   0.713   4.988  15.687  2.2490  1.0356 -0.1904
 2030TIP3    H227582   0.635   5.117  15.674 -1.1832 -0.9852 -0.1462
 2031TIP3   OH227583   0.972   6.797   6.894  0.1144  0.2865  0.7224
 2031TIP3    H127584   0.910   6.795   6.822  0.1027  0.1733  0.7359
 2031TIP3    H227585   1.052   6.760   6.857 -0.1051 -0.4331  0.9694
 2032TIP3   OH227586   6.274   4.305  16.404  0.4978  0.1094  0.2406
 2032TIP3    H127587   6.268   4.220  16.448 -1.5195  0.9759  1.6755
 2032TIP3    H227588   6.263   4.369  16.474  0.6120  1.5548 -1.0494
 2033TIP3   OH227589   3.581   3.891   3.889  0.5067  0.1269  0.0211
 2033TIP3    H127590   3.645   3.828   3.854  0.2582 -0.4550  0.6096
 2033TIP3    H227591   3.625   3.930   3.964  0.8393  1.0030 -0.6194
 2034TIP3   OH227592   0.798   4.250   3.567  0.1275 -0.2157  0.3067
 2034TIP3    H127593   0.801   4.156   3.553  0.5556  0.0421 -1.3662
 2034TIP3    H227594   0.888   4.274   3.588  0.4512  0.1501 -1.4699
 2035TIP3   OH227595   1.655   3.043  16.280  0.0652  0.2361  0.1800
 2035TIP3    H127596   1.743   3.066  16.309 -0.3052  1.9295  0.0409
 2035TIP3    H227597   1.668   2.989  16.202  0.9894 -0.2297  0.6608
 2036TIP3   OH227598   3.759   6.145  11.329  0.1850  0.6692 -0.5360
 2036TIP3    H127599   3.827   6.118  11.390  0.2220  0.0783 -0.8309
 2036TIP3    H227600   3.677   6.136  11.378  0.2408  0.4793 -0.4774
 2037TIP3   OH227601   3.615   2.887   0.808  0.3444 -0.2206 -0.0003
 2037TIP3    H127602   3.634   2.980   0.821  0.9251 -0.0226 -2.1107
 2037TIP3    H227603   3.700   2.844   0.820  0.2213 -0.4063  0.2110
 2038TIP3   OH227604   5.523   0.020  16.610 -0.5101  0.7763 -0.1844
 2038TIP3    H127605   5.582   0.094  16.599 -0.4151  0.5159 -1.5542
 2038TIP3    H227606   5.461   0.048  16.676  1.1390  1.0553  1.2857
 2039TIP3   OH227607   1.660   0.697   2.199  0.3141  1.2914  0.4830
 2039TIP3    H127608   1.687   0.722   2.111 -0.4477  1.6806  0.3579
 2039TIP3    H227609   1.707   0.758   2.256 -0.2312  1.9239  0.2684
 2040TIP3   OH227610   3.741   6.456   1.377  0.5478 -0.4462 -0.3528
 2040TIP3    H127611   3.775   6.424   1.294 -1.8377  0.7145 -1.8341
 2040TIP3    H227612   3.762   6.549   1.378 -0.1095 -0.2978  0.0095
 2041TIP3   OH227613   1.200   6.324  14.870 -0.0506 -1.2554  0.1647
 2041TIP3    H127614   1.133   6.272  14.826 -1.2221  0.3863 -0.0119
 2041TIP3    H227615   1.159   6.351  14.952  0.5208 -0.5258  0.2091
 2042TIP3   OH227616   6.334   5.308   0.260  0.8612  0.6026  0.1135
 2042TIP3    H127617   6.319   5.338   0.170 -0.3676  1.0333  0.4608
 2042TIP3    H227618   6.419   5.346   0.284 -0.1087  2.8107  0.1186
 2043TIP3   OH227619   0.320   6.380   2.338 -0.1319 -0.0182  0.4242
 2043TIP3    H127620   0.383   6.363   2.268  0.6739 -0.5046  1.2563
 2043TIP3    H227621   0.298   6.473   2.329 -1.3754 -0.4628 -1.5509
 2044TIP3   OH227622   6.726   3.013  12.297 -0.1575 -0.9187 -0.1270
 2044TIP3    H127623   6.767   2.927  12.293  0.0088 -0.8540  0.1310
 2044TIP3    H227624   6.768   3.056  12.372 -0.0952 -0.5428 -0.3720
 2045TIP3   OH227625   0.721   5.635  14.894  0.4742 -0.1686  0.6058
 2045TIP3    H127626   0.631   5.632  14.860  0.4104 -2.0122  0.8880
 2045TIP3    H227627   0.769   5.685  14.829 -0.5657  0.0518 -0.0104
 2046TIP3   OH227628   2.474   2.034  14.524  0.1434 -0.1000 -0.0675
 2046TIP3    H127629   2.543   2.002  14.582 -0.5443  0.1560  0.9172
 2046TIP3    H227630   2.474   1.973  14.450  0.7444 -0.6990  0.4232
 2047TIP3   OH227631   2.004   5.463   6.392 -1.0057  0.7317  0.5549
 2047TIP3    H127632   1.985   5.371   6.410 -1.5198  0.8337  0.5428
 2047TIP3    H227633   2.028   5.465   6.300  0.4580  0.3889  0.9072
 2048TIP3   OH227634   4.902   4.889  14.766 -0.0970 -0.5647  0.3358
 2048TIP3    H127635   4.816   4.908  14.801  0.0819 -0.7315  0.8762
 2048TIP3    H227636   4.895   4.905  14.672 -1.5545 -3.4444 -0.1053
 2049TIP3   OH227637   3.525   2.677  12.827 -0.4446  0.1050 -0.2186
 2049TIP3    H127638   3.447   2.688  12.772  0.7309  0.1275 -1.9148
 2049TIP3    H227639   3.596   2.715  12.775  0.8113 -0.4733  1.0538
 2050TIP3   OH227640   2.504   1.932  12.742 -0.0921 -0.6796  0.0157
 2050TIP3    H127641   2.576   1.995  12.734 -0.1592 -0.5022  0.7754
 2050TIP3    H227642   2.447   1.970  12.809 -0.3082 -1.3850  0.2288
 2051TIP3   OH227643   5.737   0.126  16.804 -0.3056  0.9186  0.5534
 2051TIP3    H127644   5.736   0.186  16.878 -0.1479  2.8742 -1.0028
 2051TIP3    H227645   5.698   0.175  16.732  1.4822 -0.1894 -1.2376
 2052TIP3   OH227646   6.205   4.718  15.642  0.4126 -0.6228  0.0182
 2052TIP3    H127647   6.146   4.751  15.710  2.0729  1.1561  0.6402
 2052TIP3    H227648   6.181   4.626  15.632  1.2748 -1.4304  4.2733
 2053TIP3   OH227649   2.417   3.305  11.260  0.4577 -0.0222  0.4317
 2053TIP3    H127650   2.374   3.367  11.319 -1.1861  0.5191 -1.3099
 2053TIP3    H227651   2.510   3.315  11.280  0.0597  1.4110  1.7069
 2054TIP3   OH227652   3.853   1.476  12.953 -0.1193  0.5473 -0.0614
 2054TIP3    H127653   3.891   1.518  12.876 -0.9393  1.4809  0.0286
 2054TIP3    H227654   3.807   1.547  12.999 -0.8230 -0.2864  0.5386
 2055TIP3   OH227655   3.555   5.896  15.128  0.1163  0.4000 -0.1531
 2055TIP3    H127656   3.519   5.936  15.049  0.1318  0.3420 -0.1891
 2055TIP3    H227657   3.587   5.811  15.100 -0.1818  0.2408 -0.0183
 2056TIP3   OH227658   3.773   0.641  17.009 -0.2917  0.3626 -0.0198
 2056TIP3    H127659   3.743   0.551  17.017  0.9149 -0.0527 -0.1620
 2056TIP3    H227660   3.809   0.663  17.095 -0.3679  0.6333 -0.0529
 2057TIP3   OH227661   2.083   0.124  13.133  0.0060 -0.0662 -1.0153
 2057TIP3    H127662   1.999   0.139  13.088 -0.3774  0.9521  0.0314
 2057TIP3    H227663   2.059   0.077  13.213  0.2298  1.6955  0.1149
 2058TIP3   OH227664   4.746   1.347   5.904  0.2430 -0.5636  0.4672
 2058TIP3    H127665   4.656   1.324   5.928 -0.7052  1.1278 -1.2784
 2058TIP3    H227666   4.751   1.331   5.809  0.5831  2.8244 -0.1663
 2059TIP3   OH227667   1.138   0.928   4.919  0.0724  0.3892 -1.0280
 2059TIP3    H127668   1.080   0.851   4.921 -0.2755  0.6498 -0.9209
 2059TIP3    H227669   1.101   0.987   4.985  0.2192  0.7323 -1.2529
 2060TIP3   OH227670   4.196   3.954   1.865 -0.0530 -0.7726 -0.4241
 2060TIP3    H127671   4.240   4.003   1.796 -0.0509  2.4343  1.7462
 2060TIP3    H227672   4.107   3.939   1.831 -0.6331  2.3976 -0.4756
 2061TIP3   OH227673   6.814   5.343  16.456  0.8043  0.3968 -0.7599
 2061TIP3    H127674   6.895   5.299  16.484  0.9504  0.5875 -0.8805
 2061TIP3    H227675   6.775   5.376  16.537 -0.1668 -1.3979 -0.4796
 2062TIP3   OH227676   0.331   2.262   2.784  0.1373 -0.6808  0.5962
 2062TIP3    H127677   0.320   2.197   2.852 -2.0406 -0.1895  0.7664
 2062TIP3    H227678   0.249   2.312   2.785  0.4254 -0.0755 -1.7364
 2063TIP3   OH227679   2.611   4.095   5.647  0.1670  0.5282  0.0843
 2063TIP3    H127680   2.583   4.008   5.675  3.2604 -0.4991  0.2224
 2063TIP3    H227681   2.556   4.156   5.698 -1.6324 -1.3178  0.4057
 2064TIP3   OH227682   0.617   1.809  11.552 -0.6852  0.4455  0.1594
 2064TIP3    H127683   0.623   1.717  11.577 -3.7317  0.1870  0.1121
 2064TIP3    H227684   0.539   1.841  11.597 -0.6490  2.5559 -1.2242
 2065TIP3   OH227685   3.168   6.441  12.268  0.4050 -0.8203 -0.3568
 2065TIP3    H127686   3.134   6.366  12.318 -0.7345 -0.2242 -0.2235
 2065TIP3    H227687   3.137   6.425  12.179 -0.4533 -0.1383 -0.1836
 2066TIP3   OH227688   6.122   5.921   3.214 -0.0318  0.4072  0.0399
 2066TIP3    H127689   6.175   5.854   3.172  0.5931  0.3671  0.8666
 2066TIP3    H227690   6.114   5.892   3.305 -1.4640  0.4256 -0.0770
 2067TIP3   OH227691   0.013   4.650   2.647  0.5148  0.6098  0.5854
 2067TIP3    H127692  -0.041   4.728   2.647  0.8718  0.8728 -0.5970
 2067TIP3    H227693   0.090   4.673   2.700  1.7233  1.8776 -1.6313
 2068TIP3   OH227694   3.369   6.513  17.144 -0.0284 -0.3152 -0.2806
 2068TIP3    H127695   3.455   6.484  17.115 -0.5185 -2.5845  0.3561
 2068TIP3    H227696   3.312   6.501  17.068  0.1117  0.6623 -0.5389
 2069TIP3   OH227697   6.454   2.919  14.906  0.6873  0.2084  0.3607
 2069TIP3    H127698   6.437   3.013  14.903  1.0296  0.2512 -0.3935
 2069TIP3    H227699   6.428   2.892  14.994  0.0026  0.8942  0.3682
 2070TIP3   OH227700   3.604   4.373  16.366 -0.2414  0.2057 -0.4514
 2070TIP3    H127701   3.692   4.346  16.393 -1.2085 -2.3493  0.2967
 2070TIP3    H227702   3.614   4.464  16.341  2.6888 -0.1051 -0.6283
 2071TIP3   OH227703   4.876   2.049   0.043 -0.0927  0.7168 -0.3391
 2071TIP3    H127704   4.875   2.067   0.137 -1.5603  0.8947 -0.3747
 2071TIP3    H227705   4.814   2.112   0.006 -1.1254 -0.7626 -1.1659
 2072TIP3   OH227706   6.269   6.042  11.737 -0.1610  0.2445 -0.0746
 2072TIP3    H127707   6.191   5.987  11.739 -0.1263  0.1438 -1.1917
 2072TIP3    H227708   6.342   5.981  11.746 -0.1830  0.2972  0.5139
 2073TIP3   OH227709   5.909   0.923   6.127 -0.5002 -0.2664 -0.3148
 2073TIP3    H127710   5.860   0.850   6.089  0.8151  0.4489 -3.5417
 2073TIP3    H227711   5.843   0.990   6.144 -1.2384 -0.9317 -0.5235
 2074TIP3   OH227712   3.941   3.165   3.740 -0.2454 -0.4491 -0.2383
 2074TIP3    H127713   4.006   3.139   3.674  1.1641  0.0660  0.9219
 2074TIP3    H227714   3.869   3.103   3.728  1.4388 -2.5370 -0.0349
 2075TIP3   OH227715   1.166   2.603   4.497  0.2007 -0.2048 -0.2497
 2075TIP3    H127716   1.072   2.615   4.486  0.0771 -0.9402 -0.0430
 2075TIP3    H227717   1.199   2.689   4.522 -0.4564 -0.0020 -0.0773
 2076TIP3   OH227718   3.785   6.362  14.147 -0.6375 -0.0871 -0.1654
 2076TIP3    H127719   3.879   6.349  14.135 -0.9891 -2.1416 -0.9071
 2076TIP3    H227720   3.749   6.364  14.058 -1.4655 -0.8040  0.1428
 2077TIP3   OH227721   4.023   0.352   3.844  0.4648  0.1767  0.0232
 2077TIP3    H127722   3.940   0.341   3.797  0.5138  3.1748 -0.9143
 2077TIP3    H227723   4.065   0.267   3.838 -2.2061 -1.1924 -0.1553
 2078TIP3   OH227724   3.318   0.823  14.952 -0.1293 -0.7978  0.0116
 2078TIP3    H127725   3.379   0.822  14.879 -1.0166 -0.1574 -0.7492
 2078TIP3    H227726   3.369   0.857  15.025  0.0881  0.9647 -0.9372
 2079TIP3   OH227727   6.000   2.170   0.172 -0.2815 -0.3971 -0.7091
 2079TIP3    H127728   6.075   2.110   0.170  0.3014  0.3275 -0.5717
 2079TIP3    H227729   5.934   2.124   0.224  0.4913 -0.5384  0.1581
 2080TIP3   OH227730   3.073   4.874   3.007  0.2588 -0.1173 -0.6003
 2080TIP3    H127731   3.017   4.922   3.067  0.2644  0.1861 -0.8356
 2080TIP3    H227732   3.023   4.795   2.985 -0.5147  0.6366 -1.6021
 2081TIP3   OH227733   5.141   1.237  12.148  0.2522  0.2190  0.2031
 2081TIP3    H127734   5.218   1.262  12.097  0.5846  0.2727  0.7300
 2081TIP3    H227735   5.067   1.264  12.093  0.6063  1.0354  0.1137
 2082TIP3   OH227736   3.902   3.705  16.489 -0.0044 -0.5317 -0.1275
 2082TIP3    H127737   3.917   3.735  16.579 -1.7598 -2.8399  0.9728
 2082TIP3    H227738   3.820   3.747  16.462  0.6908  0.4241 -0.8041
 2083TIP3   OH227739   0.621   5.938   1.517 -0.5141 -0.1672 -0.5748
 2083TIP3    H127740   0.535   5.899   1.531  0.2939 -1.6158  0.4601
 2083TIP3    H227741   0.660   5.887   1.447  0.1035 -0.5210  0.0153
 2084TIP3   OH227742   2.130   3.388  15.436  0.3003  0.5071 -0.8392
 2084TIP3    H127743   2.110   3.368  15.527  0.3326  2.0396 -0.4728
 2084TIP3    H227744   2.044   3.396  15.394  0.2163  1.8999 -0.4438
 2085TIP3   OH227745   0.285   3.872  15.400  0.1104  0.0045  0.2778
 2085TIP3    H127746   0.358   3.862  15.339  0.1666 -0.7869  0.4749
 2085TIP3    H227747   0.251   3.959  15.382  0.4497 -0.0304 -0.5414
 2086TIP3   OH227748   6.030   4.116  12.718 -0.0300  0.3824  0.2822
 2086TIP3    H127749   6.052   4.188  12.658  0.3375 -0.3443 -0.4618
 2086TIP3    H227750   5.935   4.116  12.722 -0.0804 -0.0132 -0.8540
 2087TIP3   OH227751   4.794   4.237  13.895 -0.2763  0.6984 -0.3389
 2087TIP3    H127752   4.763   4.324  13.868  0.3933  1.3201  0.8565
 2087TIP3    H227753   4.889   4.244  13.892 -0.2168  0.1167  0.1288
 2088TIP3   OH227754   3.681   1.537  12.175  0.1386 -0.1820 -0.2001
 2088TIP3    H127755   3.662   1.596  12.101 -1.9865  3.1848  2.8768
 2088TIP3    H227756   3.596   1.505  12.203  0.8544 -0.8862  1.2274
 2089TIP3   OH227757   2.853   5.727  11.485 -0.2564  0.1978  0.4587
 2089TIP3    H127758   2.861   5.704  11.577 -2.4956 -0.3050  0.5521
 2089TIP3    H227759   2.799   5.806  11.484  0.7313  0.8843 -0.3626
 2090TIP3   OH227760   4.163   2.371   5.841 -0.1971  0.1972 -0.9491
 2090TIP3    H127761   4.199   2.285   5.819  0.1564  0.4130 -1.2116
 2090TIP3    H227762   4.141   2.411   5.757  0.4570  0.7167 -0.8822
 2091TIP3   OH227763   2.002   5.025   5.252  0.2705 -0.2447  0.0923
 2091TIP3    H127764   2.092   4.992   5.254  0.0274 -0.8403  1.3742
 2091TIP3    H227765   1.953   4.959   5.202  0.7442  0.5851 -1.4726
 2092TIP3   OH227766   3.442   4.126  17.290  0.3307 -0.3315 -0.2727
 2092TIP3    H127767   3.435   4.035  17.319 -1.5319  0.2409  1.2594
 2092TIP3    H227768   3.355   4.145  17.254  1.3997  0.1906 -2.6349
 2093TIP3   OH227769   1.091   3.034   0.638  0.2786  0.2931  0.2598
 2093TIP3    H127770   1.117   2.976   0.566  0.7260 -0.8786  1.3562
 2093TIP3    H227771   0.995   3.037   0.632  0.2550 -0.5054  0.1617
 2094TIP3   OH227772   0.965   1.435   5.024  0.6639 -0.3010  0.0642
 2094TIP3    H127773   0.871   1.443   5.009  1.0460  0.7914 -1.9222
 2094TIP3    H227774   0.993   1.366   4.963  1.1765 -0.6041  0.6300
 2095TIP3   OH227775   1.412   4.271   2.905  0.8759 -0.1615 -0.5268
 2095TIP3    H127776   1.433   4.179   2.891 -0.3027 -0.9925  2.7206
 2095TIP3    H227777   1.316   4.274   2.906  0.8753  0.3201  3.6127
 2096TIP3   OH227778   1.299   5.978   4.796 -0.0425  0.0298  0.2825
 2096TIP3    H127779   1.320   6.058   4.749 -0.5615  0.1842  0.3095
 2096TIP3    H227780   1.352   5.982   4.876  2.8281 -1.4605 -1.4582
 2097TIP3   OH227781   3.862   1.044   0.542 -0.3592  0.0425  0.3825
 2097TIP3    H127782   3.822   0.959   0.561  0.2376 -0.1897  0.6290
 2097TIP3    H227783   3.870   1.086   0.628  2.2866 -0.9790  0.6882
 2098TIP3   OH227784   2.910   2.267   0.936  0.8022 -0.1433  0.0781
 2098TIP3    H127785   2.986   2.255   0.993  0.5112  0.8279  0.6903
 2098TIP3    H227786   2.854   2.193   0.956  2.3840 -1.8837 -1.7084
 2099TIP3   OH227787   6.693   5.776   0.374  0.0073  0.5008  0.2244
 2099TIP3    H127788   6.722   5.722   0.448 -1.5831  0.1121  0.5885
 2099TIP3    H227789   6.760   5.844   0.366  0.8353 -0.1776  1.2356
 2100TIP3   OH227790   1.775   1.729   0.226 -0.1474 -0.3448  0.1114
 2100TIP3    H127791   1.796   1.776   0.306  1.4348  1.1341 -1.1500
 2100TIP3    H227792   1.860   1.707   0.188 -0.8912 -0.6784 -1.3869
 2101TIP3   OH227793   4.880   0.120  14.448 -0.3604  0.2481  0.4559
 2101TIP3    H127794   4.832   0.170  14.514 -0.2269  2.1220 -0.8250
 2101TIP3    H227795   4.972   0.140  14.465 -0.2589 -0.1890  0.4291
 2102TIP3   OH227796   4.294   4.927  14.404  0.6748 -0.2921 -0.1032
 2102TIP3    H127797   4.388   4.920  14.391  0.8845 -1.1258  1.8094
 2102TIP3    H227798   4.258   4.925  14.315  2.2812 -2.5511 -0.7395
 2103TIP3   OH227799   3.161   3.309   3.897 -0.6084 -0.1213 -0.2759
 2103TIP3    H127800   3.161   3.221   3.858 -2.0777 -0.0244 -0.5527
 2103TIP3    H227801   3.252   3.327   3.917 -0.1273 -1.1748 -1.4484
 2104TIP3   OH227802   2.298   6.289  13.025 -0.4385 -0.3286 -1.0336
 2104TIP3    H127803   2.302   6.365  13.083 -1.7049 -1.5293  0.6872
 2104TIP3    H227804   2.212   6.296  12.983  0.6583  0.7845 -3.1536
 2105TIP3   OH227805   1.511   5.550   2.048  0.1116 -0.0211  0.3035
 2105TIP3    H127806   1.514   5.519   2.139 -0.5854 -0.9680  0.0111
 2105TIP3    H227807   1.561   5.631   2.049  0.1871 -0.0689  1.5220
 2106TIP3   OH227808   3.208   4.041   1.803 -0.0777  1.0158 -0.3301
 2106TIP3    H127809   3.187   4.100   1.876 -4.0793  2.4405 -2.4939
 2106TIP3    H227810   3.176   3.955   1.831 -0.2960  1.2639  0.1850
 2107TIP3   OH227811   3.726   1.827   0.442 -0.2170 -0.1337 -0.1648
 2107TIP3    H127812   3.676   1.877   0.379  1.1735  1.3897 -0.1026
 2107TIP3    H227813   3.818   1.844   0.419  0.2892 -2.4079  0.0502
 2108TIP3   OH227814   4.724   1.224  12.062  0.2082  0.1690  0.0578
 2108TIP3    H127815   4.694   1.229  12.153  0.6128  1.2944  0.1455
 2108TIP3    H227816   4.782   1.147  12.060 -2.1926 -1.6764  0.0044
 2109TIP3   OH227817   3.313   5.050   5.516 -0.3113  0.0800 -0.3435
 2109TIP3    H127818   3.401   5.066   5.552 -0.5778  0.1482  0.2700
 2109TIP3    H227819   3.327   4.982   5.450 -0.2260 -1.8351  1.6150
 2110TIP3   OH227820   4.038   3.828  13.135  0.2573  0.0818 -0.1854
 2110TIP3    H127821   3.990   3.898  13.179 -1.6628 -1.5625  0.3841
 2110TIP3    H227822   4.126   3.833  13.173 -0.4714  0.7890  1.4901
 2111TIP3   OH227823   1.327   1.677  16.496  0.2377  0.2776 -0.0009
 2111TIP3    H127824   1.365   1.620  16.428  0.2056  0.0960  0.1332
 2111TIP3    H227825   1.403   1.718  16.537  0.3655 -0.9506  1.0353
 2112TIP3   OH227826   2.106   1.192   0.439  0.2278 -0.1397 -0.5455
 2112TIP3    H127827   2.134   1.214   0.528 -0.8535  1.8859 -0.6809
 2112TIP3    H227828   2.019   1.155   0.450 -0.8018  2.0629 -0.8919
 2113TIP3   OH227829   6.593   5.051   4.505  0.6730 -0.5884 -0.0363
 2113TIP3    H127830   6.536   5.115   4.462 -0.6962 -0.4661  1.9155
 2113TIP3    H227831   6.580   4.970   4.455  1.6878  0.3743 -1.9226
 2114TIP3   OH227832   5.945   1.509   4.670  0.6426  0.5211 -0.4792
 2114TIP3    H127833   6.023   1.465   4.636 -0.9493 -1.0028 -2.2866
 2114TIP3    H227834   5.925   1.462   4.752  0.3636 -0.5417 -1.1472
 2115TIP3   OH227835   3.426   2.254   3.600  0.1967 -0.4865  0.6662
 2115TIP3    H127836   3.468   2.265   3.514 -1.3282 -1.6761 -0.2586
 2115TIP3    H227837   3.336   2.283   3.586  0.1919  0.2491  2.1360
 2116TIP3   OH227838   5.072   1.754   1.798  0.2681  0.1501  0.0177
 2116TIP3    H127839   5.149   1.714   1.758 -0.6124 -0.2450 -1.3379
 2116TIP3    H227840   5.020   1.785   1.724 -0.4876  1.1535  0.9471
 2117TIP3   OH227841   5.393   5.546  15.367  0.1442  0.1291  0.3014
 2117TIP3    H127842   5.416   5.578  15.279  1.1343 -1.3210  0.0258
 2117TIP3    H227843   5.317   5.489  15.352  0.5525 -0.4208  0.3422
 2118TIP3   OH227844   2.532   0.721   2.557 -0.0445 -0.2250  0.8744
 2118TIP3    H127845   2.476   0.646   2.572  0.9226 -1.1365 -0.0311
 2118TIP3    H227846   2.577   0.735   2.640 -0.4269 -0.4762  1.1212
 2119TIP3   OH227847   0.042   3.000   3.765 -0.1937 -0.3714  0.3399
 2119TIP3    H127848  -0.019   3.063   3.803  1.2142  0.9549  0.4487
 2119TIP3    H227849   0.089   3.049   3.698  0.2410 -1.5809 -0.2600
 2120TIP3   OH227850   3.525   3.595  16.602 -0.5559  0.3181  0.2853
 2120TIP3    H127851   3.615   3.626  16.609 -0.1513 -0.6430 -0.4875
 2120TIP3    H227852   3.527   3.509  16.644 -0.7646 -0.3617 -1.0855
 2121TIP3   OH227853   2.028   2.624   3.538 -0.1536 -0.5054  0.3933
 2121TIP3    H127854   1.975   2.563   3.590  0.0808 -1.0715 -0.0232
 2121TIP3    H227855   2.061   2.687   3.602 -0.3456 -0.8567  0.8438
 2122TIP3   OH227856   4.196   2.086   0.609  0.3790  0.7593  0.6082
 2122TIP3    H127857   4.205   2.174   0.645  2.3075  0.2604  1.3767
 2122TIP3    H227858   4.242   2.090   0.525 -1.8275  1.1821 -0.6449
 2123TIP3   OH227859   4.238   6.563  13.441 -0.3243 -0.2263  0.3358
 2123TIP3    H127860   4.333   6.575  13.435 -0.4439  1.7852  1.8831
 2123TIP3    H227861   4.207   6.572  13.351  0.9494 -1.0466 -0.2080
 2124TIP3   OH227862   6.773   1.324  17.035  0.2190  0.0288 -0.2620
 2124TIP3    H127863   6.713   1.253  17.012 -0.2174  0.2636  0.1523
 2124TIP3    H227864   6.759   1.338  17.128  1.2839 -0.2617 -0.0502
 2125TIP3   OH227865   6.330   0.215   1.996 -0.0300 -0.1437  0.0819
 2125TIP3    H127866   6.243   0.254   2.008  0.6189  1.0031  1.1178
 2125TIP3    H227867   6.389   0.290   1.991  1.2270 -0.9835  1.9630
 2126TIP3   OH227868   0.591   0.642   3.189  0.0061 -0.0827 -0.1095
 2126TIP3    H127869   0.589   0.705   3.117  0.7657 -0.0970 -0.1454
 2126TIP3    H227870   0.562   0.560   3.148 -2.3043  0.5132  0.2401
 2127TIP3   OH227871   0.436   5.062   0.169  0.0500 -0.5197  0.3336
 2127TIP3    H127872   0.342   5.049   0.156 -0.1415  1.4915 -0.5855
 2127TIP3    H227873   0.468   5.094   0.084  1.3951 -0.3467  0.8870
 2128TIP3   OH227874   4.234   2.403   4.370  0.3765  0.2065 -0.5413
 2128TIP3    H127875   4.300   2.354   4.418  1.2676  0.6643 -1.2578
 2128TIP3    H227876   4.200   2.466   4.433 -0.4205 -0.9942  0.2399
 2129TIP3   OH227877   2.534   0.204   5.875 -0.0585 -0.0177  0.0567
 2129TIP3    H127878   2.526   0.114   5.843 -0.1463 -0.1231  0.3619
 2129TIP3    H227879   2.469   0.209   5.945 -0.0307  0.2748  0.0596
 2130TIP3   OH227880   4.036   5.523  11.779 -0.4184 -0.1174 -0.2375
 2130TIP3    H127881   4.051   5.434  11.746 -0.9826 -0.0704 -0.6206
 2130TIP3    H227882   4.047   5.579  11.703  1.0101  0.2477  0.2282
 2131TIP3   OH227883   2.647   2.332   1.909 -0.0991 -0.3491  0.5492
 2131TIP3    H127884   2.718   2.277   1.942  0.1377  0.2290  1.0301
 2131TIP3    H227885   2.629   2.393   1.980 -0.8084 -0.2317  0.2748
 2132TIP3   OH227886   6.122   4.500  14.904  0.3607 -0.2801 -0.0691
 2132TIP3    H127887   6.138   4.409  14.929 -0.3411 -0.6826 -1.0767
 2132TIP3    H227888   6.074   4.538  14.978  1.3540 -0.4924  0.7009
 2133TIP3   OH227889   6.327   3.688   4.410 -0.1198 -0.2093 -0.2329
 2133TIP3    H127890   6.232   3.694   4.419 -0.2628 -0.0982 -1.7837
 2133TIP3    H227891   6.351   3.759   4.351  0.9106 -0.3242  0.0331
 2134TIP3   OH227892   0.476   2.077   4.879 -0.2619 -0.0547 -0.3413
 2134TIP3    H127893   0.523   2.138   4.823 -1.9290  1.1439 -0.4860
 2134TIP3    H227894   0.475   1.995   4.831 -0.1716  0.4961 -1.2919
 2135TIP3   OH227895   3.298   6.630  16.466 -0.4675  0.4016  0.3979
 2135TIP3    H127896   3.244   6.565  16.511 -0.7160 -0.0344 -0.5232
 2135TIP3    H227897   3.311   6.594  16.378 -1.3825  2.0330 -0.4207
 2136TIP3   OH227898   2.429   3.609  13.432  0.0106 -0.5406 -0.1332
 2136TIP3    H127899   2.411   3.565  13.515 -1.9192 -0.2988 -0.3919
 2136TIP3    H227900   2.403   3.700  13.446  2.5834  0.2288 -0.0690
 2137TIP3   OH227901   0.984   3.078   3.024  0.0052  0.1493  0.2253
 2137TIP3    H127902   1.047   3.141   3.060  0.3788  1.1676 -2.1095
 2137TIP3    H227903   1.031   3.035   2.953 -1.7590  0.5668 -1.2213
 2138TIP3   OH227904   0.547   0.913   3.878  0.5104 -1.1185  0.1370
 2138TIP3    H127905   0.563   0.992   3.826 -1.0024  0.6855  2.3290
 2138TIP3    H227906   0.458   0.923   3.910  1.1608 -2.5333  2.4820
 2139TIP3   OH227907   0.715   6.469  16.595  0.5033  1.0735  0.5436
 2139TIP3    H127908   0.789   6.423  16.635  0.8269  2.6084  1.7434
 2139TIP3    H227909   0.659   6.495  16.668  0.1962  2.3351 -0.1164
 2140TIP3   OH227910   5.876   2.079  16.164  0.2854 -0.1395 -0.5406
 2140TIP3    H127911   5.840   2.080  16.253  0.0354 -2.6420 -0.5544
 2140TIP3    H227912   5.857   2.166  16.129 -2.8691 -0.2790  0.6205
 2141TIP3   OH227913   5.201   1.348  13.117  0.2593  0.3353 -0.3747
 2141TIP3    H127914   5.163   1.263  13.095  0.6487 -0.2291  1.0439
 2141TIP3    H227915   5.265   1.365  13.047 -0.4617 -0.1098 -1.1458
 2142TIP3   OH227916   4.312   1.170  11.736 -0.1978 -0.2219 -0.4903
 2142TIP3    H127917   4.354   1.086  11.755  0.4697 -0.5317 -3.2470
 2142TIP3    H227918   4.307   1.213  11.822  1.9096 -1.9277  0.5367
 2143TIP3   OH227919   3.943   1.056   2.562  0.7367 -0.2174 -0.4206
 2143TIP3    H127920   3.930   1.141   2.520 -0.1728 -0.2379 -0.1803
 2143TIP3    H227921   3.962   0.996   2.490  0.9542  0.1031 -0.6307
 2144TIP3   OH227922   4.982   6.299  12.413  0.4289 -0.2000  0.1936
 2144TIP3    H127923   4.899   6.254  12.429 -0.1573  0.8557  0.2166
 2144TIP3    H227924   5.013   6.322  12.500  0.6402 -0.4040  0.1725
 2145TIP3   OH227925   2.677   4.833  15.087 -0.1482  0.0032 -0.0397
 2145TIP3    H127926   2.585   4.841  15.112  0.0853 -1.8961  1.5133
 2145TIP3    H227927   2.725   4.846  15.168  0.8810 -0.7549 -0.5208
 2146TIP3   OH227928   4.344   2.275  13.680  0.3127 -0.2237 -0.6578
 2146TIP3    H127929   4.318   2.209  13.617 -1.3361  0.6012 -0.8635
 2146TIP3    H227930   4.273   2.277  13.745  1.0460  0.3072  0.1543
 2147TIP3   OH227931   0.242   4.385   2.210  0.0773  0.2410  0.2703
 2147TIP3    H127932   0.334   4.382   2.234  0.2832 -1.4324 -0.6340
 2147TIP3    H227933   0.241   4.370   2.115 -1.1805 -0.9342  0.4523
 2148TIP3   OH227934   1.133   5.121   5.304  0.1733 -0.2398 -0.3165
 2148TIP3    H127935   1.076   5.187   5.345 -0.2609 -0.2705 -0.8679
 2148TIP3    H227936   1.099   5.112   5.215  1.4183  0.1779 -0.8353
 2149TIP3   OH227937   5.191   1.567   6.398  0.5022 -0.9784 -0.1153
 2149TIP3    H127938   5.098   1.577   6.418  0.5722 -0.1995 -0.1921
 2149TIP3    H227939   5.218   1.653   6.366  1.4620 -0.9523  0.7672
 2150TIP3   OH227940   1.697   3.662  15.687 -0.3434 -0.6424  0.3331
 2150TIP3    H127941   1.691   3.579  15.733 -1.8594  0.7032  2.6791
 2150TIP3    H227942   1.608   3.697  15.689  0.1914  0.8754 -0.9451
 2151TIP3   OH227943   0.745   5.308  13.199  0.2517 -0.0658  0.3309
 2151TIP3    H127944   0.726   5.279  13.110  0.1700 -0.6942  0.5507
 2151TIP3    H227945   0.834   5.276  13.215  1.0877  1.8536 -0.2762
 2152TIP3   OH227946   6.679   0.366  16.438  0.4384 -0.0786 -0.4428
 2152TIP3    H127947   6.587   0.375  16.464  0.1339  0.1126 -1.5595
 2152TIP3    H227948   6.706   0.282  16.475 -0.3642 -0.4216 -0.6182
 2153TIP3   OH227949   2.519   1.270  16.733 -0.2876 -0.1942 -0.3119
 2153TIP3    H127950   2.614   1.274  16.739 -0.2913  0.7595 -0.7642
 2153TIP3    H227951   2.500   1.288  16.641 -0.9006 -0.5183 -0.2548
 2154TIP3   OH227952   5.792   1.582   4.451 -0.1195  0.8671 -0.1773
 2154TIP3    H127953   5.845   1.534   4.387 -1.4617  0.9509 -1.3749
 2154TIP3    H227954   5.826   1.553   4.536  1.2485  0.2537 -0.9041
 2155TIP3   OH227955   1.939   3.999   0.725 -0.6777  0.0777 -0.0867
 2155TIP3    H127956   1.908   4.017   0.814 -0.4822 -0.4274  0.0847
 2155TIP3    H227957   1.863   4.018   0.669 -0.3061  1.9730  0.0294
 2156TIP3   OH227958   0.673   0.725  14.467 -0.0387  0.5096 -0.4942
 2156TIP3    H127959   0.746   0.675  14.505 -0.7798  0.4824  0.9362
 2156TIP3    H227960   0.715   0.793  14.415  0.9965 -0.6467 -1.2082
 2157TIP3   OH227961   2.037   0.263  15.526  0.3624  0.1675 -0.1340
 2157TIP3    H127962   2.014   0.283  15.617  1.4314  0.0424  0.1691
 2157TIP3    H227963   1.955   0.235  15.486 -0.0853  0.0971  0.8235
 2158TIP3   OH227964   3.032   0.640  11.582  0.2905  0.1420  0.1790
 2158TIP3    H127965   2.964   0.600  11.528  1.2598 -0.9554 -0.2461
 2158TIP3    H227966   3.000   0.729  11.598 -2.0403 -0.8573  1.3750
 2159TIP3   OH227967   0.718   3.590   4.183 -0.4049  0.0952 -0.2986
 2159TIP3    H127968   0.669   3.619   4.107 -0.2362 -0.0161 -0.4516
 2159TIP3    H227969   0.658   3.534   4.231  0.0787 -1.3143 -1.3092
 2160TIP3   OH227970   2.671   5.012  15.632 -0.1555 -0.2197  0.4035
 2160TIP3    H127971   2.762   4.982  15.638  0.5855  1.6187 -1.1222
 2160TIP3    H227972   2.632   4.989  15.716  1.5670 -1.5065  0.8745
 2161TIP3   OH227973   3.966   0.453   0.637 -0.4143  0.2334 -0.0439
 2161TIP3    H127974   3.995   0.541   0.611  0.3618 -0.3473 -1.1942
 2161TIP3    H227975   3.900   0.430   0.571  0.8048 -0.8297 -0.9116
 2162TIP3   OH227976   0.964   2.300   2.960 -0.4281 -0.3334 -0.1194
 2162TIP3    H127977   0.959   2.396   2.957  1.1796 -0.2699 -1.1065
 2162TIP3    H227978   0.991   2.280   3.050 -0.8245  0.1138  0.1064
 2163TIP3   OH227979   3.034   4.304   2.264  0.2135 -0.5110  0.0769
 2163TIP3    H127980   2.964   4.363   2.236  0.4928 -0.1607  0.1196
 2163TIP3    H227981   3.093   4.358   2.316  0.5447 -0.7963  0.0026
 2164TIP3   OH227982   4.556   6.304   4.703  0.2088  0.1970 -0.3425
 2164TIP3    H127983   4.570   6.212   4.681  1.8823  0.4896 -0.5519
 2164TIP3    H227984   4.568   6.308   4.798  1.9244  0.5042 -0.5635
 2165TIP3   OH227985   1.226   1.862   4.297 -0.2720  0.5752  0.4874
 2165TIP3    H127986   1.271   1.894   4.374 -1.8826  1.8714  0.9158
 2165TIP3    H227987   1.201   1.941   4.249  1.3713 -0.2295 -1.7659
 2166TIP3   OH227988   4.756   3.964  15.784  0.1195  0.5798 -0.2766
 2166TIP3    H127989   4.815   3.955  15.859  1.0499 -1.6085 -1.2158
 2166TIP3    H227990   4.670   3.981  15.822 -0.0854 -3.8033  1.5285
 2167TIP3   OH227991   0.452   2.357   5.300 -0.3204  0.0102 -0.6792
 2167TIP3    H127992   0.396   2.334   5.225 -0.5107  1.1189 -0.8879
 2167TIP3    H227993   0.424   2.299   5.370  1.3247 -2.5522 -2.0865
 2168TIP3   OH227994   4.676   0.138  14.240  0.1444 -0.1691 -0.3249
 2168TIP3    H127995   4.658   0.049  14.210  1.8633 -0.4275 -0.6200
 2168TIP3    H227996   4.754   0.131  14.295 -1.2048  0.7805  1.7940
 2169TIP3   OH227997   1.721   0.456  14.054 -0.1688 -0.1495  0.1218
 2169TIP3    H127998   1.793   0.485  13.998  0.6553 -3.2531 -0.5279
 2169TIP3    H227999   1.736   0.501  14.137  2.2805 -0.3952 -0.1491
 2170TIP3   OH228000   1.708   5.851  16.414 -0.3495 -0.1604 -0.2129
 2170TIP3    H128001   1.642   5.795  16.454  1.4479 -2.1959  0.0563
 2170TIP3    H228002   1.770   5.869  16.485  1.5518 -1.7394 -1.4118
 2171TIP3   OH228003   4.944   4.512  12.879 -0.2869 -0.2058 -0.3821
 2171TIP3    H128004   4.964   4.419  12.875 -2.6307 -0.8702  2.0723
 2171TIP3    H228005   5.027   4.554  12.901  0.2823 -1.9496  0.8615
 2172TIP3   OH228006   5.584   4.729   3.600 -0.4826 -0.1447 -0.0291
 2172TIP3    H128007   5.551   4.642   3.623  1.3992  0.0106  3.5604
 2172TIP3    H228008   5.529   4.789   3.650 -0.9893  0.6962 -1.5702
 2173TIP3   OH228009   0.325   4.498  16.585 -0.4044 -0.4326  0.1785
 2173TIP3    H128010   0.332   4.406  16.611 -0.5899 -0.1091  1.4154
 2173TIP3    H228011   0.303   4.544  16.666 -1.6844  0.5232 -0.6914
 2174TIP3   OH228012   0.162   1.525   1.715 -0.0016  0.5247 -0.0276
 2174TIP3    H128013   0.116   1.488   1.639  2.2221 -0.5305 -0.9036
 2174TIP3    H228014   0.232   1.462   1.734  0.7982  1.8494  1.5608
 2175TIP3   OH228015   1.270   4.254  12.848 -0.2944  0.3698 -0.1261
 2175TIP3    H128016   1.191   4.301  12.821 -0.6558  1.0638  2.0706
 2175TIP3    H228017   1.239   4.166  12.869 -0.1147  0.0160 -1.2928
 2176TIP3   OH228018   0.647   4.971   2.434 -0.3229  0.0262 -0.1245
 2176TIP3    H128019   0.642   4.929   2.349  2.9027  1.2490 -1.0359
 2176TIP3    H228020   0.594   5.050   2.425  0.2492  0.3073 -1.1297
 2177TIP3   OH228021   4.081   2.593   5.990  0.0518 -0.2075 -0.2106
 2177TIP3    H128022   4.112   2.528   5.927 -0.9760  1.6861 -2.7476
 2177TIP3    H228023   4.039   2.542   6.059 -0.4768 -2.2501 -2.0038
 2178TIP3   OH228024   3.780   1.042   6.460 -0.2413  0.1878  0.3646
 2178TIP3    H128025   3.709   1.103   6.480  1.2707  1.8911  0.7171
 2178TIP3    H228026   3.754   0.960   6.502 -2.7657  0.2911 -0.9343
 2179TIP3   OH228027   6.356   4.378  15.490 -0.2227 -0.0367  0.4964
 2179TIP3    H128028   6.449   4.402  15.494 -0.2452  0.0237  0.7045
 2179TIP3    H228029   6.356   4.288  15.457  0.0271 -0.7275  2.3219
 2180TIP3   OH228030   6.590   4.852   3.403  0.5178 -0.5162  0.1440
 2180TIP3    H128031   6.510   4.902   3.422 -0.2134 -2.7866  3.6134
 2180TIP3    H228032   6.558   4.767   3.372  1.6244 -0.5883 -0.7867
 2181TIP3   OH228033   6.450   1.236  14.341  0.5490  1.0622  0.2737
 2181TIP3    H128034   6.443   1.331  14.332 -0.9473  1.1874  2.3653
 2181TIP3    H228035   6.437   1.220  14.434  1.4618 -1.1585  0.0535
 2182TIP3   OH228036   2.439   5.565   0.793  0.2182 -0.1118 -1.0655
 2182TIP3    H128037   2.529   5.535   0.778  0.4893  1.3901 -2.5281
 2182TIP3    H228038   2.407   5.590   0.707 -0.3279  2.8600 -0.0710
 2183TIP3   OH228039   3.161   4.030  13.070 -0.3871  0.0461 -0.5188
 2183TIP3    H128040   3.232   3.988  13.118  0.6590  0.0384 -2.0598
 2183TIP3    H228041   3.097   3.960  13.056 -0.7739  0.0816  0.9708
 2184TIP3   OH228042   6.787   4.480   4.865 -0.4522  0.3081  0.1309
 2184TIP3    H128043   6.810   4.388   4.849  1.2017  0.7596 -0.2441
 2184TIP3    H228044   6.715   4.476   4.928  0.1755 -1.2322  0.7949
 2185TIP3   OH228045   6.556   1.931   2.072  0.1229  0.4280 -0.6563
 2185TIP3    H128046   6.473   1.931   2.120  0.4199 -0.0903 -0.1270
 2185TIP3    H228047   6.531   1.939   1.980 -0.5381 -0.0613 -0.5256
 2186TIP3   OH228048   3.643   5.743   5.992  0.1513  1.1686 -0.4634
 2186TIP3    H128049   3.561   5.737   6.041  1.2085 -2.0004  1.0030
 2186TIP3    H228050   3.691   5.816   6.033  0.0043  0.0981  1.6666
 2187TIP3   OH228051   5.024   3.456   0.448  0.0939 -0.0518 -0.9143
 2187TIP3    H128052   5.082   3.505   0.390  0.5381  0.2243 -0.2490
 2187TIP3    H228053   4.998   3.380   0.397  0.3859  0.2484 -1.5179
 2188TIP3   OH228054   5.165   5.341   2.966  0.0120 -0.3976 -0.7239
 2188TIP3    H128055   5.121   5.258   2.982 -0.0473 -0.4004 -0.9059
 2188TIP3    H228056   5.131   5.400   3.033 -0.9490 -0.1436 -1.4298
 2189TIP3   OH228057   6.512   6.712   3.874 -0.1843 -0.2129 -0.1977
 2189TIP3    H128058   6.538   6.795   3.834 -0.5942  0.9690  1.9181
 2189TIP3    H228059   6.568   6.646   3.832 -2.0227  0.6277 -4.2529
 2190TIP3   OH228060   5.053   6.349  15.763 -0.5495  0.1557  0.1050
 2190TIP3    H128061   4.970   6.354  15.810 -0.6949 -0.6955 -0.0600
 2190TIP3    H228062   5.053   6.426  15.705 -0.5918  0.9268  1.1202
 2191TIP3   OH228063   0.679   4.965   0.120 -0.6501 -0.2411  0.6443
 2191TIP3    H128064   0.594   5.005   0.140 -0.2543  0.7409  0.4115
 2191TIP3    H228065   0.696   4.907   0.194 -0.5329  1.1993  1.7861
 2192TIP3   OH228066   0.461   6.148  14.907 -0.0674 -0.1062  0.3406
 2192TIP3    H128067   0.385   6.202  14.886  0.1384  0.8738  1.9526
 2192TIP3    H228068   0.476   6.165  15.000  1.1402 -1.5354  0.4139
 2193TIP3   OH228069   6.521   6.621  16.918 -0.1788 -0.6569 -0.0863
 2193TIP3    H128070   6.519   6.586  17.007  0.5475 -1.3658 -0.3455
 2193TIP3    H228071   6.545   6.546  16.863  1.2895  0.2142 -0.6611
 2194TIP3   OH228072   4.081   5.862  13.526 -0.2741 -0.1876  0.4514
 2194TIP3    H128073   4.116   5.773  13.520  0.1047 -0.0962  1.2567
 2194TIP3    H228074   4.002   5.854  13.580 -1.2025 -0.3029 -0.8936
 2195TIP3   OH228075   4.696   0.177   4.024  0.1869 -0.7034  0.1029
 2195TIP3    H128076   4.730   0.113   4.086  0.7474  0.0341  0.5705
 2195TIP3    H228077   4.615   0.139   3.992  1.0034 -2.1028 -0.3701
 2196TIP3   OH228078   4.293   4.770   2.872  0.0801 -0.1857  0.2155
 2196TIP3    H128079   4.229   4.721   2.923 -0.7508  1.6672  1.0289
 2196TIP3    H228080   4.288   4.733   2.784 -0.0256 -1.9832  0.9687
 2197TIP3   OH228081   3.133   1.590   3.542 -0.1016  0.0621 -0.2198
 2197TIP3    H128082   3.161   1.681   3.553  0.7793 -0.1273 -0.9249
 2197TIP3    H228083   3.051   1.596   3.494 -2.0566  0.6976  3.0093
 2198TIP3   OH228084   3.117   6.687   5.068  0.2226 -0.5420  0.6772
 2198TIP3    H128085   3.057   6.698   4.994  2.0322 -0.0584 -0.7301
 2198TIP3    H228086   3.166   6.607   5.047  1.4670  0.1699  0.8264
 2199TIP3   OH228087   1.588   5.301  11.114  0.1399  0.0853  0.1158
 2199TIP3    H128088   1.682   5.296  11.131  0.2153  0.2539 -0.2547
 2199TIP3    H228089   1.581   5.314  11.020 -0.2938 -1.2085 -0.0483
 2200TIP3   OH228090   2.453   1.413   2.987 -0.1191 -0.0766 -0.0409
 2200TIP3    H128091   2.405   1.354   3.044  1.2701 -0.9445  0.2489
 2200TIP3    H228092   2.517   1.357   2.943  0.4138  1.0018 -0.6525
 2201TIP3   OH228093   1.061   3.806  14.366  0.0847 -0.4132  0.9958
 2201TIP3    H128094   1.044   3.866  14.439 -0.9805 -0.1720  0.5556
 2201TIP3    H228095   1.027   3.722  14.397 -2.9683  0.2938 -0.2910
 2202TIP3   OH228096   1.967   1.599   1.315  0.0727  0.2246  0.4418
 2202TIP3    H128097   1.951   1.540   1.241  0.8174  1.3839 -0.6491
 2202TIP3    H228098   2.049   1.644   1.293 -1.3094  2.8645  0.4741
 2203TIP3   OH228099   1.091   2.778  12.698 -0.3515 -0.0767  0.0850
 2203TIP3    H128100   1.184   2.800  12.689 -0.4751  0.1329 -0.7354
 2203TIP3    H228101   1.089   2.705  12.761  0.5401 -1.3883 -1.3814
 2204TIP3   OH228102   0.626   3.798  16.275  0.4173  0.2051  0.2164
 2204TIP3    H128103   0.557   3.826  16.214  0.6669  1.0065  0.3028
 2204TIP3    H228104   0.707   3.807  16.225  0.4473 -0.9626  0.0382
 2205TIP3   OH228105   1.348   5.874   2.012 -0.7456 -0.6164  0.7496
 2205TIP3    H128106   1.404   5.880   2.089 -1.4500 -0.5039  1.2497
 2205TIP3    H228107   1.286   5.946   2.022 -0.9120 -0.6722  0.1338
 2206TIP3   OH228108   5.354   4.710  12.471  0.3794  0.1772  0.0108
 2206TIP3    H128109   5.307   4.665  12.542 -1.2246  0.5425 -0.7915
 2206TIP3    H228110   5.435   4.741  12.512 -0.1857 -0.2550  1.4973
 2207TIP3   OH228111   0.216   2.391  14.384  0.4395 -0.5767 -0.8837
 2207TIP3    H128112   0.169   2.312  14.361  1.2866 -1.0049 -1.1727
 2207TIP3    H228113   0.294   2.360  14.431 -0.1748  0.1759  0.6518
 2208TIP3   OH228114   1.121   0.623  17.109  0.6657  0.1732  0.1944
 2208TIP3    H128115   1.098   0.641  17.018  0.4823 -0.7874  0.0456
 2208TIP3    H228116   1.203   0.670  17.124 -0.0480  1.5081 -0.0372
 2209TIP3   OH228117   4.266   3.971   4.165 -0.6241  0.2193 -0.3791
 2209TIP3    H128118   4.218   4.002   4.241  0.8743  0.4964  0.4603
 2209TIP3    H228119   4.263   4.044   4.103  2.1312  1.7615  1.2438
 2210TIP3   OH228120   5.627   0.402   4.201 -0.7392  0.3482  0.6201
 2210TIP3    H128121   5.599   0.338   4.267 -0.2970  0.7995  1.2517
 2210TIP3    H228122   5.671   0.470   4.252  0.2808  0.3257 -0.2223
 2211TIP3   OH228123   0.266   1.374   1.010 -0.3706 -0.2434  1.0946
 2211TIP3    H128124   0.314   1.422   0.942 -2.6645 -0.5806 -0.8205
 2211TIP3    H228125   0.329   1.307   1.040  1.1571  0.8031  0.3058
 2212TIP3   OH228126   3.049   3.198  16.351  0.1047 -0.4050 -0.1869
 2212TIP3    H128127   3.087   3.195  16.263 -0.5621  0.8264 -0.5257
 2212TIP3    H228128   3.095   3.129  16.399  0.6055 -0.9654 -1.4448
 2213TIP3   OH228129   6.560   3.655  15.116  0.7091 -0.2548 -0.1340
 2213TIP3    H128130   6.527   3.576  15.157  0.1364 -0.7393 -1.5129
 2213TIP3    H228131   6.487   3.716  15.119  0.7987 -0.1498 -0.0643
 2214TIP3   OH228132   0.009   1.630  16.022 -0.4996  0.7085 -0.1765
 2214TIP3    H128133  -0.067   1.576  16.043 -0.6701  0.2960 -1.7600
 2214TIP3    H228134  -0.003   1.709  16.074 -1.6985  0.3858  0.0624
 2215TIP3   OH228135   3.293   4.665   5.018  0.2833  0.2228  0.5117
 2215TIP3    H128136   3.198   4.658   5.019  0.3842 -1.2712  1.3215
 2215TIP3    H228137   3.321   4.599   4.955  0.9281 -1.5877  2.6354
 2216TIP3   OH228138   6.028   6.395  11.324  0.1501  0.1930 -0.1078
 2216TIP3    H128139   5.935   6.373  11.331  0.1368 -0.5070 -2.0593
 2216TIP3    H228140   6.073   6.313  11.343  0.3556  0.4548  0.5269
 2217TIP3   OH228141   1.222   2.054   1.121  1.4082 -0.6353 -0.1873
 2217TIP3    H128142   1.314   2.073   1.134  1.5304 -1.6245  0.4437
 2217TIP3    H228143   1.177   2.104   1.189  1.4468  0.1813 -0.7639
 2218TIP3   OH228144   3.088   5.553   5.141 -0.6445  0.3923 -0.4769
 2218TIP3    H128145   3.087   5.507   5.058 -1.4523  2.6053 -1.7398
 2218TIP3    H228146   3.113   5.643   5.119  0.5765  0.6669  1.8610
 2219TIP3   OH228147   2.958   6.073   4.782  0.0367  0.3592  0.0237
 2219TIP3    H128148   3.014   6.151   4.779  1.0442 -0.3795 -0.2205
 2219TIP3    H228149   3.016   6.002   4.807 -0.9008 -0.3136  0.2986
 2220TIP3   OH228150   5.020   6.337   1.082 -0.5874  0.3181 -0.3314
 2220TIP3    H128151   5.086   6.386   1.034  0.2190  1.2941  1.7254
 2220TIP3    H228152   4.943   6.393   1.082 -0.1542  0.9178  0.6869
 2221TIP3   OH228153   1.267   5.371   1.673 -0.4996  0.0891  0.0535
 2221TIP3    H128154   1.352   5.343   1.707 -0.9975 -1.5987 -0.0431
 2221TIP3    H228155   1.258   5.461   1.703  0.7897 -0.1092  1.0967
 2222TIP3   OH228156   0.888   3.980   6.366 -0.0353  0.2687 -0.1989
 2222TIP3    H128157   0.810   3.932   6.340  1.3617 -1.4034 -1.3277
 2222TIP3    H228158   0.911   3.944   6.452  1.4909 -1.7027 -1.4107
 2223TIP3   OH228159   4.693   6.505  16.779 -0.4164  0.1210 -0.2078
 2223TIP3    H128160   4.754   6.551  16.720 -0.9921 -0.0140 -0.9159
 2223TIP3    H228161   4.705   6.412  16.758 -0.8439  0.0917 -0.3230
 2224TIP3   OH228162   1.296   1.075  15.066 -0.2438  0.5523 -0.1713
 2224TIP3    H128163   1.382   1.039  15.045 -0.5610  0.4747 -1.3619
 2224TIP3    H228164   1.283   1.054  15.159  0.5710 -0.3546 -0.2584
 2225TIP3   OH228165   5.192   5.870   3.959 -0.3877 -0.1344 -0.0842
 2225TIP3    H128166   5.208   5.837   4.047  0.2878  0.4233  0.0074
 2225TIP3    H228167   5.102   5.843   3.939 -1.0142  0.8741  1.2833
 2226TIP3   OH228168   5.960   1.613   5.744  0.7638  0.5105 -0.2678
 2226TIP3    H128169   5.900   1.580   5.811  0.7698  2.2211  0.6038
 2226TIP3    H228170   6.037   1.643   5.793  1.2420  0.7513 -1.1456
 2227TIP3   OH228171   6.389   5.766  14.939  0.4146 -0.2916 -0.2881
 2227TIP3    H128172   6.313   5.816  14.909  0.2450 -0.8255 -0.7723
 2227TIP3    H228173   6.455   5.832  14.957 -0.1764  0.1828  0.1708
 2228TIP3   OH228174   0.491   1.860  15.049  0.7927  0.1794 -0.0944
 2228TIP3    H128175   0.405   1.833  15.081  0.8214 -0.3334 -0.4463
 2228TIP3    H228176   0.498   1.952  15.074 -0.4374  0.6094 -1.3127
 2229TIP3   OH228177   2.493   5.791   4.738 -0.0432  0.1372 -0.1323
 2229TIP3    H128178   2.574   5.768   4.694  0.7683  1.0326  0.8713
 2229TIP3    H228179   2.430   5.725   4.709  1.1854 -0.8991 -0.4682
 2230TIP3   OH228180   0.087   5.593  13.644  0.9830 -0.0252  0.3626
 2230TIP3    H128181   0.031   5.622  13.573  0.0768 -1.0065  0.6579
 2230TIP3    H228182   0.176   5.615  13.616  0.6055 -0.0868 -0.9129
 2231TIP3   OH228183   1.178   4.180  16.739 -0.4859 -0.6218  0.6230
 2231TIP3    H128184   1.254   4.150  16.789 -0.8606 -1.2793  0.8161
 2231TIP3    H228185   1.166   4.271  16.765  1.9642  0.3873 -1.5631
 2232TIP3   OH228186   0.762   2.736  12.296  0.1332 -0.2016 -0.4279
 2232TIP3    H128187   0.816   2.682  12.352  0.2961 -1.3316 -1.6502
 2232TIP3    H228188   0.743   2.814  12.348 -1.6351 -2.2097  2.0436
 2233TIP3   OH228189   5.027   1.718   2.515  0.1480 -0.2980  0.1119
 2233TIP3    H128190   5.058   1.628   2.506 -1.1870 -0.9717  1.8852
 2233TIP3    H228191   5.103   1.773   2.497  1.4331 -1.8311  0.8440
 2234TIP3   OH228192   3.033   2.529  13.953  0.5788  0.4601 -0.0963
 2234TIP3    H128193   3.100   2.545  13.887 -0.0036  1.0341 -0.5595
 2234TIP3    H228194   2.951   2.551  13.909  0.2491  1.6278  1.0714
 2235TIP3   OH228195   6.047   0.555   2.845  0.1658  0.1063  0.4648
 2235TIP3    H128196   6.061   0.559   2.751  0.4580  2.0665  0.5631
 2235TIP3    H228197   6.133   0.536   2.882  0.3842  0.9740  0.4172
 2236TIP3   OH228198   4.914   0.544  16.095  0.1618  0.1630  0.2668
 2236TIP3    H128199   4.870   0.549  16.179 -0.1822 -0.2462  0.1120
 2236TIP3    H228200   4.908   0.633  16.059 -0.1496  0.2119  0.4391
 2237TIP3   OH228201   4.027   4.069  10.313 -0.1430  0.1423 -0.0641
 2237TIP3    H128202   3.960   4.119  10.360  0.3116  0.5532  0.1465
 2237TIP3    H228203   4.067   4.014  10.380  0.6142  0.8446  0.0620
 2238TIP3   OH228204   0.775   4.262  14.137  0.1492  0.4918  0.5612
 2238TIP3    H128205   0.850   4.296  14.088  0.2613 -1.3950 -0.6349
 2238TIP3    H228206   0.721   4.340  14.155  0.3944  1.3270 -2.0787
 2239TIP3   OH228207   2.500   3.658   3.363 -0.2018 -0.5667  0.2309
 2239TIP3    H128208   2.508   3.562   3.360  0.3913 -0.5552  1.4869
 2239TIP3    H228209   2.588   3.690   3.346 -0.1650 -0.2642  0.9781
 2240TIP3   OH228210   2.708   5.650   2.435  0.3714 -0.2583  0.1811
 2240TIP3    H128211   2.735   5.697   2.514 -0.9820  0.7678  0.0625
 2240TIP3    H228212   2.615   5.631   2.449  0.0414  0.2004 -1.2958
 2241TIP3   OH228213   3.522   4.003  15.955 -0.2967 -0.2097 -0.2924
 2241TIP3    H128214   3.591   4.058  15.991 -0.9124  0.4674 -0.1238
 2241TIP3    H228215   3.457   4.066  15.920 -1.4324 -0.8084  0.7015
 2242TIP3   OH228216   1.602   4.766  11.951 -0.6151 -0.8554 -0.0434
 2242TIP3    H128217   1.583   4.773  12.044  0.1546  1.5501 -0.0309
 2242TIP3    H228218   1.529   4.809  11.907  0.2922  0.3539 -0.4050
 2243TIP3   OH228219   3.357   6.031  11.799 -0.3221 -0.0721  0.1929
 2243TIP3    H128220   3.357   6.061  11.890 -1.9622  1.0884 -0.1552
 2243TIP3    H228221   3.324   6.106  11.750  0.2195 -0.8063 -1.3277
 2244TIP3   OH228222   2.514   2.755  16.351 -0.2457 -0.3253  0.5048
 2244TIP3    H128223   2.588   2.698  16.366 -0.2534 -0.2116  0.9738
 2244TIP3    H228224   2.526   2.828  16.412  1.0736  1.4387 -1.7613
 2245TIP3   OH228225   2.308   5.490   3.322  0.0044  0.1520  0.0518
 2245TIP3    H128226   2.339   5.448   3.402  0.4031  0.4897  0.0711
 2245TIP3    H228227   2.387   5.510   3.272 -0.2360  0.0156 -0.3945
 2246TIP3   OH228228   0.420   4.073  14.211  0.7975 -1.0567  0.4195
 2246TIP3    H128229   0.466   4.089  14.294  0.0640  2.2482  0.2640
 2246TIP3    H228230   0.376   4.156  14.192 -0.7085 -2.4162 -2.2582
 2247TIP3   OH228231   2.986   3.205   2.510  0.1167  0.0056  0.5559
 2247TIP3    H128232   3.005   3.294   2.540  0.4280 -0.1031  0.6823
 2247TIP3    H228233   3.066   3.177   2.464 -0.0919 -0.0959  0.2503
 2248TIP3   OH228234   2.486   4.250  14.428  0.3212  0.2280 -0.6842
 2248TIP3    H128235   2.408   4.288  14.388 -1.4117 -2.6245 -0.0982
 2248TIP3    H228236   2.508   4.175  14.373  2.0440  0.3823 -0.2389
 2249TIP3   OH228237   5.446   0.030  10.642  0.1587 -0.0417 -0.2355
 2249TIP3    H128238   5.413   0.015  10.731  0.8694  0.3473  0.0947
 2249TIP3    H228239   5.460   0.125  10.638  1.7087 -0.2566 -0.2095
 2250TIP3   OH228240   4.518   2.623  13.844 -0.2999 -0.3538  0.1050
 2250TIP3    H128241   4.475   2.559  13.901  1.9041 -0.9023  1.2110
 2250TIP3    H228242   4.525   2.579  13.759  0.4443 -1.2763  0.6309
 2251TIP3   OH228243   3.910   4.098   1.146  0.1838  0.5485 -0.5037
 2251TIP3    H128244   3.958   4.133   1.071  0.0721 -0.2469 -0.9515
 2251TIP3    H228245   3.820   4.126   1.132  0.1284  0.2432 -0.7654
 2252TIP3   OH228246   1.608   2.276   0.478 -0.6144 -0.1952 -0.1516
 2252TIP3    H128247   1.613   2.318   0.563  0.7462  0.7721 -0.6988
 2252TIP3    H228248   1.597   2.348   0.416 -0.2739 -0.7924 -0.9114
 2253TIP3   OH228249   6.078   1.870   4.077  0.1606  0.0923 -0.3345
 2253TIP3    H128250   6.115   1.837   3.994 -0.7510 -1.5787 -0.1032
 2253TIP3    H228251   6.041   1.955   4.055  1.7219  0.5716 -1.1866
 2254TIP3   OH228252   1.498   2.311   6.712 -0.3177  0.3687  0.5248
 2254TIP3    H128253   1.439   2.378   6.679  1.8576  2.5846  0.9998
 2254TIP3    H228254   1.485   2.310   6.806  0.9733  1.4315  0.7178
 2255TIP3   OH228255   4.104   4.442  13.965 -0.2967 -0.2551 -0.1301
 2255TIP3    H128256   4.056   4.425  14.046  1.8128 -0.8923  1.0367
 2255TIP3    H228257   4.184   4.487  13.994 -0.0238  0.4784 -1.9721
 2256TIP3   OH228258   4.504   0.069   2.134  0.1660  0.2206 -0.3702
 2256TIP3    H128259   4.482  -0.012   2.179 -1.5502  1.3517  0.8888
 2256TIP3    H228260   4.511   0.135   2.204  3.2375  0.8411 -1.1880
 2257TIP3   OH228261   4.145   6.630  13.997  0.1284 -0.5952  0.2446
 2257TIP3    H128262   4.093   6.611  13.919 -0.1498  0.3976  0.1944
 2257TIP3    H228263   4.082   6.628  14.069 -0.1430  1.4962  0.0765
 2258TIP3   OH228264   0.515   2.384   1.750 -0.1189 -0.5316  0.1519
 2258TIP3    H128265   0.480   2.420   1.669 -1.6948  1.0376  1.4758
 2258TIP3    H228266   0.583   2.446   1.777 -1.4690  0.4297  1.4136
 2259TIP3   OH228267   1.439   4.616  14.757 -0.5298  0.0581 -0.4831
 2259TIP3    H128268   1.474   4.677  14.692  0.7841  0.5002  0.5972
 2259TIP3    H228269   1.504   4.546  14.762 -1.4726 -0.8518 -0.8928
 2260TIP3   OH228270   0.437   3.454  13.489  0.6116 -0.0429  0.5900
 2260TIP3    H128271   0.391   3.417  13.564  0.2990  1.1358  0.9961
 2260TIP3    H228272   0.407   3.402  13.414 -0.5787  0.0305  1.0061
 2261TIP3   OH228273   5.271   1.705   3.844 -0.4457 -0.3929  0.1989
 2261TIP3    H128274   5.181   1.721   3.818 -0.2882 -0.4870 -0.3972
 2261TIP3    H228275   5.309   1.654   3.772  1.0316  2.4671 -1.1138
 2262TIP3   OH228276   0.791   5.983   5.675 -0.0661 -0.1071  0.2755
 2262TIP3    H128277   0.810   5.890   5.656  0.4881  0.1962 -0.7246
 2262TIP3    H228278   0.775   5.985   5.769  1.0153 -1.0469  0.4993
 2263TIP3   OH228279   5.839   0.518   5.161 -0.5578 -0.2952  0.6301
 2263TIP3    H128280   5.871   0.566   5.238 -0.4383  1.5086 -0.5236
 2263TIP3    H228281   5.917   0.475   5.126  0.3903  2.7003 -1.1684
 2264TIP3   OH228282   1.115   0.623  15.414  0.0315  0.2827 -0.4759
 2264TIP3    H128283   1.160   0.609  15.330 -1.9264 -1.9465 -1.2248
 2264TIP3    H228284   1.023   0.602  15.395 -0.4425 -0.2141  2.2223
 2265TIP3   OH228285   4.550   4.832  16.727  0.1622 -0.1792 -0.0867
 2265TIP3    H128286   4.627   4.781  16.702  0.8450  1.6873 -1.9454
 2265TIP3    H228287   4.479   4.769  16.729  2.0008 -2.3139  3.4495
 2266TIP3   OH228288   0.199   0.906   0.446  0.3632  0.5456 -0.5301
 2266TIP3    H128289   0.243   0.850   0.510  0.6588  0.5259 -0.7479
 2266TIP3    H228290   0.236   0.993   0.460  0.8968  0.4133 -1.1026
 2267TIP3   OH228291   3.535   0.642   3.192  0.1335 -0.3611  0.5370
 2267TIP3    H128292   3.439   0.649   3.186  0.1322 -0.8559 -0.0884
 2267TIP3    H228293   3.551   0.592   3.272 -0.1397 -0.4680  0.5256
 2268TIP3   OH228294   3.654   0.135   4.819 -0.1915  0.0163  0.6001
 2268TIP3    H128295   3.708   0.196   4.768  0.6667 -0.3458  1.0626
 2268TIP3    H228296   3.602   0.191   4.876  0.8916  0.3021  1.3141
 2269TIP3   OH228297   4.542   3.798  13.376 -0.2833  0.6501  0.5458
 2269TIP3    H128298   4.546   3.864  13.446 -1.7288 -0.2517  1.5216
 2269TIP3    H228299   4.561   3.847  13.296 -1.1856  2.2403  1.2567
 2270TIP3   OH228300   1.763   6.554  14.183 -0.7032  0.1439 -0.3800
 2270TIP3    H128301   1.799   6.630  14.137  1.1787  0.3345  1.3491
 2270TIP3    H228302   1.674   6.544  14.148 -0.2920  1.9706 -1.9941
 2271TIP3   OH228303   5.979   4.095   4.954 -0.0847 -0.4624 -0.2564
 2271TIP3    H128304   5.962   4.125   5.043  0.2304  0.3552 -0.4626
 2271TIP3    H228305   5.943   4.007   4.950 -0.4312 -0.3553  0.5715
 2272TIP3   OH228306   1.181   3.457   5.596 -0.1675 -0.1652 -0.1213
 2272TIP3    H128307   1.160   3.520   5.527  1.1319  1.1178  0.6303
 2272TIP3    H228308   1.132   3.487   5.672  1.9114  1.0373  0.7636
 2273TIP3   OH228309   1.993   4.601  13.528  0.2461 -0.5968 -0.2518
 2273TIP3    H128310   2.050   4.524  13.529 -1.0042 -1.5331  1.4635
 2273TIP3    H228311   1.968   4.614  13.619  0.9176  2.2388 -0.4263
 2274TIP3   OH228312   3.374   5.419   6.045 -0.4933  0.2984 -0.5809
 2274TIP3    H128313   3.442   5.352   6.053  0.9529  1.4916 -2.3905
 2274TIP3    H228314   3.397   5.486   6.109  0.3917  0.9646 -1.5710
 2275TIP3   OH228315   0.637   0.854   5.860  0.0685  0.0794  0.2808
 2275TIP3    H128316   0.573   0.871   5.928  1.3206 -0.5457  1.6491
 2275TIP3    H228317   0.586   0.846   5.780 -1.5187 -0.1134  1.2937
 2276TIP3   OH228318   4.669   2.799   3.079  0.1539 -0.0452  0.3974
 2276TIP3    H128319   4.581   2.812   3.046  0.4380  0.5543 -0.1271
 2276TIP3    H228320   4.701   2.721   3.033  0.6923  1.0127 -1.0677
 2277TIP3   OH228321   1.607   6.514  13.951 -0.1939  0.6748  0.8125
 2277TIP3    H128322   1.569   6.431  13.980 -0.4871  0.0249 -1.3662
 2277TIP3    H228323   1.560   6.536  13.871  1.3278  1.8668  0.2118
 2278TIP3   OH228324   6.150   5.840  14.815 -0.2765  0.2323  0.0037
 2278TIP3    H128325   6.130   5.932  14.832 -1.8936 -0.2628  0.8253
 2278TIP3    H228326   6.088   5.814  14.747  2.5745  0.7050 -2.9570
 2279TIP3   OH228327   3.731   6.128   5.439  0.3909  0.4602 -0.1512
 2279TIP3    H128328   3.728   6.078   5.358  1.7268 -0.0796  0.1170
 2279TIP3    H228329   3.640   6.151   5.457 -0.1935 -1.4809 -0.5186
 2280TIP3   OH228330   4.858   5.871   5.043  0.3763  0.2781 -0.0985
 2280TIP3    H128331   4.951   5.867   5.065  0.7918  0.6870 -1.7189
 2280TIP3    H228332   4.816   5.809   5.104  1.4244  1.5524  1.9414
 2281TIP3   OH228333   4.005   1.255   4.104 -0.9737  0.6977 -0.4427
 2281TIP3    H128334   3.984   1.349   4.102  1.3625  1.2497 -2.7164
 2281TIP3    H228335   4.055   1.241   4.023  0.9780 -1.9598  1.1660
 2282TIP3   OH228336   5.589   1.091  11.765  0.0063 -0.3047 -0.1453
 2282TIP3    H128337   5.658   1.149  11.798 -0.8363  0.2631  0.6188
 2282TIP3    H228338   5.636   1.012  11.738  1.0311  0.3095 -0.1983
 2283TIP3   OH228339   2.644   5.998  14.654 -0.2687 -0.5992 -0.0927
 2283TIP3    H128340   2.691   5.917  14.631 -0.9326 -0.7364 -0.9743
 2283TIP3    H228341   2.553   5.970  14.666 -0.5416  0.0652 -0.6225
 2284TIP3   OH228342   6.676   6.173  12.212 -0.6962  0.0483  0.0848
 2284TIP3    H128343   6.642   6.258  12.182 -1.5705  0.1921  1.4187
 2284TIP3    H228344   6.758   6.194  12.256 -0.6024  0.1271 -0.1281
 2285TIP3   OH228345   0.365   2.325   4.077  0.2379  0.4875 -0.0994
 2285TIP3    H128346   0.383   2.258   4.143  0.6382  0.1106 -0.5876
 2285TIP3    H228347   0.415   2.297   4.000 -0.0126  1.0662 -0.4758
 2286TIP3   OH228348   5.469   3.151   1.061  0.2181  0.2365  0.8718
 2286TIP3    H128349   5.462   3.246   1.056  0.0947  0.2621  1.4665
 2286TIP3    H228350   5.397   3.119   1.007  1.4369  0.4649 -0.9178
 2287TIP3   OH228351   6.241   0.700  12.707 -0.2989 -0.5798  0.5531
 2287TIP3    H128352   6.174   0.673  12.644 -0.4247 -0.8111  0.7916
 2287TIP3    H228353   6.205   0.678  12.792  0.3376 -1.2572  0.6484
 2288TIP3   OH228354   6.312   0.455   3.502  0.4453  0.2672 -0.0005
 2288TIP3    H128355   6.287   0.530   3.555  1.1180  0.7589 -0.3704
 2288TIP3    H228356   6.274   0.473   3.416  2.1236  1.0654 -0.5930
 2289TIP3   OH228357   5.364   2.345  15.273  0.4753 -0.0421  0.0995
 2289TIP3    H128358   5.279   2.378  15.303  0.8106  0.2594  0.7300
 2289TIP3    H228359   5.348   2.253  15.255  0.5232 -0.5201  2.3090
 2290TIP3   OH228360   3.486   2.947  16.839  0.0685  0.0972  0.1353
 2290TIP3    H128361   3.557   2.996  16.799 -0.1778  0.4198  0.0902
 2290TIP3    H228362   3.490   2.861  16.798 -0.8579  0.7572 -1.3796
 2291TIP3   OH228363   4.084   1.228  14.184 -0.1359 -0.0937  0.4743
 2291TIP3    H128364   4.155   1.248  14.124 -2.1706  0.2522 -1.9003
 2291TIP3    H228365   4.110   1.146  14.226  0.9174 -0.8641 -1.6053
 2292TIP3   OH228366   2.060   6.512  12.278 -0.1069 -0.2702 -0.2825
 2292TIP3    H128367   2.124   6.560  12.225  1.4031 -0.4993  1.2658
 2292TIP3    H228368   1.976   6.526  12.234  0.8390  0.9835 -1.7282
 2293TIP3   OH228369   1.550   4.799   1.823  0.2144 -0.4909 -0.2641
 2293TIP3    H128370   1.547   4.708   1.791 -0.0889  0.6165 -3.5585
 2293TIP3    H228371   1.624   4.838   1.777  0.4569  0.8926  1.2770
 2294TIP3   OH228372   6.019   1.754   2.404 -0.9783  0.7447  0.4915
 2294TIP3    H128373   6.109   1.724   2.397 -0.5374  1.9010  1.0721
 2294TIP3    H228374   5.991   1.767   2.313 -0.1159  1.6708  0.3539
 2295TIP3   OH228375   6.608   5.162  14.852  0.1964  0.0441  0.1771
 2295TIP3    H128376   6.521   5.128  14.873  0.0091 -0.4010 -1.3032
 2295TIP3    H228377   6.609   5.171  14.757  1.9035 -0.3078  0.1426
 2296TIP3   OH228378   6.566   6.754  13.038 -0.2746  0.2241  0.3657
 2296TIP3    H128379   6.571   6.672  13.088 -2.0293  0.6145  1.2222
 2296TIP3    H228380   6.616   6.736  12.958  0.1121 -1.3872  0.9437
 2297TIP3   OH228381   2.463   6.074   2.621  0.4191 -0.3257  0.4415
 2297TIP3    H128382   2.548   6.070   2.664  0.8795  0.4105 -0.3904
 2297TIP3    H228383   2.420   6.151   2.659  0.5777 -0.0345  0.0252
 2298TIP3   OH228384   5.751   5.987  13.856  0.4756 -0.1638  0.1277
 2298TIP3    H128385   5.657   5.978  13.837  0.5177 -0.7238  0.1837
 2298TIP3    H228386   5.754   6.012  13.948  0.3732  0.0944  0.0637
 2299TIP3   OH228387   5.823   3.853  14.241 -0.8910 -0.5100 -0.1231
 2299TIP3    H128388   5.905   3.826  14.282 -2.0677 -0.0587  2.7030
 2299TIP3    H228389   5.844   3.935  14.197  0.0860 -0.1576  0.9636
 2300TIP3   OH228390   1.032   0.629  13.576  0.4108 -0.0296 -0.0691
 2300TIP3    H128391   1.111   0.600  13.530  0.8197  0.2086  0.4785
 2300TIP3    H228392   1.055   0.714  13.612 -1.0968  1.4565 -2.4807
 2301TIP3   OH228393   0.394   3.522  15.158  0.5942 -0.4752  0.5395
 2301TIP3    H128394   0.432   3.500  15.073 -1.7585 -1.7298 -0.2084
 2301TIP3    H228395   0.301   3.507  15.148  0.1848  0.0585  3.1438
 2302TIP3   OH228396   5.181   3.584   6.363  0.5240 -0.1258 -0.1470
 2302TIP3    H128397   5.141   3.516   6.308  1.4671 -1.0007  0.2194
 2302TIP3    H228398   5.118   3.656   6.363  0.2977 -0.3195 -1.9579
 2303TIP3   OH228399   0.330   1.161  11.395  0.0054  0.1065  0.3687
 2303TIP3    H128400   0.298   1.224  11.460 -0.5761 -0.4218  0.5880
 2303TIP3    H228401   0.394   1.211  11.343 -0.5489  0.9188  0.4606
 2304TIP3   OH228402   0.606   2.874  11.160  0.1117 -0.0768  0.0152
 2304TIP3    H128403   0.542   2.860  11.090 -0.9890  0.4867  0.9130
 2304TIP3    H228404   0.650   2.789  11.169  0.0202 -0.2534 -1.1202
 2305TIP3   OH228405   3.652   3.218   1.098 -0.0768 -0.0415  0.1616
 2305TIP3    H128406   3.690   3.177   1.176 -2.0794  1.1881  1.8356
 2305TIP3    H228407   3.558   3.202   1.106 -0.2140 -0.9129 -2.6409
 2306TIP3   OH228408   3.887   6.112   1.500 -0.5301  0.1309  0.1561
 2306TIP3    H128409   3.850   6.044   1.555 -1.9580  0.7261 -0.0646
 2306TIP3    H228410   3.834   6.190   1.516  1.2311  1.2942  0.5996
 2307TIP3   OH228411   5.532   2.836  11.240 -0.6034  0.1123 -0.2367
 2307TIP3    H128412   5.563   2.916  11.282 -0.3913 -0.2901  0.3800
 2307TIP3    H228413   5.559   2.766  11.299  0.4469 -0.5297 -1.4464
 2308TIP3   OH228414   2.229   4.805   5.070 -0.0668 -0.5073  0.4752
 2308TIP3    H128415   2.190   4.867   5.008  0.5166 -0.5462  0.0646
 2308TIP3    H228416   2.283   4.748   5.015 -0.2773 -1.1199  0.9065
 2309TIP3   OH228417   6.813   1.462   0.955  0.5401  0.3419 -0.2618
 2309TIP3    H128418   6.774   1.375   0.947  2.0878 -0.2017 -2.3173
 2309TIP3    H228419   6.895   1.448   1.002  0.5708  0.7599 -0.1890
 2310TIP3   OH228420   0.626   4.047  14.032  0.7426  0.0466  0.0457
 2310TIP3    H128421   0.677   4.107  14.086 -0.7562 -0.5109  2.1884
 2310TIP3    H228422   0.542   4.041  14.078 -0.3353 -0.9812 -2.0316
 2311TIP3   OH228423   0.376   0.757  17.037  0.1472  0.1862  0.6012
 2311TIP3    H128424   0.467   0.785  17.028  0.0223  0.3565 -0.1081
 2311TIP3    H228425   0.325   0.826  16.994 -0.2892 -0.1566  0.5685
 2312TIP3   OH228426   5.035   6.604  16.086  0.0647  0.1261  0.6619
 2312TIP3    H128427   4.942   6.585  16.084 -0.1820  1.2111  1.3709
 2312TIP3    H228428   5.045   6.680  16.029  0.3569  0.6447  1.3981
 2313TIP3   OH228429   2.362   5.291   0.554  0.0530  0.2379 -0.5257
 2313TIP3    H128430   2.430   5.224   0.562 -0.0375  0.3574  1.7255
 2313TIP3    H228431   2.318   5.271   0.472 -0.6230 -3.0961  0.5653
 2314TIP3   OH228432   5.526   2.981  13.682  0.2242  0.2336  0.2151
 2314TIP3    H128433   5.596   2.931  13.725  1.7628  1.5078 -0.7208
 2314TIP3    H228434   5.513   3.057  13.739  0.8327  0.8723 -0.4704
 2315TIP3   OH228435   0.678   4.747   2.268 -0.1730 -0.5817 -0.4507
 2315TIP3    H128436   0.754   4.747   2.209  0.2985  1.6322  0.1065
 2315TIP3    H228437   0.691   4.671   2.324  1.8966  0.0126 -0.0724
 2316TIP3   OH228438   2.627   0.307  10.827 -0.1525  0.0244 -0.7382
 2316TIP3    H128439   2.548   0.305  10.880 -0.0614  1.8400 -0.5163
 2316TIP3    H228440   2.636   0.398  10.800  2.5247  0.1010  0.2578
 2317TIP3   OH228441   6.475   4.453  11.359  0.5269 -0.2695  0.8696
 2317TIP3    H128442   6.550   4.503  11.391  0.7008 -0.3940  0.6570
 2317TIP3    H228443   6.466   4.381  11.420  1.5582 -1.1543  0.0106
 2318TIP3   OH228444   2.548   2.492   2.334  0.6580  0.4794  0.0689
 2318TIP3    H128445   2.479   2.428   2.355  0.4994  0.4787 -0.4475
 2318TIP3    H228446   2.523   2.526   2.248  2.3925 -0.9812 -1.0456
 2319TIP3   OH228447   6.432   0.220  17.074  0.0744  0.8641 -0.2570
 2319TIP3    H128448   6.367   0.268  17.022 -0.2220 -0.6081 -1.2492
 2319TIP3    H228449   6.469   0.156  17.014  0.6787  0.0219  0.9883
 2320TIP3   OH228450   1.943   6.325  14.540 -0.1719 -0.4540  0.4644
 2320TIP3    H128451   1.956   6.342  14.447  0.6015  1.2727  0.8476
 2320TIP3    H228452   1.886   6.249  14.544 -0.3005 -0.4702 -1.4174
 2321TIP3   OH228453   0.440   1.032  17.240 -0.1081 -0.5078 -0.5169
 2321TIP3    H128454   0.354   1.002  17.211 -0.5716 -0.2574  0.5918
 2321TIP3    H228455   0.458   1.110  17.187 -0.7957 -0.2594 -0.3900
 2322TIP3   OH228456   0.899   3.041  14.324 -0.4004 -0.4345  0.0053
 2322TIP3    H128457   0.852   2.964  14.290 -1.4375 -0.1893  0.8619
 2322TIP3    H228458   0.986   3.008  14.345 -0.3917 -1.0509 -0.9764
 2323TIP3   OH228459   0.260   0.671   3.684  0.2550  0.0297  0.0611
 2323TIP3    H128460   0.351   0.654   3.707  0.0492 -0.6418  0.3624
 2323TIP3    H228461   0.246   0.622   3.603  0.6806  1.5757 -0.9835
 2324TIP3   OH228462   1.284   0.003   4.357 -0.4295  0.4216  0.1104
 2324TIP3    H128463   1.370   0.042   4.342 -0.0932 -0.3381  0.0092
 2324TIP3    H228464   1.290  -0.035   4.444 -0.0552 -1.1688 -0.5852
 2325TIP3   OH228465   3.010   1.566  15.224  0.4561  0.0610  0.3017
 2325TIP3    H128466   3.078   1.499  15.235  1.3723  0.7651 -0.8669
 2325TIP3    H228467   3.052   1.647  15.253 -0.8735  0.0460  2.3654
 2326TIP3   OH228468   3.852   3.607   3.044  0.0505  0.1017  0.7871
 2326TIP3    H128469   3.794   3.655   3.103 -2.0965 -0.1831 -1.0082
 2326TIP3    H228470   3.794   3.549   2.994  1.5783  1.2754 -2.5320
 2327TIP3   OH228471   4.064   4.952   4.993  0.6103 -0.4264 -0.6392
 2327TIP3    H128472   4.094   5.037   4.960 -0.8483  0.2326 -0.2847
 2327TIP3    H228473   4.074   4.892   4.919  2.0331 -0.0460 -0.7700
 2328TIP3   OH228474   0.677   5.804  15.750  0.7550  0.1373 -0.0034
 2328TIP3    H128475   0.745   5.825  15.686  0.8940  1.4141  0.5657
 2328TIP3    H228476   0.596   5.802  15.698  0.8753  1.1174 -0.2289
 2329TIP3   OH228477   0.454   0.707   0.195 -0.0342 -0.1708 -0.0907
 2329TIP3    H128478   0.479   0.615   0.205  0.6419 -0.0105 -0.2696
 2329TIP3    H228479   0.368   0.703   0.154 -1.0512 -0.7563  2.0616
 2330TIP3   OH228480   0.617   3.918   4.826  0.2356  0.2342 -0.5390
 2330TIP3    H128481   0.700   3.872   4.810 -0.1879 -0.6135 -0.3337
 2330TIP3    H228482   0.552   3.866   4.781 -0.2741  0.5683 -0.1932
 2331TIP3   OH228483   0.211   2.141  14.759 -0.0983 -0.0729 -0.1047
 2331TIP3    H128484   0.173   2.056  14.781 -1.3963  0.0831 -1.6017
 2331TIP3    H228485   0.153   2.175  14.691  1.9798  0.8059 -1.4665
 2332TIP3   OH228486   0.989   4.348   2.233 -0.4577 -0.6077 -0.0090
 2332TIP3    H128487   0.971   4.360   2.140  0.4886  2.3126  0.1328
 2332TIP3    H228488   1.074   4.389   2.247 -1.1847  0.1839  2.3826
 2333TIP3   OH228489   0.389   3.955   5.796  0.0400 -0.2883  0.1481
 2333TIP3    H128490   0.331   3.977   5.723 -0.2282  1.2354  0.7974
 2333TIP3    H228491   0.418   4.040   5.830 -0.5150 -0.9302  2.3382
 2334TIP3   OH228492   5.275   5.599  11.392 -0.5924  0.3029 -0.3204
 2334TIP3    H128493   5.371   5.602  11.391 -0.6070  0.7023 -0.6614
 2334TIP3    H228494   5.254   5.505  11.394 -0.2155  0.1465 -2.7141
 2335TIP3   OH228495   0.347   1.742  14.314  0.0677  0.3135  0.1989
 2335TIP3    H128496   0.328   1.830  14.280 -0.0034  0.4366  0.5609
 2335TIP3    H228497   0.416   1.756  14.379 -0.6235  0.2210  0.9550
 2336TIP3   OH228498   3.899   3.799   0.359  0.0216  0.1328  0.7700
 2336TIP3    H128499   3.805   3.792   0.339  0.0094 -1.8398  1.3853
 2336TIP3    H228500   3.938   3.831   0.278 -1.3603  2.4699  0.9673
 2337TIP3   OH228501   3.437   4.389  14.805  0.5610  0.1116  0.2784
 2337TIP3    H128502   3.494   4.450  14.853  0.8284 -0.7639  1.0834
 2337TIP3    H228503   3.498   4.334  14.756  0.3514  0.0835  0.0539
 2338TIP3   OH228504   4.328   4.810   5.165 -0.2267  0.7745  0.4071
 2338TIP3    H128505   4.266   4.763   5.109  0.0799  1.0534 -0.1768
 2338TIP3    H228506   4.393   4.845   5.104  1.9501 -1.6554  1.2247
 2339TIP3   OH228507   4.246   2.915   5.808 -0.2421 -0.4566  0.2405
 2339TIP3    H128508   4.261   2.820   5.808 -1.5659 -0.6882 -2.0459
 2339TIP3    H228509   4.151   2.924   5.799  0.0905  1.1053 -1.9755
 2340TIP3   OH228510   5.807   3.475  15.007  0.1180  0.6039 -0.0974
 2340TIP3    H128511   5.750   3.488  14.931  0.2796 -3.3205 -0.9694
 2340TIP3    H228512   5.868   3.548  15.003 -0.9296  1.4053 -2.7551
 2341TIP3   OH228513   5.747   4.193  16.156  0.7150 -0.2732 -0.2554
 2341TIP3    H128514   5.744   4.220  16.064  0.2988 -2.0829 -0.7966
 2341TIP3    H228515   5.655   4.185  16.181  0.8117  1.3646  0.6890
 2342TIP3   OH228516   0.043   6.360  16.968  1.0496  0.3921  0.2408
 2342TIP3    H128517   0.018   6.359  17.060  1.3444 -0.7308  0.3155
 2342TIP3    H228518   0.139   6.360  16.969  1.0537 -0.2181 -0.0689
 2343TIP3   OH228519   0.815   5.137  16.078  0.5621  0.0090 -0.5312
 2343TIP3    H128520   0.890   5.088  16.112  1.0327  1.4761  0.5907
 2343TIP3    H228521   0.739   5.090  16.110  1.0087  0.2230  0.8863
 2344TIP3   OH228522   5.490   1.991  14.078 -0.1498 -0.1899 -0.2172
 2344TIP3    H128523   5.552   1.968  14.146 -0.1159 -0.5568 -0.3691
 2344TIP3    H228524   5.538   2.049  14.019 -0.1089 -0.0596 -0.0551
 2345TIP3   OH228525   1.692   4.388   5.993 -0.0190  0.2844 -0.0944
 2345TIP3    H128526   1.752   4.432   6.054  1.2034 -0.7654 -0.5258
 2345TIP3    H228527   1.669   4.307   6.037  1.6071 -0.9192 -1.3948
 2346TIP3   OH228528   5.524   4.122  14.109 -0.2760  0.5646 -0.0494
 2346TIP3    H128529   5.564   4.130  14.022 -0.3581 -1.0628 -0.2550
 2346TIP3    H228530   5.541   4.032  14.135 -1.3503  0.6754  1.0828
 2347TIP3   OH228531   4.145   1.935  13.157  0.1613 -0.1654  0.1953
 2347TIP3    H128532   4.174   1.906  13.071 -0.4287 -0.7434  0.1832
 2347TIP3    H228533   4.153   1.858  13.212  0.4779  0.1862  0.6448
 2348TIP3   OH228534   6.445   3.923  12.165  0.4388  0.3639  0.2527
 2348TIP3    H128535   6.360   3.909  12.123 -0.4071  0.6471  1.8595
 2348TIP3    H228536   6.425   3.964  12.248  1.8722 -2.6289  2.1775
 2349TIP3   OH228537   2.990   5.223  13.968 -0.7315 -0.2059  0.1587
 2349TIP3    H128538   2.895   5.227  13.956 -0.4857 -0.6863 -2.2740
 2349TIP3    H228539   3.002   5.198  14.060 -2.9884 -1.5509  0.1306
 2350TIP3   OH228540   1.211   3.731   0.214 -0.0591 -0.1004 -0.0349
 2350TIP3    H128541   1.236   3.665   0.279  1.8277  1.4219  0.8318
 2350TIP3    H228542   1.158   3.794   0.262 -0.2573  0.0188 -0.4101
 2351TIP3   OH228543   4.200   1.733  11.360 -0.2991 -0.0253 -0.7985
 2351TIP3    H128544   4.187   1.711  11.452 -2.2050  0.9355 -0.8123
 2351TIP3    H228545   4.295   1.740  11.350 -0.0393 -0.8215  0.9215
 2352TIP3   OH228546   1.582   4.486   2.862  0.2546 -0.6120  0.5340
 2352TIP3    H128547   1.507   4.428   2.865 -0.1553 -0.1114  0.0807
 2352TIP3    H228548   1.622   4.478   2.949 -1.8516  1.1089  1.7126
 2353TIP3   OH228549   5.770   5.610  11.146 -0.0154  0.3818 -0.6650
 2353TIP3    H128550   5.789   5.658  11.226 -0.8432  0.2356 -0.3837
 2353TIP3    H228551   5.770   5.518  11.172  0.6436  0.2731 -1.0224
 2354TIP3   OH228552   3.762   4.710   5.143  0.4583 -0.0544 -0.0075
 2354TIP3    H128553   3.784   4.760   5.222  0.5858 -0.6249  0.3186
 2354TIP3    H228554   3.681   4.664   5.165  1.1967 -1.2539  0.2576
 2355TIP3   OH228555   4.727   5.953  12.658 -0.6038  0.9598  0.4993
 2355TIP3    H128556   4.771   5.868  12.663 -2.0690  0.2426  1.5606
 2355TIP3    H228557   4.799   6.017  12.662  0.4281 -0.2053  1.0330
 2356TIP3   OH228558   0.672   5.955   2.356 -0.1619 -0.1395 -0.2892
 2356TIP3    H128559   0.728   5.957   2.279 -0.5777  0.3147 -0.5797
 2356TIP3    H228560   0.591   5.998   2.329 -0.2260  0.2349  0.4651
 2357TIP3   OH228561   6.226   4.473   6.132  0.1676  0.3951  0.1727
 2357TIP3    H128562   6.170   4.545   6.102 -0.0809 -0.2989 -1.0604
 2357TIP3    H228563   6.189   4.447   6.217 -0.1617  1.2567  0.2912
 2358TIP3   OH228564   0.206   5.552   5.190  0.3522  0.2969  0.4239
 2358TIP3    H128565   0.188   5.607   5.114 -1.9714  0.5887  1.1560
 2358TIP3    H228566   0.188   5.607   5.266  3.7831  0.3903  1.2811
 2359TIP3   OH228567   3.092   0.767   4.019  0.2146  0.0061 -0.1200
 2359TIP3    H128568   3.168   0.821   3.997  0.5576 -0.0204  1.0021
 2359TIP3    H228569   3.109   0.683   3.976  0.0279  0.5302 -1.2463
 2360TIP3   OH228570   4.032   2.042  13.922 -0.0781  0.5825  0.4382
 2360TIP3    H128571   4.103   1.987  13.956 -0.1095  0.1102 -0.2576
 2360TIP3    H228572   3.956   2.018  13.975 -0.2766 -0.6070 -0.3710
 2361TIP3   OH228573   6.029   0.986   3.420 -0.7090  0.2173 -0.2816
 2361TIP3    H128574   6.006   1.005   3.329 -0.9528 -2.5849 -0.8451
 2361TIP3    H228575   6.021   0.891   3.427  0.6133  0.2672  2.3158
 2362TIP3   OH228576   4.891   1.968  15.622  0.0319 -0.1411 -0.5391
 2362TIP3    H128577   4.944   1.928  15.690 -0.6203 -1.1842 -0.6247
 2362TIP3    H228578   4.897   1.907  15.548  0.6132  0.9029 -1.3620
 2363TIP3   OH228579   3.695   0.190   6.372 -0.0335 -0.0756  0.1274
 2363TIP3    H128580   3.669   0.257   6.309 -0.1202 -2.1930 -2.1513
 2363TIP3    H228581   3.653   0.110   6.341  1.1647 -1.4750  2.0248
 2364TIP3   OH228582   2.561   0.016   4.334 -0.3426  0.3998  0.4905
 2364TIP3    H128583   2.549  -0.078   4.318  0.9111  0.5021 -1.2075
 2364TIP3    H228584   2.473   0.052   4.336 -0.7662 -0.5407 -0.7158
 2365TIP3   OH228585   2.619   2.492   3.398 -0.0154  0.7636 -0.4346
 2365TIP3    H128586   2.668   2.572   3.382 -0.8043  0.8654 -2.4058
 2365TIP3    H228587   2.583   2.503   3.486  0.6962  2.1408 -0.3140
 2366TIP3   OH228588   3.896   4.827   1.024 -0.3574  0.0633 -0.2319
 2366TIP3    H128589   3.906   4.885   1.099 -0.8850  0.8274 -0.7480
 2366TIP3    H228590   3.966   4.852   0.964 -1.0146  0.6598 -0.7639
 2367TIP3   OH228591   0.261   1.549   3.461  0.4306  0.2949  0.1879
 2367TIP3    H128592   0.328   1.601   3.417  0.3616 -0.2089 -0.5225
 2367TIP3    H228593   0.213   1.505   3.390 -0.5053  0.4679  0.6945
 2368TIP3   OH228594   3.144   4.763   5.265  0.1113 -0.4639  0.2384
 2368TIP3    H128595   3.096   4.718   5.335  0.9285 -0.0689  1.0627
 2368TIP3    H228596   3.215   4.702   5.242 -0.0810 -0.5382 -0.1482
 2369TIP3   OH228597   2.960   5.714  15.257 -0.0532  0.3801  0.3011
 2369TIP3    H128598   3.006   5.657  15.319 -0.4850  1.1014  1.2884
 2369TIP3    H228599   2.868   5.704  15.279 -0.3592 -0.7792 -1.4411
 2370TIP3   OH228600   0.022   3.885  13.588 -0.1348 -0.2788 -0.9177
 2370TIP3    H128601  -0.007   3.826  13.518  1.5139 -2.8908  0.5103
 2370TIP3    H228602  -0.053   3.890  13.647 -0.4749 -0.5192 -1.3208
 2371TIP3   OH228603   3.106   3.291   0.935 -0.2383 -0.1831 -0.8946
 2371TIP3    H128604   3.021   3.268   0.974 -0.3594  0.7203 -0.6025
 2371TIP3    H228605   3.159   3.213   0.946 -1.4125 -1.1973 -2.1963
 2372TIP3   OH228606   5.156   5.171   5.325 -0.2925  0.3088  0.3217
 2372TIP3    H128607   5.166   5.253   5.277  0.7526  0.1484  0.2367
 2372TIP3    H228608   5.094   5.191   5.395 -0.1285  1.1422  0.2301
 2373TIP3   OH228609   2.581   0.945   2.383  0.3892 -0.2987 -0.1448
 2373TIP3    H128610   2.529   0.873   2.419  0.8881  0.2600  1.7518
 2373TIP3    H228611   2.668   0.907   2.369  0.6452 -0.0874  0.8307
 2374TIP3   OH228612   2.506   6.666  16.762  0.8956  0.1696 -0.0739
 2374TIP3    H128613   2.521   6.605  16.835 -0.9300 -1.2109 -0.8069
 2374TIP3    H228614   2.410   6.668  16.752  1.0671  1.3306 -1.6040
 2375TIP3   OH228615   3.375   5.360  15.541  0.6563 -0.0808  0.0972
 2375TIP3    H128616   3.442   5.294  15.523 -0.5192 -1.3757  0.3268
 2375TIP3    H228617   3.371   5.413  15.461 -1.0751 -2.7261 -1.6498
 2376TIP3   OH228618   4.401   5.777  13.650 -0.2073 -0.2710  0.1141
 2376TIP3    H128619   4.374   5.780  13.742  0.5021  0.0955  0.3193
 2376TIP3    H228620   4.321   5.756  13.602 -0.9534  1.2485  0.6480
 2377TIP3   OH228621   0.055   2.807  14.650 -0.0621 -0.1778 -0.0151
 2377TIP3    H128622   0.001   2.870  14.698 -0.9116 -0.5385 -0.4791
 2377TIP3    H228623   0.107   2.764  14.718 -0.6371 -0.0930  0.4942
 2378TIP3   OH228624   6.333   6.030  13.743 -0.1734  0.4727  0.4299
 2378TIP3    H128625   6.366   5.948  13.780  0.4371  0.4428 -0.1570
 2378TIP3    H228626   6.355   6.024  13.650 -0.5548  1.0960  0.2976
 2379TIP3   OH228627   1.126   3.497  13.110 -0.1833 -0.9630 -0.3701
 2379TIP3    H128628   1.057   3.559  13.132  1.8724  1.4427 -0.4762
 2379TIP3    H228629   1.156   3.463  13.194 -1.1083 -1.5978 -0.2945
 2380TIP3   OH228630   3.174   1.499   0.430  0.1803 -1.0050 -0.1783
 2380TIP3    H128631   3.244   1.529   0.487 -1.5959 -0.0461  1.5549
 2380TIP3    H228632   3.099   1.488   0.488 -2.0124  1.1454 -2.4937
 2381TIP3   OH228633   4.986   3.507   0.835  0.5166 -0.1102 -0.1673
 2381TIP3    H128634   5.046   3.546   0.899  0.8559 -1.0329  0.0876
 2381TIP3    H228635   5.011   3.545   0.751 -0.5046  1.7807  0.3674
 2382TIP3   OH228636   0.223   6.464  14.261  0.1311  0.0790 -0.1214
 2382TIP3    H128637   0.233   6.524  14.186  4.3685 -2.0031 -1.3847
 2382TIP3    H228638   0.196   6.381  14.222 -1.0028 -0.1456  1.1042
 2383TIP3   OH228639   0.775   1.297  17.098 -0.1813 -0.3161  0.3836
 2383TIP3    H128640   0.790   1.222  17.041 -0.8713 -0.7193  0.7281
 2383TIP3    H228641   0.863   1.330  17.117  0.0409  0.0731 -1.2220
 2384TIP3   OH228642   5.183   6.315   4.740 -0.4861  0.3745  0.1201
 2384TIP3    H128643   5.145   6.244   4.688 -2.1050  1.4245 -0.1769
 2384TIP3    H228644   5.214   6.379   4.676  0.6437  0.1041  0.3915
 2385TIP3   OH228645   6.743   4.263  15.245  0.5393  0.7591  0.1829
 2385TIP3    H128646   6.661   4.308  15.224  0.3310 -0.1901 -1.1038
 2385TIP3    H228647   6.811   4.314  15.202  0.7883  2.2096  2.2006
 2386TIP3   OH228648   1.116   0.527   5.094 -0.3909  0.3784  0.0845
 2386TIP3    H128649   1.172   0.497   5.165  1.9469  3.6206 -0.2562
 2386TIP3    H228650   1.028   0.529   5.132  0.2452 -1.3994  1.7366
 2387TIP3   OH228651   3.148   6.565   3.291  0.2582  0.4468 -0.2201
 2387TIP3    H128652   3.092   6.545   3.216  1.7105  0.5577 -1.3387
 2387TIP3    H228653   3.155   6.660   3.292 -0.4284  0.5003  0.5643
 2388TIP3   OH228654   1.685   1.695  15.011 -0.6970  0.0857 -0.1571
 2388TIP3    H128655   1.774   1.664  14.998 -0.4628  0.7010 -0.0834
 2388TIP3    H228656   1.696   1.783  15.049 -1.3347 -0.2743  0.8903
 2389TIP3   OH228657   6.516   0.727  10.722 -0.6243  0.4037 -0.0402
 2389TIP3    H128658   6.423   0.740  10.704 -1.2304 -2.7615  0.4956
 2389TIP3    H228659   6.519   0.690  10.811  1.3140  2.3579  0.7637
 2390TIP3   OH228660   2.107   5.190  11.838 -0.2166 -0.2415 -0.0357
 2390TIP3    H128661   2.168   5.178  11.765  0.5871  0.4323  0.5231
 2390TIP3    H228662   2.082   5.100  11.862  0.7854 -0.5387 -0.0734
 2391TIP3   OH228663   4.695   1.747   1.684 -0.1145  0.3047  0.5322
 2391TIP3    H128664   4.671   1.710   1.769 -0.3336  0.3061  0.4718
 2391TIP3    H228665   4.612   1.757   1.638  0.0982 -0.6019 -0.0505
 2392TIP3   OH228666   4.095   3.170  11.320  0.9491 -0.8793 -0.0681
 2392TIP3    H128667   4.042   3.109  11.372 -0.4040 -0.6437 -1.1594
 2392TIP3    H228668   4.111   3.244  11.379  1.1704 -1.5278  0.6978
 2393TIP3   OH228669   2.068   6.154   3.284  0.2886  0.7976  0.2029
 2393TIP3    H128670   2.019   6.112   3.355  0.7122  0.3679  0.2440
 2393TIP3    H228671   2.053   6.248   3.297 -0.2170  0.6880  0.4360
 2394TIP3   OH228672   3.995   2.859   3.064  0.2316  0.8236 -0.1771
 2394TIP3    H128673   4.078   2.830   3.102 -0.2256 -1.0891 -0.5449
 2394TIP3    H228674   3.931   2.845   3.133  0.0410  1.1651 -0.2878
 2395TIP3   OH228675   0.531   1.352  14.248 -0.1146 -0.3264 -0.5918
 2395TIP3    H128676   0.466   1.386  14.310  0.0933 -0.5518 -0.2482
 2395TIP3    H228677   0.490   1.363  14.162 -0.1150  0.6623 -0.4760
 2396TIP3   OH228678   6.059   3.841   4.830  0.2262 -0.4026 -0.3444
 2396TIP3    H128679   6.104   3.757   4.823 -0.9004 -0.9208 -1.5519
 2396TIP3    H228680   6.022   3.856   4.743  0.1140  1.1726 -0.0456
 2397TIP3   OH228681   6.079   4.128  12.983 -0.2826 -0.3747 -0.5262
 2397TIP3    H128682   6.039   4.101  12.900 -0.0304 -0.2114 -0.7032
 2397TIP3    H228683   6.115   4.215  12.965 -0.0718 -0.4148 -0.2965
 2398TIP3   OH228684   3.950   1.927   4.979  0.0645  0.3148  0.1758
 2398TIP3    H128685   3.935   1.953   4.888  2.6540  1.1610 -0.0555
 2398TIP3    H228686   3.943   1.832   4.979  0.6620  0.2601 -1.0467
 2399TIP3   OH228687   6.541   6.013   4.519 -0.3670 -0.5071 -0.2963
 2399TIP3    H128688   6.632   6.002   4.493 -0.4424 -0.0642 -0.7575
 2399TIP3    H228689   6.493   5.950   4.466 -0.5994  0.8546 -1.7237
 2400TIP3   OH228690   5.466   2.339   5.594 -0.0519 -0.4993  0.3602
 2400TIP3    H128691   5.381   2.304   5.567 -0.5009 -0.2785  1.4436
 2400TIP3    H228692   5.526   2.265   5.588 -0.2338 -0.5709 -0.7614
 2401TIP3   OH228693   6.767   2.526   0.906 -0.8102  0.7610  0.6961
 2401TIP3    H128694   6.681   2.497   0.876 -0.5386 -1.3745  1.8207
 2401TIP3    H228695   6.771   2.500   0.998  0.7690  1.4604  0.8564
 2402TIP3   OH228696   5.419   5.509   2.272 -0.1263  0.2701 -0.4089
 2402TIP3    H128697   5.497   5.500   2.217  1.0167  1.6600  0.9317
 2402TIP3    H228698   5.434   5.450   2.345 -0.3345  0.5172 -0.1647
 2403TIP3   OH228699   3.396   5.108   0.739  0.0326 -0.0247  0.2438
 2403TIP3    H128700   3.394   5.201   0.762  0.0046  0.1743 -0.5256
 2403TIP3    H228701   3.454   5.104   0.663  1.4327 -0.8835  1.3378
 2404TIP3   OH228702   2.287   2.000   6.423  0.2382 -0.0502 -0.5217
 2404TIP3    H128703   2.368   2.033   6.461  0.0546 -1.4299  1.1349
 2404TIP3    H228704   2.218   2.039   6.476 -0.1549  0.3749 -1.3373
 2405TIP3   OH228705   5.515   0.989  16.201  0.7299 -0.3821 -0.1936
 2405TIP3    H128706   5.550   0.942  16.125  0.4532 -0.3528 -0.3346
 2405TIP3    H228707   5.559   0.947  16.276 -0.4617 -1.7331 -0.2260
 2406TIP3   OH228708   2.034   4.768   1.627  0.6618  0.2293 -0.2681
 2406TIP3    H128709   1.952   4.811   1.651  1.4976  0.5894  2.1106
 2406TIP3    H228710   2.014   4.674   1.629  0.3985  0.2989  0.7544
 2407TIP3   OH228711   1.187   3.568  16.358 -0.0187 -0.3657  0.1249
 2407TIP3    H128712   1.282   3.579  16.360 -0.2234  1.3142  1.7114
 2407TIP3    H228713   1.162   3.597  16.270  0.6146  2.4407  0.8161
 2408TIP3   OH228714   0.225   3.768   1.496 -0.2085  0.4731  0.1625
 2408TIP3    H128715   0.252   3.701   1.432  1.0394  0.8483  0.2816
 2408TIP3    H228716   0.271   3.847   1.468  0.3859  0.6273  1.5693
 2409TIP3   OH228717   5.838   1.625  12.711 -0.0055 -0.2941 -0.0915
 2409TIP3    H128718   5.771   1.686  12.743  0.1090 -1.5877  2.7958
 2409TIP3    H228719   5.808   1.599  12.624 -2.3950  0.4516  0.4876
 2410TIP3   OH228720   3.482   1.020  11.400 -0.1079  0.0354  0.0712
 2410TIP3    H128721   3.418   1.049  11.465 -1.0918 -0.0351 -0.8504
 2410TIP3    H228722   3.499   1.097  11.347  0.0230 -0.1326 -0.1312
 2411TIP3   OH228723   4.022   5.888   6.307 -0.0944 -0.1336 -0.0447
 2411TIP3    H128724   4.053   5.976   6.283 -0.9568  0.1319 -0.1898
 2411TIP3    H228725   3.978   5.900   6.391 -1.3705 -0.1863 -0.7001
 2412TIP3   OH228726   3.440   5.031   6.281  0.0561  0.3894  1.5008
 2412TIP3    H128727   3.385   5.109   6.284 -0.8590 -0.1612 -0.3102
 2412TIP3    H228728   3.402   4.972   6.347 -1.2896  0.1692  0.5392
 2413TIP3   OH228729   1.441   5.434   3.777  0.0799 -0.5614 -0.2505
 2413TIP3    H128730   1.372   5.389   3.826  0.3071  1.2658  1.8410
 2413TIP3    H228731   1.406   5.521   3.760  1.1365 -0.2410 -0.8456
 2414TIP3   OH228732   0.526   5.581   0.511  0.5157  0.1149  0.1118
 2414TIP3    H128733   0.498   5.561   0.600 -0.0988  1.8925  0.3348
 2414TIP3    H228734   0.611   5.538   0.503  0.2347 -0.6972  1.2880
 2415TIP3   OH228735   4.481   3.592   3.533  0.0775 -0.5343 -0.1325
 2415TIP3    H128736   4.429   3.582   3.454  1.5135 -0.0963 -1.1503
 2415TIP3    H228737   4.469   3.684   3.559 -0.0110 -0.5524 -0.1096
 2416TIP3   OH228738   4.364   5.218   2.878  0.2970  0.3122 -0.0955
 2416TIP3    H128739   4.382   5.134   2.921  1.0349  0.2158 -0.5777
 2416TIP3    H228740   4.339   5.193   2.789  0.0649  0.5797 -0.1040
 2417TIP3   OH228741   6.552   2.400  17.265 -0.6922 -0.2844  0.7874
 2417TIP3    H128742   6.599   2.481  17.283 -0.9854  0.1740 -0.4816
 2417TIP3    H228743   6.466   2.412  17.305  0.2741 -1.1718  3.2160
 2418TIP3   OH228744   0.352   2.474   1.531 -0.5297 -0.4187  0.3028
 2418TIP3    H128745   0.338   2.563   1.562  1.3733  0.4061 -1.1616
 2418TIP3    H228746   0.263   2.439   1.518 -1.2964  1.9493 -1.0904
 2419TIP3   OH228747   1.870   3.872  12.728  0.2079 -0.3349  0.2163
 2419TIP3    H128748   1.934   3.804  12.743  0.7501  0.1929  0.3055
 2419TIP3    H228749   1.817   3.874  12.808 -0.6610 -1.5575 -0.3144
 2420TIP3   OH228750   4.549   0.202  11.646 -0.2055  0.0601 -0.7574
 2420TIP3    H128751   4.542   0.256  11.567  1.8096  1.8167  0.2008
 2420TIP3    H228752   4.627   0.149  11.632  2.2694  2.9315  1.4517
 2421TIP3   OH228753   1.353   1.080   0.900 -0.1814  0.1561 -0.4047
 2421TIP3    H128754   1.398   1.119   0.975  0.9715 -0.2270 -0.8879
 2421TIP3    H228755   1.282   1.028   0.939  0.2995  0.0969  0.4019
 2422TIP3   OH228756   6.214   1.918  13.190  0.3587  0.2271 -0.0349
 2422TIP3    H128757   6.240   1.993  13.244  1.4554  0.0076 -0.2615
 2422TIP3    H228758   6.269   1.846  13.220 -0.2704 -0.3490 -0.2351
 2423TIP3   OH228759   6.609   0.326  13.707 -0.4516 -0.5419 -0.3825
 2423TIP3    H128760   6.614   0.307  13.613  2.2818 -0.3110 -0.3076
 2423TIP3    H228761   6.642   0.416  13.715 -2.2542  0.0513  0.6297
 2424TIP3   OH228762   2.109   4.722   4.239 -0.3958  0.4254  0.0417
 2424TIP3    H128763   2.089   4.806   4.198  1.3901 -0.0892 -1.9549
 2424TIP3    H228764   2.186   4.740   4.294 -0.9152  0.4111  0.7863
 2425TIP3   OH228765   2.568   5.861  16.814 -0.5375 -0.8021  0.5607
 2425TIP3    H128766   2.603   5.773  16.828 -0.5792 -0.9205 -0.0819
 2425TIP3    H228767   2.482   5.846  16.774  0.1870 -0.4316 -1.1703
 2426TIP3   OH228768   3.353   2.089  16.931 -0.4354  0.0751 -0.3242
 2426TIP3    H128769   3.268   2.044  16.937  0.2290 -1.2954 -1.0958
 2426TIP3    H228770   3.330   2.182  16.936 -2.0856 -0.2392 -1.5711
 2427TIP3   OH228771   1.867   2.200   0.686  0.1693 -0.1813 -0.3159
 2427TIP3    H128772   1.929   2.213   0.615 -0.0659  0.3084 -0.4327
 2427TIP3    H228773   1.815   2.280   0.688  0.4911  0.0118  0.7191
 2428TIP3   OH228774   5.381   5.326   4.818 -0.1535  0.0504 -0.0193
 2428TIP3    H128775   5.418   5.311   4.905 -0.3141 -0.5486 -0.0526
 2428TIP3    H228776   5.366   5.420   4.815  1.3549  0.2936 -0.0004
 2429TIP3   OH228777   3.938   6.764  15.499 -0.1536  0.2730 -0.1486
 2429TIP3    H128778   3.942   6.731  15.589 -1.7627  1.4814  0.3919
 2429TIP3    H228779   3.896   6.694  15.449  1.5771 -0.7749 -0.1582
 2430TIP3   OH228780   6.224   2.524  11.948  0.6547  0.1681  0.1754
 2430TIP3    H128781   6.173   2.486  11.876 -0.5060 -0.0049  1.0703
 2430TIP3    H228782   6.240   2.450  12.008  0.3864  0.5943  0.7803
 2431TIP3   OH228783   6.572   1.156  15.223 -0.2374 -0.3763 -0.2017
 2431TIP3    H128784   6.659   1.195  15.211 -0.0658 -1.0645 -1.3985
 2431TIP3    H228785   6.538   1.196  15.302  0.6978  0.7841 -0.3629
 2432TIP3   OH228786   5.462   3.720  12.103  0.1531  0.3294  0.5042
 2432TIP3    H128787   5.379   3.756  12.071  0.9627  0.4833 -1.5043
 2432TIP3    H228788   5.437   3.645  12.157 -1.2801  0.1012 -0.4438
 2433TIP3   OH228789   4.760   1.648  13.793 -0.2696  0.2816 -0.8923
 2433TIP3    H128790   4.719   1.637  13.707 -1.7396 -0.1365 -0.1548
 2433TIP3    H228791   4.762   1.743  13.807  0.6333  0.3799 -1.7028
 2434TIP3   OH228792   1.824   3.971   5.979 -0.3180  0.2104  0.3808
 2434TIP3    H128793   1.759   3.901   5.972  1.5430 -1.6339  1.1276
 2434TIP3    H228794   1.772   4.051   5.983 -2.4635 -1.0426 -1.2960
 2435TIP3   OH228795   4.823   3.289  16.423 -0.4612 -0.7507  0.1631
 2435TIP3    H128796   4.838   3.366  16.367  0.2128 -0.5562  0.6011
 2435TIP3    H228797   4.887   3.299  16.494  1.1595 -2.8780 -0.9504
 2436TIP3   OH228798   3.171   5.755  13.635 -0.0849 -0.0576 -0.0101
 2436TIP3    H128799   3.108   5.822  13.608 -0.0499 -0.0826 -0.1560
 2436TIP3    H228800   3.137   5.674  13.598 -0.4868 -0.2344  0.7335
 2437TIP3   OH228801   1.081   5.482   0.141  0.4042 -0.0847  0.6506
 2437TIP3    H128802   1.151   5.534   0.179  1.4849 -1.8092  1.1057
 2437TIP3    H228803   1.065   5.412   0.205 -0.2809 -0.9039 -0.3938
 2438TIP3   OH228804   2.623   5.900  11.398 -0.7206 -0.0241  0.1463
 2438TIP3    H128805   2.610   5.965  11.329 -0.7438  0.2154  0.3740
 2438TIP3    H228806   2.598   5.817  11.358 -0.1412  0.0260 -0.3184
 2439TIP3   OH228807   5.451   1.878   1.330  0.3340 -0.4942 -0.0369
 2439TIP3    H128808   5.525   1.936   1.311  0.0493 -0.6501 -1.7295
 2439TIP3    H228809   5.485   1.817   1.396  1.2981  0.2724  0.1791
 2440TIP3   OH228810   6.349   2.980  16.296  0.2116  0.2186  0.1580
 2440TIP3    H128811   6.435   3.014  16.271  0.0032  1.0909  0.6086
 2440TIP3    H228812   6.368   2.915  16.364  0.5848 -0.2988 -0.4377
 2441TIP3   OH228813   3.084   3.459   5.542 -0.2100 -0.4112  0.0502
 2441TIP3    H128814   3.071   3.365   5.558 -1.6426 -0.2234  0.1021
 2441TIP3    H228815   3.038   3.502   5.614  0.8191  0.3270  0.2668
 2442TIP3   OH228816   1.598   6.033  16.711  0.5730 -0.4600 -0.4823
 2442TIP3    H128817   1.692   6.016  16.701  0.4569 -1.1131 -0.4881
 2442TIP3    H228818   1.556   5.951  16.686 -0.0278 -0.0125 -0.9503
 2443TIP3   OH228819   1.293   4.513   1.515 -0.6801  0.0619  0.6965
 2443TIP3    H128820   1.250   4.592   1.550 -2.2834 -0.4221 -0.1121
 2443TIP3    H228821   1.377   4.510   1.560 -1.4287  1.1377  2.2352
 2444TIP3   OH228822   1.273   5.795  14.180 -0.1525  0.0252 -0.2872
 2444TIP3    H128823   1.304   5.864  14.122  0.7676  0.8075  1.0996
 2444TIP3    H228824   1.178   5.791  14.164  0.1085  0.0874 -1.9570
 2445TIP3   OH228825   3.400   2.505   0.868 -0.6343  0.1875  0.1978
 2445TIP3    H128826   3.371   2.525   0.957 -1.3104 -0.2797  0.0946
 2445TIP3    H228827   3.434   2.416   0.874 -0.7012  0.1482 -0.0148
 2446TIP3   OH228828   2.956   3.716   6.016 -0.0816  0.1866 -0.6395
 2446TIP3    H128829   2.922   3.674   6.096 -0.1310  0.2532 -0.6249
 2446TIP3    H228830   2.992   3.799   6.047  1.8296 -0.7151 -0.3658
 2447TIP3   OH228831   1.691   5.954   3.297 -0.2503 -0.2426 -0.0681
 2447TIP3    H128832   1.761   5.889   3.304 -1.0106 -1.3525 -2.2437
 2447TIP3    H228833   1.630   5.932   3.367  0.5462 -0.5708  0.5221
 2448TIP3   OH228834   2.892   1.843  12.757  0.0526 -0.5412 -0.0310
 2448TIP3    H128835   2.834   1.768  12.767 -0.2192 -0.1301  1.7140
 2448TIP3    H228836   2.880   1.871  12.666 -1.8395 -1.0031  0.0454
 2449TIP3   OH228837   2.178   3.357   2.924  0.5352 -0.1278 -0.1149
 2449TIP3    H128838   2.272   3.340   2.922  0.4525 -0.4497 -2.0567
 2449TIP3    H228839   2.153   3.341   3.016  2.6548  1.6877  0.8105
 2450TIP3   OH228840   5.713   5.492   4.877  0.3554  0.0013 -0.4917
 2450TIP3    H128841   5.760   5.556   4.824  1.3546 -1.2652 -1.1848
 2450TIP3    H228842   5.621   5.515   4.869  0.8830  3.3717  1.9691
 2451TIP3   OH228843   6.227   3.431   5.515 -0.0551 -0.9833  0.2176
 2451TIP3    H128844   6.246   3.512   5.467 -1.5996 -0.3762  0.6096
 2451TIP3    H228845   6.189   3.372   5.450 -0.2908 -0.8665  0.2474
 2452TIP3   OH228846   5.825   0.224  16.020  0.0002 -0.4143  0.0405
 2452TIP3    H128847   5.912   0.214  15.980  0.1622  1.3038 -0.0758
 2452TIP3    H228848   5.804   0.317  16.009 -0.9158 -0.3613  1.9797
 2453TIP3   OH228849   3.253   5.842  12.036 -0.3143 -0.3704 -0.4196
 2453TIP3    H128850   3.186   5.821  12.101 -0.6553 -0.1121 -0.6862
 2453TIP3    H228851   3.204   5.861  11.956  0.0394  0.4112 -0.4617
 2454TIP3   OH228852   0.506   1.103   4.840  0.6589  0.0179  0.2500
 2454TIP3    H128853   0.514   1.034   4.906 -0.1287 -0.5202 -0.2132
 2454TIP3    H228854   0.578   1.085   4.779  1.7534  0.8604  1.2526
 2455TIP3   OH228855   3.103   6.266  16.390 -0.4057 -0.0257 -0.5853
 2455TIP3    H128856   3.037   6.281  16.457 -0.8503 -2.6784 -0.3804
 2455TIP3    H228857   3.176   6.226  16.436  0.1802  0.1831 -1.3163
 2456TIP3   OH228858   6.687   5.631   3.397  0.3834  0.7708 -0.9053
 2456TIP3    H128859   6.659   5.630   3.305  0.5991  2.5570 -1.0059
 2456TIP3    H228860   6.607   5.647   3.446  0.1713 -0.7506 -0.7196
 2457TIP3   OH228861   1.214   2.266   2.776  0.4322 -0.6627 -0.2217
 2457TIP3    H128862   1.214   2.361   2.790  1.8411 -0.6982  0.0691
 2457TIP3    H228863   1.141   2.234   2.829  0.2228  0.2061  0.0210
 2458TIP3   OH228864   3.134   1.216  13.445 -0.1044 -0.8591 -0.6221
 2458TIP3    H128865   3.155   1.256  13.361  0.9770 -0.2612 -0.0720
 2458TIP3    H228866   3.078   1.280  13.489 -0.3413 -1.0012 -0.7098
 2459TIP3   OH228867   5.620   3.728   5.396 -0.4165  0.3128 -0.4874
 2459TIP3    H128868   5.664   3.806   5.361 -1.5019  0.9985 -0.3508
 2459TIP3    H228869   5.537   3.724   5.348 -1.2630  0.4209  0.9518
 2460TIP3   OH228870   3.659   4.352  16.926 -0.7194  0.4026  0.6063
 2460TIP3    H128871   3.565   4.362  16.912 -1.0507 -2.7231  0.1590
 2460TIP3    H228872   3.690   4.302  16.850  0.3340 -3.0512  3.1715
 2461TIP3   OH228873   1.960   1.317  16.103  0.3776 -0.4044  0.3645
 2461TIP3    H128874   1.920   1.286  16.022 -0.6358  1.1734  0.2348
 2461TIP3    H228875   1.906   1.281  16.173 -1.7718  2.2799  0.1723
 2462TIP3   OH228876   4.150   1.642  13.290  0.0180 -0.2304 -0.4199
 2462TIP3    H128877   4.218   1.636  13.222  0.0220 -0.9091 -0.3608
 2462TIP3    H228878   4.194   1.613  13.370 -0.1095  0.1457 -0.2186
 2463TIP3   OH228879   0.205   4.062  13.639  0.6088  0.2889 -0.0172
 2463TIP3    H128880   0.201   4.111  13.557  1.6338 -3.9667 -2.8072
 2463TIP3    H228881   0.130   4.002  13.635  0.7459 -0.0553  2.0977
 2464TIP3   OH228882   1.518   4.916  12.627  0.2185  0.3410 -0.7904
 2464TIP3    H128883   1.571   4.991  12.655 -0.2814  0.1683  0.6708
 2464TIP3    H228884   1.578   4.862  12.575  0.7707  1.3913 -1.2693
 2465TIP3   OH228885   3.391   2.238   2.385  0.9172  0.8070 -0.7092
 2465TIP3    H128886   3.334   2.221   2.310  1.2296  1.3634 -1.0777
 2465TIP3    H228887   3.346   2.307   2.434 -0.2430 -0.8860  0.6653
 2466TIP3   OH228888   5.404   6.498  13.982  0.6691  0.2046 -0.2946
 2466TIP3    H128889   5.443   6.469  13.899  1.5484 -0.1243  0.2291
 2466TIP3    H228890   5.440   6.586  13.996  0.0656  0.4937 -0.5539
 2467TIP3   OH228891   4.304   5.402   1.007  0.3081 -0.1043 -0.3785
 2467TIP3    H128892   4.330   5.395   1.099  0.5982 -1.5334 -0.5626
 2467TIP3    H228893   4.238   5.335   0.995 -0.1686  0.4846 -1.0710
 2468TIP3   OH228894   0.088   0.925  11.716 -0.0666 -0.7743  0.3822
 2468TIP3    H128895   0.123   1.014  11.724  0.8041 -1.0392 -0.4153
 2468TIP3    H228896   0.158   0.876  11.673 -0.6510 -1.7820  0.5859
 2469TIP3   OH228897   2.876   2.477  17.134  0.1925  0.0548 -0.0038
 2469TIP3    H128898   2.819   2.529  17.078 -0.5673 -1.5061 -0.6908
 2469TIP3    H228899   2.831   2.475  17.219  0.8109  1.4939  0.3779
 2470TIP3   OH228900   0.558   1.190  16.077 -0.0890  0.2905 -0.5388
 2470TIP3    H128901   0.571   1.130  16.150 -0.7038 -0.0547 -0.7170
 2470TIP3    H228902   0.614   1.265  16.098 -0.5428  0.3546  0.4586
 2471TIP3   OH228903   5.597   6.020  16.200 -0.1188  0.0418  0.3433
 2471TIP3    H128904   5.628   6.110  16.189 -3.1957  1.1987  0.5989
 2471TIP3    H228905   5.528   6.027  16.266 -0.4865 -2.5269  0.2720
 2472TIP3   OH228906   5.164   4.642  16.889 -0.3232 -0.4418 -0.2720
 2472TIP3    H128907   5.106   4.671  16.818 -0.2939 -0.5230 -0.3277
 2472TIP3    H228908   5.249   4.682  16.868 -0.5816  0.4072  0.2842
 2473TIP3   OH228909   1.176   3.733   1.517 -0.1775 -0.7923 -0.6327
 2473TIP3    H128910   1.224   3.675   1.576 -0.6475 -1.1666 -0.6134
 2473TIP3    H228911   1.224   3.816   1.520 -1.0989 -0.3179  1.4992
 2474TIP3   OH228912   2.291   5.552   5.524 -0.2560  0.2971  0.2482
 2474TIP3    H128913   2.252   5.600   5.450 -0.6712  0.2451  0.4297
 2474TIP3    H228914   2.370   5.601   5.544 -1.0793  1.3832  0.9341
 2475TIP3   OH228915   5.211   6.093  15.625  0.3959  0.2013 -0.0893
 2475TIP3    H128916   5.290   6.039  15.633  0.9598  1.2598  1.6965
 2475TIP3    H228917   5.240   6.172  15.579 -0.0791 -0.2765 -1.2377
 2476TIP3   OH228918   1.319   1.688   0.695 -0.3693  0.1077 -0.4902
 2476TIP3    H128919   1.394   1.630   0.685  1.0026  1.7177  0.1223
 2476TIP3    H228920   1.257   1.639   0.749  0.7171 -0.8070 -0.0641
 2477TIP3   OH228921   5.651   5.747  15.255  0.1467 -0.2768  0.4927
 2477TIP3    H128922   5.593   5.814  15.218  0.8245  0.4304  0.6983
 2477TIP3    H228923   5.739   5.781  15.240  0.5724 -2.0638 -1.1850
 2478TIP3   OH228924   0.875   2.809  16.171 -0.3585 -0.2375 -0.4297
 2478TIP3    H128925   0.885   2.813  16.266 -0.5159  1.1701 -0.4607
 2478TIP3    H228926   0.903   2.896  16.141  0.0071 -0.7948 -1.6961
 2479TIP3   OH228927   6.751   5.095   3.288  0.0062 -0.0152 -0.0356
 2479TIP3    H128928   6.757   5.187   3.264 -0.1557 -0.3808 -1.4959
 2479TIP3    H228929   6.712   5.052   3.212 -2.4419 -0.8697  1.6153
 2480TIP3   OH228930   6.044   3.374  16.888 -0.4239 -0.5800 -0.1862
 2480TIP3    H128931   5.984   3.362  16.813 -1.7639 -0.7978  0.8992
 2480TIP3    H228932   6.129   3.347  16.854 -0.7094  0.7352 -2.0908
 2481TIP3   OH228933   0.886   4.967  16.704  0.1523  0.0503  0.7136
 2481TIP3    H128934   0.954   5.020  16.745  0.1779  1.0202 -0.5336
 2481TIP3    H228935   0.910   4.965  16.611 -1.1815 -0.1071  0.3579
 2482TIP3   OH228936   6.809   6.556   5.834 -0.1546 -0.0592 -0.3657
 2482TIP3    H128937   6.824   6.648   5.858 -2.4674  0.8574 -2.2350
 2482TIP3    H228938   6.896   6.520   5.819  0.8008  1.7404  0.6990
 2483TIP3   OH228939   1.251   5.218   2.648  0.1952  0.0514 -0.0730
 2483TIP3    H128940   1.176   5.158   2.649 -0.8304  1.3102  0.1546
 2483TIP3    H228941   1.268   5.233   2.555  0.3073 -0.4050 -0.1266
 2484TIP3   OH228942   5.833   3.245   2.085  0.3858 -0.3127 -0.3708
 2484TIP3    H128943   5.747   3.275   2.115  2.0318  2.4139  1.8567
 2484TIP3    H228944   5.869   3.199   2.160  0.5491 -2.2399 -1.6061
 2485TIP3   OH228945   6.605   1.026  13.093  0.0363 -0.1839 -0.5749
 2485TIP3    H128946   6.623   1.053  13.003 -0.4390  2.7854  0.1744
 2485TIP3    H228947   6.512   1.002  13.092 -0.5946  2.1184 -0.3998
 2486TIP3   OH228948   4.426   5.271   4.356  0.5142 -0.7142 -0.4004
 2486TIP3    H128949   4.444   5.180   4.331  2.1030 -0.2817 -0.9244
 2486TIP3    H228950   4.505   5.318   4.330 -0.0791  0.7257  0.3756
 2487TIP3   OH228951   1.504   1.079   1.397  0.3856  0.5424 -0.1085
 2487TIP3    H128952   1.449   1.058   1.473  1.3019 -0.4776  0.2954
 2487TIP3    H228953   1.569   1.140   1.432  1.4723 -0.7678  0.2102
 2488TIP3   OH228954   4.679   4.699   3.290  0.6432 -0.3006  0.1472
 2488TIP3    H128955   4.610   4.766   3.287  0.0885 -0.9076 -1.3778
 2488TIP3    H228956   4.662   4.650   3.370  0.0195  0.3090  0.3899
 2489TIP3   OH228957   0.344   5.873  13.138 -0.3240 -0.1527 -0.0421
 2489TIP3    H128958   0.289   5.820  13.080  1.2801 -1.9580  0.0391
 2489TIP3    H228959   0.400   5.923  13.080  0.2725 -0.8674 -0.0942
 2490TIP3   OH228960   6.538   2.062   4.983 -0.2092 -0.0384 -0.0533
 2490TIP3    H128961   6.539   1.996   4.914 -2.3023 -1.0384  0.8219
 2490TIP3    H228962   6.464   2.119   4.962  0.2695  0.7555  0.3747
 2491TIP3   OH228963   0.282   5.219  16.038 -0.2451  0.1434  0.4869
 2491TIP3    H128964   0.324   5.164  16.104 -0.4782 -0.1112  0.4231
 2491TIP3    H228965   0.336   5.298  16.036  0.6062 -0.4376 -0.0536
 2492TIP3   OH228966   4.028   4.515   1.834  0.0601  0.3425  0.0168
 2492TIP3    H128967   3.953   4.462   1.862 -0.7823 -0.8515 -4.1175
 2492TIP3    H228968   4.090   4.451   1.798  1.9675  1.5784  1.0463
 2493TIP3   OH228969   5.574   0.250   0.341 -0.2063  0.7620  0.4017
 2493TIP3    H128970   5.593   0.176   0.398 -1.3177  1.5618  1.8139
 2493TIP3    H228971   5.551   0.210   0.257 -0.3328 -0.4712  1.0139
 2494TIP3   OH228972   3.270   4.881  13.195 -0.1599 -0.4814 -0.2042
 2494TIP3    H128973   3.318   4.917  13.270  0.8041  1.6141 -1.7461
 2494TIP3    H228974   3.330   4.894  13.121 -1.2208 -2.2120 -1.3819
 2495TIP3   OH228975   2.443   2.488   0.287 -0.7456 -0.5114 -0.3728
 2495TIP3    H128976   2.407   2.538   0.360  0.2550 -0.2338 -0.0626
 2495TIP3    H228977   2.434   2.397   0.314 -0.9453 -0.4342 -0.1743
 2496TIP3   OH228978   6.286   0.800  13.273  0.1022 -0.3968  0.3640
 2496TIP3    H128979   6.371   0.845  13.280  0.7022 -1.2582 -1.1980
 2496TIP3    H228980   6.306   0.708  13.292 -0.5254 -0.5785  0.1535
 2497TIP3   OH228981   2.924   1.338   6.242 -0.7296 -0.5386  0.2565
 2497TIP3    H128982   2.906   1.419   6.195 -2.7917 -0.8470  0.4921
 2497TIP3    H228983   2.999   1.300   6.196  1.3690  2.2889  1.1666
 2498TIP3   OH228984   5.294   1.910  16.460 -0.2084 -0.4238 -0.2539
 2498TIP3    H128985   5.298   1.826  16.414 -0.1886 -0.7370  0.3128
 2498TIP3    H228986   5.353   1.899  16.535  1.0584  0.6494 -1.0683
 2499TIP3   OH228987   0.973   3.628  10.521 -0.2998 -0.3423  0.2332
 2499TIP3    H128988   1.052   3.579  10.539  0.0251  0.1029  0.0407
 2499TIP3    H228989   0.914   3.566  10.478  0.4106 -0.3376 -0.7433
 2500TIP3   OH228990   2.525   4.943  16.399 -0.0897  0.4269  0.0182
 2500TIP3    H128991   2.564   4.957  16.312  0.2786 -0.5608  0.0135
 2500TIP3    H228992   2.599   4.916  16.454 -0.6205 -0.6450  0.2169
 2501TIP3   OH228993   6.314   4.269   4.073 -0.1756 -0.2222  0.1137
 2501TIP3    H128994   6.406   4.254   4.092 -0.0140  1.6195  0.8362
 2501TIP3    H228995   6.312   4.290   3.979  0.0600 -0.8611 -0.0357
 2502TIP3   OH228996   5.117   6.576   1.618  0.0371 -0.0762 -0.4942
 2502TIP3    H128997   5.176   6.650   1.602  1.7976 -1.6838 -1.6723
 2502TIP3    H228998   5.032   6.617   1.634  1.1877  2.2527  0.0301
 2503TIP3   OH228999   0.114   5.217  14.520  0.6779 -0.7785 -0.3880
 2503TIP3    H129000   0.165   5.175  14.450  2.4922 -0.0116  0.4371
 2503TIP3    H229001   0.141   5.309  14.517 -1.4249 -0.1479 -0.5725
 2504TIP3   OH229002   2.845   4.649   5.654 -0.5546  0.2951 -0.7337
 2504TIP3    H129003   2.865   4.571   5.706 -0.5338 -0.8473 -2.4148
 2504TIP3    H229004   2.798   4.706   5.714  0.8447 -0.3225  0.9939
 2505TIP3   OH229005   5.208   1.329  13.391  0.7446 -0.2258 -0.2313
 2505TIP3    H129006   5.202   1.341  13.296 -0.7008  0.2133 -0.0971
 2505TIP3    H229007   5.250   1.409  13.422 -0.8509  0.6461 -0.2747
 2506TIP3   OH229008   5.814   3.878   3.319  0.0841  0.7137  0.2381
 2506TIP3    H129009   5.854   3.843   3.240  0.6201  1.4575  0.1699
 2506TIP3    H229010   5.821   3.808   3.383 -2.9030 -0.9694 -1.1559
 2507TIP3   OH229011   0.901   3.858   5.710  0.0787  0.7392 -0.1658
 2507TIP3    H129012   0.907   3.923   5.640  1.8159 -2.3575 -3.0325
 2507TIP3    H229013   0.811   3.827   5.707 -0.0010  1.0159 -0.6141
 2508TIP3   OH229014   1.709   2.166   6.979  0.1501  0.0463 -0.3693
 2508TIP3    H129015   1.804   2.170   6.987  0.1925 -0.3060 -0.6764
 2508TIP3    H229016   1.680   2.257   6.979  0.2617  0.1156  2.3816
 2509TIP3   OH229017   0.820   1.444   2.000  0.3379  0.1105  0.0172
 2509TIP3    H129018   0.734   1.453   1.957  0.9639  2.1216 -0.9015
 2509TIP3    H229019   0.799   1.423   2.091 -1.1145 -0.2461 -0.3832
 2510TIP3   OH229020   5.413   2.966  12.829 -0.3640 -0.1927 -0.3231
 2510TIP3    H129021   5.321   2.943  12.823 -0.3899  0.0172 -0.7321
 2510TIP3    H229022   5.416   3.060  12.810 -0.2403  0.1180  1.1911
 2511TIP3   OH229023   6.295   5.993   0.345 -0.3645  0.0238  0.0234
 2511TIP3    H129024   6.234   6.036   0.285  0.5960  2.8711  1.0037
 2511TIP3    H229025   6.245   5.980   0.425 -0.6902 -0.8581 -0.3117
 2512TIP3   OH229026   1.718   1.909  16.847  0.0502 -0.2697  0.3453
 2512TIP3    H129027   1.707   1.931  16.940  1.9900 -3.1567  1.3143
 2512TIP3    H229028   1.802   1.949  16.823  0.0555 -0.4171  0.1200
 2513TIP3   OH229029   2.455   2.175  11.248 -0.0368 -0.1888  0.0549
 2513TIP3    H129030   2.399   2.162  11.324  0.9500 -0.3058  0.7734
 2513TIP3    H229031   2.457   2.269  11.235  1.0494 -0.0457  1.1482
 2514TIP3   OH229032   6.561   0.133   6.268 -0.2032 -0.5250  0.3139
 2514TIP3    H129033   6.499   0.194   6.227 -1.4326 -1.2037  1.1584
 2514TIP3    H229034   6.510   0.054   6.284  0.3550 -0.3901  2.8673
 2515TIP3   OH229035   4.528   3.206   3.192  0.3150 -0.3358 -0.3623
 2515TIP3    H129036   4.619   3.187   3.219  0.7491  0.1867 -1.4631
 2515TIP3    H229037   4.485   3.121   3.197  0.9805 -0.6777 -0.2568
 2516TIP3   OH229038   3.620   1.358  17.181 -0.7931  0.4212 -0.3078
 2516TIP3    H129039   3.653   1.307  17.255  1.4208 -1.8154 -2.7226
 2516TIP3    H229040   3.656   1.445  17.194  2.0484 -0.7165 -0.2728
 2517TIP3   OH229041   0.246   3.952  12.500  0.2848  0.6663  0.0058
 2517TIP3    H129042   0.325   3.899  12.506  0.9381  1.6441  0.0888
 2517TIP3    H229043   0.267   4.033  12.547 -2.1373 -0.6816  3.6505
 2518TIP3   OH229044   4.638   0.124   5.956  0.3697 -0.2598 -0.2238
 2518TIP3    H129045   4.551   0.106   5.992 -0.1222  0.3834 -1.0727
 2518TIP3    H229046   4.683   0.171   6.026 -0.2634  0.1526 -0.0832
 2519TIP3   OH229047   5.502   1.010  16.931  0.1498 -0.0761  0.7455
 2519TIP3    H129048   5.550   0.957  16.995  0.5559  3.9823  4.0407
 2519TIP3    H229049   5.566   1.074  16.901 -0.5776 -0.7733 -2.4404
 2520TIP3   OH229050   2.326   6.661   2.366 -0.1258  0.2995 -0.1277
 2520TIP3    H129051   2.234   6.648   2.343 -0.2120  0.7567 -0.0466
 2520TIP3    H229052   2.327   6.745   2.412  0.5064  0.8621 -1.1576
 2521TIP3   OH229053   3.863   6.520  11.414  0.4726 -0.1302  0.5835
 2521TIP3    H129054   3.841   6.612  11.428 -1.2117 -0.3080 -0.7712
 2521TIP3    H229055   3.859   6.508  11.319 -2.0359 -2.2493  0.9093
 2522TIP3   OH229056   2.784   5.816  10.606 -0.3490  0.0650  0.2690
 2522TIP3    H129057   2.743   5.868  10.675  0.0626 -0.9657  1.2995
 2522TIP3    H229058   2.751   5.727  10.619  0.6405 -0.3739 -0.1340
 2523TIP3   OH229059   5.054   0.650  14.779 -0.6431  0.0785  0.4673
 2523TIP3    H129060   4.975   0.644  14.726 -1.2669 -0.8621  1.4831
 2523TIP3    H229061   5.044   0.731  14.828  0.1555  1.2012 -1.1694
 2524TIP3   OH229062   6.413   6.477   3.039 -0.3590  0.0272  0.2228
 2524TIP3    H129063   6.337   6.462   3.095 -2.4783 -0.6563 -2.7393
 2524TIP3    H229064   6.429   6.392   2.997 -0.5210  1.1488 -2.2146
 2525TIP3   OH229065   6.124   0.022   1.601  0.7814  0.7752 -0.4314
 2525TIP3    H129066   6.209   0.057   1.627  0.4543 -0.3733  2.3558
 2525TIP3    H229067   6.072   0.024   1.681 -1.3321  0.0557 -1.7631
 2526TIP3   OH229068   5.623   5.782   1.640 -0.1228 -0.5852  0.2379
 2526TIP3    H129069   5.647   5.871   1.667  2.1589 -0.2220 -2.7498
 2526TIP3    H229070   5.699   5.729   1.663  0.0507 -1.0627 -1.4120
 2527TIP3   OH229071   1.960   2.257  12.759  0.7073  0.6569 -0.0054
 2527TIP3    H129072   1.944   2.169  12.793 -0.7845  1.9380  2.7319
 2527TIP3    H229073   1.938   2.316  12.831  1.9378  3.2951 -1.6836
 2528TIP3   OH229074   6.362   6.159  11.999  0.1131 -0.2079 -0.1893
 2528TIP3    H129075   6.410   6.078  12.016 -1.2171 -0.8069  0.8019
 2528TIP3    H229076   6.271   6.131  11.987 -0.5072  1.2038  0.9916
 2529TIP3   OH229077   1.540   1.030   0.104  0.2751  0.3212  0.0957
 2529TIP3    H129078   1.481   1.089   0.057 -1.3607 -0.1592  1.4494
 2529TIP3    H229079   1.535   1.060   0.195  0.7007 -0.8668  0.5231
 2530TIP3   OH229080   4.169   0.934  12.347  0.4795 -0.3097  0.0646
 2530TIP3    H129081   4.076   0.911  12.355 -0.0922  1.6346 -0.7107
 2530TIP3    H229082   4.214   0.873  12.406 -1.0540 -2.6560 -1.1344
 2531TIP3   OH229083   2.862   0.883   6.236 -0.3702 -0.1998  0.6097
 2531TIP3    H129084   2.935   0.822   6.248 -0.5672 -0.3119  1.2710
 2531TIP3    H229085   2.889   0.939   6.163 -0.4961 -1.5356 -0.4845
 2532TIP3   OH229086   0.720   5.042  12.533 -0.1865 -0.0381 -0.1793
 2532TIP3    H129087   0.696   5.021  12.443 -0.0590 -0.1122 -0.1931
 2532TIP3    H229088   0.659   5.113  12.558 -1.7372 -1.5299  0.4242
 2533TIP3   OH229089   2.453   0.096   1.596 -0.0899  0.5705 -0.1852
 2533TIP3    H129090   2.419   0.185   1.603  0.4931  0.8015 -0.2462
 2533TIP3    H229091   2.460   0.065   1.686 -0.4200  0.5358 -0.1708
 2534TIP3   OH229092   6.401   4.148  15.858  0.3697 -0.4761 -0.0187
 2534TIP3    H129093   6.373   4.130  15.947  1.9227 -0.5235  0.4836
 2534TIP3    H229094   6.326   4.192  15.817 -1.2989 -2.7882  0.4960
 2535TIP3   OH229095   4.793   0.816  12.471 -0.0013  0.0796  0.1611
 2535TIP3    H129096   4.813   0.725  12.447  0.7125  0.3308 -0.2301
 2535TIP3    H229097   4.864   0.841  12.530  1.1706  1.1550 -1.6554
 2536TIP3   OH229098   1.159   3.723   1.244 -0.1077  0.5314  0.2541
 2536TIP3    H129099   1.080   3.767   1.211 -1.6926 -0.8721  2.0996
 2536TIP3    H229100   1.154   3.733   1.339  0.5247 -1.9083  0.5672
 2537TIP3   OH229101   2.600   0.846   5.683  0.2415 -0.3227  0.5543
 2537TIP3    H129102   2.632   0.755   5.687  0.3007 -0.3021  0.5550
 2537TIP3    H229103   2.616   0.880   5.771  0.9883 -0.0551  0.3174
 2538TIP3   OH229104   5.397   1.187  10.799 -0.1323 -0.0156 -0.5607
 2538TIP3    H129105   5.351   1.113  10.837  0.4384  0.1093  0.3815
 2538TIP3    H229106   5.353   1.264  10.835  0.9696  0.1039  0.5546
 2539TIP3   OH229107   2.851   3.758  11.575  0.2901 -0.0740 -0.1854
 2539TIP3    H129108   2.933   3.748  11.526  0.8770 -1.0585  0.9698
 2539TIP3    H229109   2.816   3.842  11.546  2.3517  0.9533  0.2203
 2540TIP3   OH229110   5.151   0.947  11.864  0.0482 -0.3393 -0.0163
 2540TIP3    H129111   5.209   1.023  11.870 -0.0305 -0.2670 -0.1828
 2540TIP3    H229112   5.206   0.873  11.889  0.3678 -0.3481 -0.7300
 2541TIP3   OH229113   1.552   6.818  15.220 -0.0378 -0.6140 -0.1519
 2541TIP3    H129114   1.551   6.724  15.236 -1.1305 -0.6403 -0.3109
 2541TIP3    H229115   1.640   6.836  15.189  0.6483 -1.3405  1.2890
 2542TIP3   OH229116   2.865   1.793   1.509 -0.7652 -0.4627  0.3940
 2542TIP3    H129117   2.816   1.712   1.498  0.1621 -1.1574  1.2795
 2542TIP3    H229118   2.801   1.855   1.543 -1.3906 -0.9229  0.0712
 2543TIP3   OH229119   4.710   3.571  13.350  0.0058  0.1693 -0.8301
 2543TIP3    H129120   4.667   3.657  13.354  0.7028  0.4923 -0.2996
 2543TIP3    H229121   4.647   3.516  13.304 -1.1725  0.5399  0.2845
 2544TIP3   OH229122   4.093   0.037  11.519  0.1393  0.2839  0.6452
 2544TIP3    H129123   4.143   0.088  11.455 -1.0299  0.8208  0.1554
 2544TIP3    H229124   4.004   0.070  11.512 -0.0195  0.3004  2.5052
 2545TIP3   OH229125   2.982   0.121   1.752 -0.0553 -0.7715  0.1522
 2545TIP3    H129126   2.903   0.173   1.765  1.1788  1.3662 -0.6324
 2545TIP3    H229127   2.960   0.061   1.681 -0.5616  0.7399 -0.9988
 2546TIP3   OH229128   5.431   3.399  14.262 -0.6125 -0.4377 -0.5391
 2546TIP3    H129129   5.428   3.309  14.294  0.9856  0.0869  1.1473
 2546TIP3    H229130   5.385   3.450  14.328 -1.0578  0.0611 -1.2323
 2547TIP3   OH229131   0.509   3.240  11.775 -0.0702  0.2715  0.0973
 2547TIP3    H129132   0.588   3.188  11.787 -0.6388 -0.3474  1.3108
 2547TIP3    H229133   0.540   3.327  11.748  0.8546 -0.9098 -2.7656
 2548TIP3   OH229134   1.825   0.145  16.005  0.3352  0.4139  0.2676
 2548TIP3    H129135   1.775   0.156  16.086  2.3146  0.6363  1.4650
 2548TIP3    H229136   1.799   0.058  15.974 -2.6549  1.4798 -0.4656
 2549TIP3   OH229137   1.662   5.805  11.724  0.4326 -0.1856 -0.1881
 2549TIP3    H129138   1.659   5.736  11.791  1.0462 -0.2552 -0.2275
 2549TIP3    H229139   1.656   5.887  11.773  0.1924 -0.2574 -0.1006
 2550TIP3   OH229140   5.340   1.651  14.291  0.4093  0.5783 -0.2494
 2550TIP3    H129141   5.255   1.695  14.299  0.9655  1.4908  0.7688
 2550TIP3    H229142   5.347   1.631  14.197 -0.8431  0.6504 -0.3707
 2551TIP3   OH229143   6.533   3.468   2.508  0.1772 -0.3405  0.4465
 2551TIP3    H129144   6.458   3.425   2.549 -1.1215  0.8090 -0.6705
 2551TIP3    H229145   6.567   3.527   2.575  0.2036 -0.9746  1.0019
 2552TIP3   OH229146   1.651   1.822   1.983 -0.0350 -0.6312 -1.0588
 2552TIP3    H129147   1.727   1.874   1.957 -1.0094 -0.3598 -3.4619
 2552TIP3    H229148   1.589   1.886   2.016  0.2007 -0.7083 -0.4442
 2553TIP3   OH229149   4.773   1.225  14.644 -0.0259  0.0027 -0.0608
 2553TIP3    H129150   4.819   1.301  14.610  0.3750 -0.6722 -1.0454
 2553TIP3    H229151   4.720   1.259  14.717 -0.4055  1.3367 -0.9485
 2554TIP3   OH229152   1.257   5.352  14.922 -0.0795 -0.4037  0.3948
 2554TIP3    H129153   1.337   5.402  14.911 -0.0709 -0.2149  1.2527
 2554TIP3    H229154   1.243   5.309  14.838  1.1796 -0.8127  0.3797
 2555TIP3   OH229155   4.238   4.064   4.839  0.2010 -0.2765 -0.2711
 2555TIP3    H129156   4.202   4.073   4.750  0.2852  0.7478 -0.2099
 2555TIP3    H229157   4.226   4.150   4.878  1.6928 -0.2456  0.1479
 2556TIP3   OH229158   6.436   4.370  10.399 -0.4724 -0.1892 -0.0148
 2556TIP3    H129159   6.398   4.284  10.378 -1.0221 -0.1916  0.9747
 2556TIP3    H229160   6.363   4.421  10.432 -0.0489  0.5250 -0.1886
 2557TIP3   OH229161   1.822   3.167  12.391  0.2934  0.0788 -1.0376
 2557TIP3    H129162   1.875   3.103  12.438 -2.2689 -1.0580  0.3848
 2557TIP3    H229163   1.806   3.127  12.305 -0.5190 -0.7838 -0.4895
 2558TIP3   OH229164   3.102   2.270  12.346 -0.0780  0.0462 -0.2971
 2558TIP3    H129165   3.183   2.299  12.304 -0.5994  0.9814 -0.6801
 2558TIP3    H229166   3.051   2.231  12.275  0.3856 -1.3178  0.1085
 2559TIP3   OH229167   5.284   6.715   4.822  0.3601 -0.4098  0.6298
 2559TIP3    H129168   5.297   6.679   4.909  0.7228  0.0775  0.7780
 2559TIP3    H229169   5.361   6.685   4.772 -1.0015 -2.6808 -0.1848
 2560TIP3   OH229170   5.830   2.151   6.168 -0.3698 -0.1283 -0.3402
 2560TIP3    H129171   5.745   2.136   6.210 -0.3200 -1.7532 -0.7803
 2560TIP3    H229172   5.861   2.233   6.206 -0.7794 -1.0421  2.0963
 2561TIP3   OH229173   5.025   3.286  17.123 -0.5173  0.1274 -0.4207
 2561TIP3    H129174   4.992   3.297  17.033  0.6609 -0.4366 -0.9351
 2561TIP3    H229175   4.983   3.207  17.154  0.2587 -0.5428 -1.0440
 2562TIP3   OH229176   2.650   5.317  16.422 -0.4430  0.1715 -0.0316
 2562TIP3    H129177   2.698   5.348  16.498  2.1252 -1.7261 -0.7728
 2562TIP3    H229178   2.599   5.243  16.454  1.5983 -1.4194 -0.3378
 2563TIP3   OH229179   1.885   5.922  13.384 -0.1431 -0.2429 -0.3006
 2563TIP3    H129180   1.834   5.842  13.394  0.0849 -0.3186  0.2690
 2563TIP3    H229181   1.971   5.900  13.419 -0.4126  0.5837  0.9206
 2564TIP3   OH229182   6.729   2.429   4.935  0.3098 -0.2672 -0.3785
 2564TIP3    H129183   6.822   2.449   4.947  0.2718 -0.7480  0.7452
 2564TIP3    H229184   6.683   2.501   4.978  0.1758 -1.5224  1.6593
 2565TIP3   OH229185   1.956   6.264   5.082  0.5585 -0.4004 -0.3279
 2565TIP3    H129186   1.949   6.281   5.176  1.9294 -0.2749 -0.2362
 2565TIP3    H229187   1.898   6.189   5.067  1.2975 -1.2375  0.8557
 2566TIP3   OH229188   1.371   1.640   4.659  0.3508 -0.3915 -0.5028
 2566TIP3    H129189   1.424   1.570   4.697  1.5176  0.4314 -0.5957
 2566TIP3    H229190   1.370   1.621   4.565  1.1249  0.0189 -0.5955
 2567TIP3   OH229191   3.361   2.901   2.395 -0.1635 -0.0936 -0.2217
 2567TIP3    H129192   3.396   2.815   2.373 -1.1079 -0.3574 -0.6823
 2567TIP3    H229193   3.425   2.937   2.458  1.5712 -0.0751 -1.9537
 2568TIP3   OH229194   1.974   6.313   5.367 -0.2801 -0.4959  0.0544
 2568TIP3    H129195   2.022   6.356   5.438 -1.6280 -0.7727  1.1660
 2568TIP3    H229196   1.973   6.220   5.392  0.1963 -0.7651 -0.9029
 2569TIP3   OH229197   3.919   1.713  16.405  0.0795 -0.0318  0.2025
 2569TIP3    H129198   3.912   1.651  16.478 -1.0299 -0.2009 -0.0258
 2569TIP3    H229199   3.981   1.779  16.435 -1.0234  0.3761  1.6672
 2570TIP3   OH229200   3.894   4.720  17.132  0.3243  0.0475  0.0045
 2570TIP3    H129201   3.802   4.745  17.143  0.1466 -0.2287 -0.7859
 2570TIP3    H229202   3.895   4.625  17.138  0.5323  0.0382 -0.1436
 2571TIP3   OH229203   6.087   1.060   4.132 -0.0707  0.3873 -0.5426
 2571TIP3    H129204   6.059   1.010   4.209 -0.6359 -1.0672 -1.6622
 2571TIP3    H229205   6.145   1.000   4.084  1.8546  1.9708 -0.2722
 2572TIP3   OH229206   3.959   6.350   4.642 -0.1419  0.1448  0.1023
 2572TIP3    H129207   3.925   6.331   4.555  1.4124  1.8732 -0.9091
 2572TIP3    H229208   4.047   6.312   4.642 -0.2168 -0.0379  0.9910
 2573TIP3   OH229209   0.643   0.588  14.883  0.5648  0.2484 -0.2362
 2573TIP3    H129210   0.603   0.541  14.810  0.9212 -2.7314  1.4481
 2573TIP3    H229211   0.619   0.537  14.960  1.6565  2.3985  1.5644
 2574TIP3   OH229212   6.242   4.558   3.452  0.4611  0.3937  0.1938
 2574TIP3    H129213   6.262   4.474   3.492  0.7164  0.1472 -0.4626
 2574TIP3    H229214   6.309   4.571   3.386 -0.5223  0.3527 -0.8306
 2575TIP3   OH229215   4.365   5.388   0.745  0.0314  0.1537 -0.2254
 2575TIP3    H129216   4.360   5.396   0.840  1.8902 -0.9873  0.0086
 2575TIP3    H229217   4.292   5.439   0.712 -1.9380 -1.2104  1.9140
 2576TIP3   OH229218   1.562   0.438   2.206 -0.0880 -0.5355  0.8339
 2576TIP3    H129219   1.616   0.400   2.276  0.6537 -0.1417  0.4712
 2576TIP3    H229220   1.591   0.529   2.199  0.9405 -0.9757 -1.0475
 2577TIP3   OH229221   2.488   0.684  12.256  0.4016  0.2817  0.3529
 2577TIP3    H129222   2.504   0.602  12.302 -0.0418  0.1156  0.2113
 2577TIP3    H229223   2.394   0.699  12.266  0.0358 -0.4914 -1.7379
 2578TIP3   OH229224   3.374   4.225  16.014 -0.3231  0.1057  0.1262
 2578TIP3    H129225   3.362   4.273  15.931  0.4813  0.8493  0.4254
 2578TIP3    H229226   3.285   4.210  16.046 -0.6460 -0.1964 -0.8779
 2579TIP3   OH229227   3.371   1.649  12.586  0.3327  0.0699 -0.4723
 2579TIP3    H129228   3.360   1.566  12.633 -1.4018  0.0780 -0.8089
 2579TIP3    H229229   3.285   1.691  12.591  1.0084  1.5458 -0.8829
 2580TIP3   OH229230   2.096   1.745   1.595 -0.4343  0.1338 -0.0086
 2580TIP3    H129231   2.073   1.793   1.674 -1.0844 -0.8728  0.4117
 2580TIP3    H229232   2.087   1.810   1.525 -0.2911  0.9037  0.6718
 2581TIP3   OH229233   1.212   5.518   4.600 -0.3845  0.4563 -0.1726
 2581TIP3    H129234   1.146   5.532   4.668  1.6791  0.6352  1.8701
 2581TIP3    H229235   1.246   5.606   4.581 -1.1525  0.4356 -1.6479
 2582TIP3   OH229236   2.417   1.350  15.908 -0.1167  0.2936  0.8022
 2582TIP3    H129237   2.374   1.294  15.972  1.6937 -0.6751  1.2296
 2582TIP3    H229238   2.472   1.290  15.857 -0.9549  1.1536 -1.1713
 2583TIP3   OH229239   3.826   2.791   0.325 -0.1607 -0.7765  0.2465
 2583TIP3    H129240   3.765   2.821   0.259  1.2075 -1.3013 -1.2845
 2583TIP3    H229241   3.770   2.761   0.398 -1.7212 -1.5523 -1.2386
 2584TIP3   OH229242   4.156   3.446  16.448 -0.1468  0.0800  0.2028
 2584TIP3    H129243   4.176   3.393  16.371 -0.2936 -0.4646  0.5356
 2584TIP3    H229244   4.097   3.391  16.500 -0.1265  0.4825  0.6520
 2585TIP3   OH229245   2.817   1.864  16.253  0.2495  0.0375  0.7852
 2585TIP3    H129246   2.840   1.869  16.160  0.6193 -0.5179  0.8494
 2585TIP3    H229247   2.767   1.944  16.269  4.2041  2.5381  1.2402
 2586TIP3   OH229248   1.898   5.368   2.043  0.1522 -0.0475  0.2483
 2586TIP3    H129249   1.859   5.406   1.964  0.7771  0.1965  0.0552
 2586TIP3    H229250   1.857   5.282   2.051 -0.1709  0.0679 -0.1477
 2587TIP3   OH229251   5.251   5.254  13.222 -0.0159  0.4728  0.0801
 2587TIP3    H129252   5.320   5.189  13.212  1.1179  1.5366  0.8347
 2587TIP3    H229253   5.171   5.203  13.233  0.6829 -0.7705 -0.6125
 2588TIP3   OH229254   0.449   4.083   3.708 -0.2390 -0.0244 -0.2149
 2588TIP3    H129255   0.435   4.160   3.653  1.5843  0.2373 -0.3474
 2588TIP3    H229256   0.457   4.118   3.796 -0.7715 -0.2137 -0.0867
 2589TIP3   OH229257   1.495   3.083  11.059 -0.1956 -0.2673  0.2258
 2589TIP3    H129258   1.441   3.160  11.045  1.5178  0.8097 -0.6901
 2589TIP3    H229259   1.551   3.079  10.982  1.1747 -1.2119  1.2399
 2590TIP3   OH229260   0.601   4.616   1.395  0.3496  1.0819 -0.1200
 2590TIP3    H129261   0.583   4.690   1.454  0.4196  1.1433 -0.1754
 2590TIP3    H229262   0.537   4.625   1.325  1.4980  2.1206 -1.0658
 2591TIP3   OH229263   5.967   5.370  16.689  0.2049  0.2483  0.4891
 2591TIP3    H129264   5.916   5.441  16.650  0.2334 -0.7384 -1.3939
 2591TIP3    H229265   5.914   5.339  16.762  0.0547  1.9957  1.1332
 2592TIP3   OH229266   6.658   5.817   4.257 -0.3722  0.3126  0.0621
 2592TIP3    H129267   6.709   5.869   4.319  1.2617 -1.3288  0.1430
 2592TIP3    H229268   6.691   5.728   4.267 -2.4010 -0.5656 -0.8129
 2593TIP3   OH229269   3.197   5.098   6.444  0.0683 -0.0090  0.0153
 2593TIP3    H129270   3.119   5.092   6.389 -0.2048  1.9818  0.1480
 2593TIP3    H229271   3.237   5.011   6.439  0.2174  0.2175 -3.5407
 2594TIP3   OH229272   2.468   4.131   5.071 -0.3875 -0.2435 -0.3807
 2594TIP3    H129273   2.456   4.154   5.163  0.7790  1.2327 -0.5781
 2594TIP3    H229274   2.552   4.084   5.069  0.4424  1.2309 -0.9221
 2595TIP3   OH229275   5.741   0.479   0.322 -0.4297  0.3939  0.0920
 2595TIP3    H129276   5.754   0.513   0.411 -0.7242  1.6372 -0.3212
 2595TIP3    H229277   5.707   0.391   0.335  0.0348  0.3684  1.2133
 2596TIP3   OH229278   2.813   0.626  16.173  0.2203  1.1587 -0.5414
 2596TIP3    H129279   2.766   0.585  16.100 -0.1178 -1.2262  0.9579
 2596TIP3    H229280   2.754   0.694  16.205 -1.4434 -0.5688  0.1325
 2597TIP3   OH229281   6.134   3.476   3.080 -0.2086 -0.5631 -0.3064
 2597TIP3    H129282   6.044   3.497   3.106  0.0717 -1.7364  1.7728
 2597TIP3    H229283   6.152   3.392   3.123  1.5175 -0.8743 -1.5860
 2598TIP3   OH229284   0.079   6.521  16.232  0.3901  0.3047 -0.1983
 2598TIP3    H129285   0.021   6.468  16.288 -0.8078 -0.6774 -2.2777
 2598TIP3    H229286   0.039   6.607  16.230 -0.9191 -0.3039 -1.4203
 2599TIP3   OH229287   3.667   4.186   4.657  0.9960 -0.0862 -0.1395
 2599TIP3    H129288   3.660   4.105   4.706  0.3619  0.4324  0.6507
 2599TIP3    H229289   3.669   4.159   4.565 -0.9900 -0.9161  0.0216
 2600TIP3   OH229290   3.621   2.083  11.980  0.8211  0.3569 -0.1376
 2600TIP3    H129291   3.624   2.075  11.885 -2.0830  1.0248 -0.3386
 2600TIP3    H229292   3.546   2.028  12.006  1.5501  0.2213  1.7519
 2601TIP3   OH229293   4.210   2.687  14.171  0.8782  0.0073  0.0256
 2601TIP3    H129294   4.187   2.765  14.222  0.7326 -0.0563  0.0571
 2601TIP3    H229295   4.127   2.641  14.158  1.2519 -1.1639  1.6838
 2602TIP3   OH229296   2.387   4.854  14.215  0.2047  0.3645  0.6456
 2602TIP3    H129297   2.402   4.947  14.233 -1.7881  0.8889 -0.3275
 2602TIP3    H229298   2.297   4.838  14.244  0.4165 -1.1929  0.4901
 2603TIP3   OH229299   3.219   4.387  14.971 -0.2304 -0.1522  0.0034
 2603TIP3    H129300   3.287   4.381  14.904  0.3664 -0.7688  0.6603
 2603TIP3    H229301   3.220   4.479  14.999 -0.3343  0.0556 -0.6718
 2604TIP3   OH229302   1.305   4.936  15.363  0.2231  0.7714 -0.0137
 2604TIP3    H129303   1.371   5.005  15.351  0.6095  0.1938 -1.3080
 2604TIP3    H229304   1.268   4.923  15.276 -1.1378  0.6047  0.5772
 2605TIP3   OH229305   1.172   0.913   1.056 -0.1279  0.6103  0.0440
 2605TIP3    H129306   1.182   0.817   1.051  0.9775  0.7520 -0.6978
 2605TIP3    H229307   1.234   0.940   1.123 -0.5748  0.7979  0.3849
 2606TIP3   OH229308   4.917   1.228  13.954  0.4878 -0.8122  0.2682
 2606TIP3    H129309   4.886   1.171  14.023  0.5870 -2.1168 -0.7501
 2606TIP3    H229310   4.900   1.180  13.873  3.0171 -0.5635 -0.4647
 2607TIP3   OH229311   4.429   0.425   0.311 -0.8425  0.2119  0.7136
 2607TIP3    H129312   4.457   0.340   0.346  0.1216  0.8795  1.6019
 2607TIP3    H229313   4.511   0.471   0.295 -1.3480  0.7317 -0.3976
 2608TIP3   OH229314   5.657   6.476   4.535 -0.3122 -0.1424  0.0995
 2608TIP3    H129315   5.583   6.494   4.477 -0.1131  1.8018  0.4323
 2608TIP3    H229316   5.732   6.468   4.476  0.3251  4.2345  0.1997
 2609TIP3   OH229317   0.204   4.335   0.404  0.3544  0.3737  0.3195
 2609TIP3    H129318   0.253   4.295   0.475 -0.5467  1.1667  1.4007
 2609TIP3    H229319   0.117   4.350   0.440  0.1680  1.6893 -0.6352
 2610TIP3   OH229320   6.501   1.761   5.584 -0.0825  0.2121 -0.1984
 2610TIP3    H129321   6.589   1.728   5.566 -0.6731 -0.7300 -1.4592
 2610TIP3    H229322   6.451   1.739   5.505 -0.2589  5.0099 -1.5951
 2611TIP3   OH229323   4.852   4.449   4.438 -0.2199  0.3037 -0.6382
 2611TIP3    H129324   4.850   4.354   4.455  0.5932  0.2351 -0.8953
 2611TIP3    H229325   4.891   4.456   4.351 -0.9942  0.8413 -0.9432
 2612TIP3   OH229326   2.600   5.373   4.471  0.0002 -0.0127 -0.5014
 2612TIP3    H129327   2.618   5.464   4.447 -0.0535  0.5763  1.5872
 2612TIP3    H229328   2.633   5.365   4.560  0.5446 -2.2286 -0.8761
 2613TIP3   OH229329   2.230   4.140   6.419 -0.4214 -0.0096  0.2969
 2613TIP3    H129330   2.261   4.080   6.351 -0.7225 -0.8818  0.9248
 2613TIP3    H229331   2.139   4.157   6.395 -0.2797  0.3505  0.0108
 2614TIP3   OH229332   1.246   2.860   4.453  0.5491  0.0758  0.0867
 2614TIP3    H129333   1.151   2.872   4.444  0.3980  1.4133  2.8249
 2614TIP3    H229334   1.284   2.923   4.391 -0.3601  0.6300  0.0764
 2615TIP3   OH229335   0.521   0.201   1.818  0.3234  0.5258 -0.1047
 2615TIP3    H129336   0.537   0.107   1.811 -2.4739 -0.1343  1.6521
 2615TIP3    H229337   0.520   0.232   1.727  3.2235 -0.7409 -0.6118
 2616TIP3   OH229338   5.255   0.723   3.028 -0.2880 -0.1753 -0.5651
 2616TIP3    H129339   5.251   0.815   3.052  0.7881 -0.1855 -0.3119
 2616TIP3    H229340   5.169   0.703   2.992 -0.2788  1.1358 -1.3376
 2617TIP3   OH229341   5.371   2.319  14.700  0.2326 -0.4091 -0.0259
 2617TIP3    H129342   5.303   2.336  14.634  0.5608 -0.6574 -0.4315
 2617TIP3    H229343   5.343   2.370  14.776  0.8373  1.4315 -1.0022
 2618TIP3   OH229344   6.063   0.837  14.339  0.0990  0.2838  0.0684
 2618TIP3    H129345   5.983   0.825  14.390  0.3807 -3.7217 -0.2685
 2618TIP3    H229346   6.032   0.853  14.249 -0.3221 -0.4446  0.0844
 2619TIP3   OH229347   5.815   2.689   1.620 -0.2515 -0.1720 -0.5465
 2619TIP3    H129348   5.731   2.662   1.656 -1.2252  1.9684 -1.0940
 2619TIP3    H229349   5.863   2.724   1.695 -1.5043  2.4426 -0.9070
 2620TIP3   OH229350   5.854   1.353   3.094 -0.0519 -0.5281 -0.3430
 2620TIP3    H129351   5.885   1.264   3.112 -1.0161 -0.6282  0.9337
 2620TIP3    H229352   5.843   1.356   2.999  0.4904 -1.6090 -0.4473
 2621TIP3   OH229353   4.458   2.288  12.633 -0.4739 -0.6823 -0.4766
 2621TIP3    H129354   4.460   2.222  12.701  0.5338 -0.0291  0.1515
 2621TIP3    H229355   4.369   2.287  12.600 -1.1665 -0.5277  1.3316
 2622TIP3   OH229356   3.991   1.917   0.222  0.2653  0.0590  0.7328
 2622TIP3    H129357   4.018   1.926   0.313  2.3501 -0.4776  0.1873
 2622TIP3    H229358   4.072   1.921   0.172 -0.6885 -1.2275 -0.9840
 2623TIP3   OH229359   4.473   6.371  12.003 -0.2587 -0.0454  0.0557
 2623TIP3    H129360   4.533   6.428  12.052  2.4417 -1.5632 -1.3361
 2623TIP3    H229361   4.440   6.309  12.069 -1.3458  1.5993  1.0908
 2624TIP3   OH229362   3.455   3.012  11.192  0.3790 -0.2042 -0.3962
 2624TIP3    H129363   3.391   2.983  11.256 -1.0924  3.7965  0.1188
 2624TIP3    H229364   3.426   2.974  11.109 -1.2405 -0.4332  0.2659
 2625TIP3   OH229365   2.384   6.039  13.011  0.1617 -0.2350  0.2640
 2625TIP3    H129366   2.324   5.998  12.949  1.5077 -0.3264 -1.0220
 2625TIP3    H229367   2.352   6.128  13.020 -0.9847 -0.6849  0.6851
 2626TIP3   OH229368   3.145   1.300   0.851 -0.5253  0.0461 -0.8542
 2626TIP3    H129369   3.101   1.378   0.886  1.1941  0.5374  0.3057
 2626TIP3    H229370   3.224   1.334   0.808  1.0270 -1.1244  0.9517
 2627TIP3   OH229371   1.502   0.590  16.119 -0.1327 -0.2109  0.3283
 2627TIP3    H129372   1.587   0.632  16.124 -0.0618 -0.6024  2.8541
 2627TIP3    H229373   1.521   0.496  16.115 -0.4748 -0.4031  2.9204
 2628TIP3   OH229374   2.103   0.630   1.251 -0.0578  0.6006 -0.4081
 2628TIP3    H129375   2.013   0.598   1.257 -0.7477  2.3256 -1.2535
 2628TIP3    H229376   2.094   0.725   1.252  1.8487  0.7881  0.6185
 2629TIP3   OH229377   2.439   3.182   3.118  0.4366 -0.2018  0.0600
 2629TIP3    H129378   2.475   3.241   3.052  1.3518 -0.7261  0.0849
 2629TIP3    H229379   2.386   3.238   3.174 -0.8238  0.1524 -1.4650
 2630TIP3   OH229380   1.283   4.381  14.931 -0.1414 -0.3989 -0.6260
 2630TIP3    H129381   1.291   4.366  15.026 -0.6631  0.0758 -0.5063
 2630TIP3    H229382   1.374   4.379  14.900  0.0299 -0.6287 -0.1236
 2631TIP3   OH229383   4.307   2.401  14.671 -0.1163  0.7029 -0.2397
 2631TIP3    H129384   4.235   2.365  14.620 -1.5793  0.3207  2.0250
 2631TIP3    H229385   4.308   2.494  14.648 -2.4894  1.0733  0.9645
 2632TIP3   OH229386   2.258   3.304   2.515  0.3184  0.5631  0.3429
 2632TIP3    H129387   2.345   3.271   2.538  0.7208  0.6478 -1.0624
 2632TIP3    H229388   2.272   3.398   2.500  0.0409  0.5184 -0.1813
 2633TIP3   OH229389   2.592   0.675  13.044  0.1329  0.3471 -0.2902
 2633TIP3    H129390   2.641   0.641  12.969  0.3837 -3.1852  1.4139
 2633TIP3    H229391   2.502   0.647  13.028  0.0253  0.3495  0.3044
 2634TIP3   OH229392   5.306   2.350  15.736  0.0340  0.1835  0.7083
 2634TIP3    H129393   5.330   2.439  15.762  1.1362  0.3043 -0.6531
 2634TIP3    H229394   5.388   2.300  15.741  0.0984 -0.0021 -1.5646
 2635TIP3   OH229395   2.793   0.794  16.510  0.0512  0.0926 -0.2440
 2635TIP3    H129396   2.766   0.705  16.488 -0.4526  0.1333  0.2164
 2635TIP3    H229397   2.731   0.823  16.576  1.6803 -0.0935  1.4083
 2636TIP3   OH229398   3.700   1.179   0.345  0.1529  0.0567  0.2437
 2636TIP3    H129399   3.738   1.260   0.378  4.1862 -0.5745 -2.4020
 2636TIP3    H229400   3.764   1.111   0.368 -1.8411 -1.9369  0.0749
 2637TIP3   OH229401   1.812   4.542  14.253 -0.3147 -0.0891  0.0061
 2637TIP3    H129402   1.822   4.572  14.162 -2.3254 -2.7795 -1.1774
 2637TIP3    H229403   1.812   4.446  14.246 -0.9816 -0.3184  2.7978
 2638TIP3   OH229404   2.896   5.421   4.942  0.1604  0.4241 -0.0385
 2638TIP3    H129405   2.929   5.340   4.903  0.1692  0.2145  0.3914
 2638TIP3    H229406   2.801   5.410   4.943  0.1528  0.4834 -0.1208
 2639TIP3   OH229407   3.000   1.367   1.367 -0.1755  0.1772 -0.9072
 2639TIP3    H129408   3.007   1.349   1.461 -0.5294  0.9944 -0.7230
 2639TIP3    H229409   3.069   1.430   1.349 -1.0757  1.1754 -0.8950
 2640TIP3   OH229410   1.374   5.743   0.043  0.3484  0.3256 -0.1811
 2640TIP3    H129411   1.367   5.675   0.111 -1.8161  0.9174  0.2138
 2640TIP3    H229412   1.379   5.825   0.092  0.3408  0.6438 -0.7166
 2641TIP3   OH229413   0.204   3.011  10.711 -0.2358 -0.4989  0.7020
 2641TIP3    H129414   0.276   2.950  10.721 -0.7682 -0.8437  2.6229
 2641TIP3    H229415   0.126   2.956  10.709 -0.5213 -0.0677 -0.4126
 2642TIP3   OH229416   0.208   1.659  13.483 -0.3479  0.3758 -0.2673
 2642TIP3    H129417   0.290   1.692  13.520 -0.4584  0.8583 -0.4421
 2642TIP3    H229418   0.142   1.680  13.550 -0.6853  2.0155 -1.0901
 2643TIP3   OH229419   2.395   5.020  15.848  0.4753  0.1965  0.3702
 2643TIP3    H129420   2.374   5.071  15.926 -0.6301 -2.0466  1.5726
 2643TIP3    H229421   2.481   4.981  15.866  0.2943 -0.1901  0.4098
 2644TIP3   OH229422   2.095   6.684  17.004 -0.5578  0.3739  0.2494
 2644TIP3    H129423   2.149   6.627  17.059 -0.2930  1.7492  1.4153
 2644TIP3    H229424   2.017   6.702  17.056 -0.6144  1.1417 -0.1016
 2645TIP3   OH229425   6.652   3.304   5.786  0.3240  0.1086  0.4225
 2645TIP3    H129426   6.612   3.241   5.726 -0.4414  1.7115 -0.7631
 2645TIP3    H229427   6.711   3.251   5.840  0.2549 -1.5051 -1.0582
 2646TIP3   OH229428   2.133   0.655   2.742 -0.1166 -0.6048  0.2804
 2646TIP3    H129429   2.124   0.703   2.824 -3.0248  0.5977 -0.6467
 2646TIP3    H229430   2.063   0.590   2.744  0.4350 -1.2498 -0.7835
 2647TIP3   OH229431   6.733   3.811   5.487  0.5046  0.0985  0.1336
 2647TIP3    H129432   6.678   3.871   5.437 -0.0828 -0.2865  0.3114
 2647TIP3    H229433   6.676   3.737   5.506  1.1416 -0.3902  0.1587
 2648TIP3   OH229434   4.237   5.893   5.298  0.3614 -0.3145 -0.2607
 2648TIP3    H129435   4.196   5.977   5.275 -0.6135  0.2384  3.1946
 2648TIP3    H229436   4.173   5.827   5.272 -0.0241  0.1831 -0.5815
 2649TIP3   OH229437   1.848   4.431  15.508  0.6097  0.2401 -0.3052
 2649TIP3    H129438   1.824   4.427  15.601 -0.0188  0.4427 -0.4590
 2649TIP3    H229439   1.828   4.521  15.482  0.2365  0.0210 -0.7852
 2650TIP3   OH229440   4.892   6.112   4.849 -0.2517 -0.6664 -0.0350
 2650TIP3    H129441   4.893   6.198   4.893 -0.3094 -1.3377  1.3061
 2650TIP3    H229442   4.863   6.051   4.917 -1.9047 -1.5022 -1.4556
 2651TIP3   OH229443   4.424   4.873   0.217 -0.2551 -0.0231 -0.1081
 2651TIP3    H129444   4.412   4.919   0.134  0.1024 -0.0328 -0.1670
 2651TIP3    H229445   4.517   4.850   0.218  0.7624  3.6738  2.1344
 2652TIP3   OH229446   6.749   3.753  15.867 -1.1891 -0.1074 -0.0048
 2652TIP3    H129447   6.665   3.750  15.821 -1.8795  0.9121  1.1723
 2652TIP3    H229448   6.758   3.844  15.894  0.5156 -0.1151 -0.4900
 2653TIP3   OH229449   0.265   0.289   6.336  0.1484 -0.0369  0.0864
 2653TIP3    H129450   0.225   0.213   6.294 -2.0474  1.0608  0.0791
 2653TIP3    H229451   0.197   0.356   6.332  1.2530  1.2474  2.0677
 2654TIP3   OH229452   0.220   4.793   3.317  0.1934  0.2201  0.6707
 2654TIP3    H129453   0.202   4.731   3.388 -0.7515  0.2074  0.4260
 2654TIP3    H229454   0.135   4.808   3.276  0.6461  0.6369 -0.1288
 2655TIP3   OH229455   2.427   0.156   0.166  0.4779 -0.4130  0.1569
 2655TIP3    H129456   2.407   0.158   0.072 -1.2307 -0.3226  0.5129
 2655TIP3    H229457   2.459   0.244   0.186 -1.0800  0.1832  0.0656
 2656TIP3   OH229458   4.871   3.031  16.967  0.3174  0.1238 -0.2549
 2656TIP3    H129459   4.818   3.086  17.025  0.1590 -0.1641 -0.1269
 2656TIP3    H229460   4.861   2.943  17.002 -1.5032 -0.4001 -1.9475
 2657TIP3   OH229461   6.229   0.928  12.488  0.0743  0.4755  0.9704
 2657TIP3    H129462   6.171   0.857  12.517  2.6428 -2.7641 -1.4722
 2657TIP3    H229463   6.290   0.940  12.561 -1.5475  1.6248  2.1912
 2658TIP3   OH229464   3.814   2.067   4.780 -0.1519 -0.2646  0.2581
 2658TIP3    H129465   3.768   1.984   4.778  0.4002 -0.5771  0.3654
 2658TIP3    H229466   3.781   2.116   4.705 -1.6179  0.0343  1.0849
 2659TIP3   OH229467   4.143   1.408   1.356  1.1621  0.1912 -0.1768
 2659TIP3    H129468   4.096   1.384   1.276  1.0817  0.4945 -0.2191
 2659TIP3    H229469   4.096   1.364   1.426  1.2145 -0.0500 -0.2932
 2660TIP3   OH229470   1.184   4.142  11.182 -0.0051  0.4023 -0.3930
 2660TIP3    H129471   1.089   4.133  11.173 -0.3427  3.0153  0.3039
 2660TIP3    H229472   1.213   4.055  11.207 -2.3130 -0.2366  0.2460
 2661TIP3   OH229473   3.352   5.309  13.625 -0.1814  0.4544  0.6287
 2661TIP3    H129474   3.309   5.241  13.675  0.8927 -0.2155  0.6505
 2661TIP3    H229475   3.405   5.357  13.689  1.2967 -0.4880  0.1379
 2662TIP3   OH229476   4.065   0.441   2.853 -0.2631  0.4291  0.3045
 2662TIP3    H129477   4.103   0.425   2.767  3.0909 -0.4349  1.8862
 2662TIP3    H229478   4.087   0.532   2.872  1.2143 -0.1406  1.3241
 2663TIP3   OH229479   5.109   5.866  14.454  0.0341  0.1504  0.1403
 2663TIP3    H129480   5.112   5.962  14.458 -0.1617  0.1799 -0.4670
 2663TIP3    H229481   5.150   5.843  14.371 -0.8103 -0.2441 -0.1810
 2664TIP3   OH229482   5.570   6.625  13.673 -0.2815 -0.0130 -0.1083
 2664TIP3    H129483   5.559   6.715  13.701  0.3513 -0.0845  0.3795
 2664TIP3    H229484   5.645   6.627  13.613 -0.0714 -0.2565  0.1420
 2665TIP3   OH229485   3.183   5.437   1.177  0.6263  0.1548 -0.0152
 2665TIP3    H129486   3.230   5.500   1.122 -0.8414  0.2928 -1.1167
 2665TIP3    H229487   3.092   5.441   1.148 -0.3265  0.6941  2.8372
 2666TIP3   OH229488   2.059   5.779   0.010 -0.3834 -0.5227  0.4051
 2666TIP3    H129489   2.148   5.764   0.043 -0.2409 -0.7156 -0.0606
 2666TIP3    H229490   2.002   5.750   0.081 -0.1132 -3.2909 -0.4562
 2667TIP3   OH229491   6.053   2.123   1.047 -0.6392 -0.2960 -0.2842
 2667TIP3    H129492   6.037   2.111   0.954 -0.3870 -0.6834 -0.2800
 2667TIP3    H229493   6.082   2.037   1.077 -1.8404 -0.4867  0.3778
 2668TIP3   OH229494   0.425   3.764  16.494 -0.2445 -0.0763  0.0130
 2668TIP3    H129495   0.372   3.691  16.463 -0.7437  0.5477 -0.6250
 2668TIP3    H229496   0.506   3.757  16.444 -0.4846  0.0850 -0.4031
 2669TIP3   OH229497   3.483   4.720   5.223  0.0692 -0.1023 -0.0976
 2669TIP3    H129498   3.499   4.813   5.236  0.6394 -0.2077 -0.0363
 2669TIP3    H229499   3.430   4.715   5.144  0.0728  0.2715 -0.1225
 2670TIP3   OH229500   3.979   3.275   2.587 -0.3914 -0.0346  0.1900
 2670TIP3    H129501   3.958   3.330   2.662 -0.7046  0.0938  0.0112
 2670TIP3    H229502   3.894   3.258   2.545 -0.3163 -0.7799  0.3315
 2671TIP3   OH229503   4.664   5.665   1.401 -0.1923  0.1471  0.5129
 2671TIP3    H129504   4.568   5.663   1.401 -0.2015  0.4308 -0.3455
 2671TIP3    H229505   4.688   5.677   1.309  0.6985 -1.3723  0.5268
 2672TIP3   OH229506   6.673   4.252  12.874 -0.2249 -0.1073 -0.3068
 2672TIP3    H129507   6.725   4.173  12.857  0.5829  0.3553  0.0011
 2672TIP3    H229508   6.702   4.282  12.960 -0.6156  0.4680 -0.3733
 2673TIP3   OH229509   4.107   2.733  14.900 -0.4955 -0.0144  0.6263
 2673TIP3    H129510   4.068   2.694  14.822  2.6426 -0.5145 -0.7742
 2673TIP3    H229511   4.076   2.679  14.973 -1.0580 -1.4036 -0.6317
 2674TIP3   OH229512   3.704   5.789   0.431  0.2413  0.2691 -0.1875
 2674TIP3    H129513   3.732   5.707   0.390 -1.7994 -1.1314  1.1539
 2674TIP3    H229514   3.682   5.846   0.357  0.7163 -0.7260 -1.1161
 2675TIP3   OH229515   0.721   1.469   5.532  0.4660  0.9837 -0.4438
 2675TIP3    H129516   0.702   1.545   5.478  0.3436  1.2109 -0.0791
 2675TIP3    H229517   0.757   1.505   5.613  1.1397  0.6209 -0.5781
 2676TIP3   OH229518   2.993   2.201  13.752  0.2115 -0.0913  0.1344
 2676TIP3    H129519   3.052   2.271  13.727 -2.2635  2.3250  0.8004
 2676TIP3    H229520   3.036   2.157  13.824  2.1092  0.2788 -0.7504
 2677TIP3   OH229521   2.723   2.849   1.299  0.8452  0.2848 -0.4304
 2677TIP3    H129522   2.710   2.819   1.210  1.3251 -1.9766  0.2127
 2677TIP3    H229523   2.636   2.852   1.337  0.6959  0.6491 -0.8105
 2678TIP3   OH229524   4.798   6.260  16.850 -0.5622 -0.7545 -0.2676
 2678TIP3    H129525   4.830   6.226  16.934  0.1101 -0.3529 -0.3607
 2678TIP3    H229526   4.875   6.261  16.794 -0.9740 -0.8371 -0.8363
 2679TIP3   OH229527   0.221   5.217   1.736  0.7875 -0.1622  0.1950
 2679TIP3    H129528   0.146   5.268   1.765  0.9983 -0.5929  1.5518
 2679TIP3    H229529   0.204   5.199   1.644 -0.1731  0.7852  0.1793
 2680TIP3   OH229530   4.583   5.667  11.203 -0.1968 -0.0785 -0.0356
 2680TIP3    H129531   4.633   5.703  11.129 -2.2546  0.8300 -1.0393
 2680TIP3    H229532   4.613   5.717  11.279  1.7291 -0.8128 -0.3022
 2681TIP3   OH229533   5.102   3.945  13.312  0.3646 -0.3044  0.3942
 2681TIP3    H129534   5.076   3.893  13.389 -2.4925  1.7497  0.8633
 2681TIP3    H229535   5.075   3.891  13.237  1.3404 -1.4089  0.8115
 2682TIP3   OH229536   0.699   6.128  13.479  0.3145 -0.2576  0.2234
 2682TIP3    H129537   0.645   6.192  13.434  1.8759  1.6641  1.0126
 2682TIP3    H229538   0.771   6.110  13.418 -0.6978 -2.1439 -0.4636
 2683TIP3   OH229539   2.295   0.665  14.832 -0.4232  0.5136 -0.0118
 2683TIP3    H129540   2.214   0.710  14.856 -1.1051 -0.3493 -0.6522
 2683TIP3    H229541   2.358   0.691  14.899 -0.8020  2.4179 -0.3786
 2684TIP3   OH229542   0.114   5.643  13.949 -0.1427 -0.4161  0.0337
 2684TIP3    H129543   0.078   5.727  13.921  0.3076  0.0453  0.8212
 2684TIP3    H229544   0.087   5.581  13.881 -0.2541  0.4126 -0.6845
 2685TIP3   OH229545   5.995   5.995   4.877 -0.1532 -0.1795 -0.2259
 2685TIP3    H129546   5.994   6.083   4.839  0.2489  0.1429  0.4903
 2685TIP3    H229547   5.959   5.938   4.809  0.1178  0.4587 -0.9024
 2686TIP3   OH229548   2.410   5.196  16.546  0.6269  0.4108  0.3281
 2686TIP3    H129549   2.415   5.131  16.477  3.3165 -0.0747  0.9238
 2686TIP3    H229550   2.365   5.152  16.618  0.4926 -0.0632 -0.0474
 2687TIP3   OH229551   5.932   2.037   5.028 -0.8010  0.3650 -0.0112
 2687TIP3    H129552   5.909   2.086   4.949 -1.3755  2.2101  1.2683
 2687TIP3    H229553   5.903   1.948   5.011 -4.3635  1.5354 -0.4374
 2688TIP3   OH229554   5.478   4.182  15.854  0.1469  0.0720  0.5039
 2688TIP3    H129555   5.572   4.194  15.868  0.3011 -1.0170  0.4585
 2688TIP3    H229556   5.442   4.271  15.856  0.9698  0.3913  2.0314
 2689TIP3   OH229557   2.916   1.209  16.452  0.4394 -0.6154 -0.0652
 2689TIP3    H129558   2.962   1.197  16.535  0.4850  1.3994  0.2272
 2689TIP3    H229559   2.885   1.299  16.455 -2.7141 -1.6119 -0.6868
 2690TIP3   OH229560   1.246   1.400  16.646  0.4395 -0.6471  0.7077
 2690TIP3    H129561   1.268   1.445  16.728  1.7921 -0.2568  0.1363
 2690TIP3    H229562   1.214   1.470  16.589  1.8906 -0.5093  0.0535
 2691TIP3   OH229563   5.059   6.100   6.047 -0.0982 -0.2518  0.4106
 2691TIP3    H129564   5.131   6.062   6.098 -0.9337 -1.2198  0.8878
 2691TIP3    H229565   5.027   6.172   6.102  1.7541  1.4392 -0.6811
 2692TIP3   OH229566   4.022   2.559  13.799  0.6734  0.1576  0.2191
 2692TIP3    H129567   3.992   2.612  13.725  0.0239 -0.3808  0.1017
 2692TIP3    H229568   4.109   2.594  13.819  0.1121  1.5149  0.3735
 2693TIP3   OH229569   1.819   6.222  11.478 -0.4454  0.2888 -0.7440
 2693TIP3    H129570   1.778   6.307  11.494 -0.1444  0.5988 -1.5661
 2693TIP3    H229571   1.852   6.194  11.563 -1.8330  0.3165 -0.1993
 2694TIP3   OH229572   2.334   4.952   5.803 -0.8252 -0.0075  0.0223
 2694TIP3    H129573   2.302   4.950   5.893 -0.4467  0.0775  0.1586
 2694TIP3    H229574   2.413   4.899   5.804  0.3274  1.6660  0.1972
 2695TIP3   OH229575   5.750   4.392   0.965 -0.3480 -0.2636 -0.3268
 2695TIP3    H129576   5.694   4.470   0.961 -0.6911 -0.3255  2.3870
 2695TIP3    H229577   5.826   4.414   0.912 -0.7427  1.6893 -0.1224
 2696TIP3   OH229578   2.060   4.056   1.429  0.4052 -0.2414  1.1448
 2696TIP3    H129579   1.983   4.101   1.394 -0.3594 -1.2157  1.5357
 2696TIP3    H229580   2.129   4.073   1.365 -0.6469 -0.9515 -0.2129
 2697TIP3   OH229581   2.726   1.969  12.228 -0.7051 -0.0662  0.1773
 2697TIP3    H129582   2.647   1.986  12.279 -0.1509 -1.1251  1.4268
 2697TIP3    H229583   2.775   2.051  12.231  0.0209 -0.5440  2.6512
 2698TIP3   OH229584   2.568   2.607  10.459 -0.2458 -0.3793 -0.3778
 2698TIP3    H129585   2.564   2.696  10.424  0.1832 -0.6418 -1.1032
 2698TIP3    H229586   2.593   2.618  10.550 -2.7607  0.4101  0.2522
 2699TIP3   OH229587   3.944   3.486   3.379 -0.0772  0.4749 -0.1141
 2699TIP3    H129588   3.979   3.406   3.418  1.1875  1.2240  0.3153
 2699TIP3    H229589   3.976   3.556   3.435 -2.7820  1.1543  0.6222
 2700TIP3   OH229590   5.330   4.427  15.783 -0.4327  0.1568 -0.0148
 2700TIP3    H129591   5.311   4.385  15.699  0.4525  0.6674 -0.4616
 2700TIP3    H229592   5.250   4.477  15.803 -0.8024 -0.2943 -0.3426
 2701TIP3   OH229593   5.003   1.825  12.122  0.0695  0.4225  0.4951
 2701TIP3    H129594   4.919   1.799  12.160 -0.1242  0.9002  0.4011
 2701TIP3    H229595   5.056   1.853  12.197 -0.2132  1.0948  0.4434
 2702TIP3   OH229596   0.682   1.649  11.148 -0.2981  0.0894  0.1918
 2702TIP3    H129597   0.612   1.650  11.083  0.4255  0.8432 -0.5693
 2702TIP3    H229598   0.719   1.737  11.146  0.3775 -0.1726  0.9238
 2703TIP3   OH229599   4.970   2.775   3.560 -0.1014  0.6664 -0.4809
 2703TIP3    H129600   4.984   2.867   3.535 -0.2871  0.7661 -0.2262
 2703TIP3    H229601   4.898   2.779   3.624  0.3346  0.4076  0.0243
 2704TIP3   OH229602   6.373   1.362   5.232 -0.2383 -0.7283  0.6775
 2704TIP3    H129603   6.458   1.375   5.275  0.1663  1.8990 -0.8205
 2704TIP3    H229604   6.395   1.337   5.142 -1.0890 -2.2244  0.8614
 2705TIP3   OH229605   5.581   2.668  11.909  0.5397 -0.1227 -0.2842
 2705TIP3    H129606   5.523   2.689  11.835 -0.1795  0.0952  0.3256
 2705TIP3    H229607   5.634   2.595  11.879 -0.0367 -0.3046 -0.8732
 2706TIP3   OH229608   0.181   4.984  12.048  0.6025 -0.1643  0.1036
 2706TIP3    H129609   0.264   5.031  12.060  0.6055  0.0196 -0.5742
 2706TIP3    H229610   0.123   5.049  12.007  1.0600 -1.1594 -2.2178
 2707TIP3   OH229611   1.351   1.588  11.149 -0.3591  0.0957  0.5376
 2707TIP3    H129612   1.316   1.668  11.108  0.8737  0.2348 -0.2680
 2707TIP3    H229613   1.418   1.557  11.088  0.4177 -0.5657  1.7057
 2708TIP3   OH229614   2.641   3.308  11.527  0.2656 -0.1024  0.0190
 2708TIP3    H129615   2.679   3.332  11.611  0.0285  0.5661 -0.0682
 2708TIP3    H229616   2.636   3.390  11.478 -2.3939  0.0338  0.4673
 2709TIP3   OH229617   2.775   5.877   4.925  0.2718  0.4541  0.7491
 2709TIP3    H129618   2.825   5.937   4.870  2.0489 -1.1204  0.5985
 2709TIP3    H229619   2.778   5.793   4.879 -0.5921 -0.2086  1.8600
 2710TIP3   OH229620   3.944   2.159   6.185  0.1973  0.1554 -0.1538
 2710TIP3    H129621   3.916   2.071   6.158 -0.4653  0.2735  0.1427
 2710TIP3    H229622   3.985   2.145   6.271  0.8295  0.0202 -0.4731
 2711TIP3   OH229623   2.959   4.308  16.937 -0.3591 -0.2036  0.1967
 2711TIP3    H129624   2.866   4.334  16.942  0.0013  0.9676  0.9687
 2711TIP3    H229625   2.958   4.214  16.956 -1.3820 -0.1997  0.2295
 2712TIP3   OH229626   5.093   2.524   0.960  0.7723  0.1458  0.3125
 2712TIP3    H129627   5.051   2.453   1.010  0.8236  0.4035  0.7280
 2712TIP3    H229628   5.064   2.510   0.870 -2.0768  1.6509  0.9313
 2713TIP3   OH229629   4.964   4.321   2.170  0.2734  0.3936 -0.7082
 2713TIP3    H129630   4.944   4.243   2.118 -0.8566 -0.4385  0.9177
 2713TIP3    H229631   4.941   4.394   2.113 -2.8639 -0.4973 -0.6960
 2714TIP3   OH229632   4.662   6.616   3.195  0.0849  0.3615  0.1111
 2714TIP3    H129633   4.667   6.693   3.253  0.0212  0.9682 -0.6789
 2714TIP3    H229634   4.581   6.629   3.146 -0.1090 -0.3982  0.2261
 2715TIP3   OH229635   5.310   3.054  14.070  0.2860  0.5546 -0.3949
 2715TIP3    H129636   5.318   2.961  14.052 -2.6484  0.5009 -1.7816
 2715TIP3    H229637   5.343   3.097  13.991 -0.3780  0.6289 -0.6349
 2716TIP3   OH229638   3.536   3.519   3.591  0.4856  0.2454 -0.2757
 2716TIP3    H129639   3.579   3.433   3.585 -0.8287 -0.4285 -0.2697
 2716TIP3    H229640   3.508   3.525   3.683 -0.1814  0.3107 -0.4834
 2717TIP3   OH229641   0.614   2.110  11.238  0.5413 -0.7429  0.5732
 2717TIP3    H129642   0.578   2.198  11.241  0.5838 -0.7257  0.5581
 2717TIP3    H229643   0.654   2.097  11.324  3.3484  0.4053 -0.5310
 2718TIP3   OH229644   2.774   6.207   4.947 -0.3372  0.7478  0.0049
 2718TIP3    H129645   2.806   6.182   4.861  1.6047  2.1755  0.2642
 2718TIP3    H229646   2.699   6.151   4.963  0.2864 -0.6604 -1.9209
 2719TIP3   OH229647   6.703   4.206  17.280 -0.4022 -0.4065 -0.2713
 2719TIP3    H129648   6.679   4.299  17.280  0.1459 -0.2551 -1.7619
 2719TIP3    H229649   6.779   4.202  17.338 -1.3109 -0.1717  0.9480
 2720TIP3   OH229650   3.730   0.552  16.284  0.0836  0.1316 -0.2716
 2720TIP3    H129651   3.773   0.606  16.350 -0.3754 -0.4143  0.4880
 2720TIP3    H229652   3.787   0.476  16.274 -1.5526 -1.4606  2.0456
 2721TIP3   OH229653   1.913   5.323  15.933 -0.5645  0.0327 -0.2486
 2721TIP3    H129654   1.886   5.381  16.004 -0.9820 -0.2082 -0.2046
 2721TIP3    H229655   1.884   5.368  15.853 -0.8455 -0.0931 -0.2179
 2722TIP3   OH229656   4.954   1.990   3.011 -0.2578 -0.0325  0.5044
 2722TIP3    H129657   4.981   1.978   2.920 -1.2886 -2.2494  0.4581
 2722TIP3    H229658   4.918   2.079   3.014 -0.9667 -0.2316 -1.4554
 2723TIP3   OH229659   0.879   5.777  14.662  0.1744 -0.0820 -0.1769
 2723TIP3    H129660   0.967   5.747  14.639 -0.2407 -1.6513  0.2265
 2723TIP3    H229661   0.821   5.727  14.606 -0.5056  0.5799 -0.0759
 2724TIP3   OH229662   3.357   4.970  16.983 -0.1254  0.4039 -0.4040
 2724TIP3    H129663   3.445   5.004  16.995 -0.1626 -0.3206  2.2897
 2724TIP3    H229664   3.363   4.914  16.906  1.9735 -0.2286  0.1863
 2725TIP3   OH229665   1.876   5.509   4.798  0.0398  0.2439 -0.2609
 2725TIP3    H129666   1.890   5.602   4.815  1.2099 -0.0558  0.4955
 2725TIP3    H229667   1.812   5.482   4.863  0.1796  0.3878 -0.0614
 2726TIP3   OH229668   5.706   4.703   1.961 -0.2785 -0.4400  0.1195
 2726TIP3    H129669   5.800   4.714   1.968 -0.1765 -0.6090 -0.8676
 2726TIP3    H229670   5.670   4.746   2.038  0.5461  0.4783 -0.0032
 2727TIP3   OH229671   4.439   1.810   5.255  0.4979 -0.3635 -0.0627
 2727TIP3    H129672   4.410   1.900   5.273 -0.9453 -0.5430 -1.4167
 2727TIP3    H229673   4.426   1.763   5.337 -0.9780  0.1012 -0.0186
 2728TIP3   OH229674   2.690   4.560   0.291  0.8153 -0.6298 -0.4292
 2728TIP3    H129675   2.705   4.594   0.379 -0.0927 -0.1492 -0.4534
 2728TIP3    H229676   2.601   4.587   0.269  1.5324  0.4901 -2.0563
 2729TIP3   OH229677   2.316   5.349  11.468 -0.0816  0.3822 -0.2246
 2729TIP3    H129678   2.236   5.340  11.520  0.5559  1.0881  0.8855
 2729TIP3    H229679   2.287   5.335  11.377 -1.1446 -1.1919  0.3287
 2730TIP3   OH229680   1.225   4.216  17.091  0.0561 -0.7570  0.0856
 2730TIP3    H129681   1.231   4.123  17.072 -1.2432 -1.5627  3.3600
 2730TIP3    H229682   1.316   4.243  17.107  0.7040 -0.9062 -2.8850
 2731TIP3   OH229683   0.305   3.205  12.329 -0.0941  0.7283 -0.2778
 2731TIP3    H129684   0.294   3.284  12.276  0.0072 -0.4369 -2.0800
 2731TIP3    H229685   0.400   3.198  12.342 -0.0887  0.7618 -0.2996
 2732TIP3   OH229686   4.912   5.977   1.647  0.1282  0.1041  0.0431
 2732TIP3    H129687   4.879   6.033   1.577 -0.8487  0.8944  1.1120
 2732TIP3    H229688   4.897   6.027   1.727  0.0024 -1.3378  0.9515
 2733TIP3   OH229689   0.162   1.918   4.214 -0.2512  0.0189  0.2130
 2733TIP3    H129690   0.228   1.921   4.144  0.4176  0.8174  0.8763
 2733TIP3    H229691   0.158   2.007   4.247 -0.5934 -0.3467  1.1718
 2734TIP3   OH229692   6.457   5.359   5.756 -0.0058 -0.3473 -0.1282
 2734TIP3    H129693   6.440   5.276   5.800  0.6225 -1.0429 -1.1851
 2734TIP3    H229694   6.379   5.375   5.703  0.5356 -1.0883 -1.1772
 2735TIP3   OH229695   1.654   2.542  15.023  0.1256  0.6831  0.2127
 2735TIP3    H129696   1.633   2.621  14.972  1.4238 -1.0579 -3.1772
 2735TIP3    H229697   1.670   2.475  14.957  2.6910 -1.5091  2.9271
 2736TIP3   OH229698   2.110   0.678  14.315 -0.0441 -0.4308 -0.7871
 2736TIP3    H129699   2.078   0.766  14.335 -0.1785 -1.0560  1.8843
 2736TIP3    H229700   2.198   0.692  14.280 -0.0863  0.7747 -0.4331
 2737TIP3   OH229701   1.214   4.537  12.977 -0.0601  0.2975  0.0342
 2737TIP3    H129702   1.137   4.498  12.936  0.4209 -1.2425  0.5407
 2737TIP3    H229703   1.233   4.614  12.924 -0.4458 -0.7132 -1.6079
 2738TIP3   OH229704   1.586   6.076  16.303  0.6916 -0.1310 -0.3377
 2738TIP3    H129705   1.595   5.985  16.332 -1.2765  0.0741  0.9661
 2738TIP3    H229706   1.504   6.106  16.340  1.3038  2.2063 -0.7582
 2739TIP3   OH229707   6.785   2.258  13.095 -0.1440 -0.2933 -0.5963
 2739TIP3    H129708   6.830   2.191  13.146  1.3402  1.4615  0.4234
 2739TIP3    H229709   6.718   2.292  13.154  0.4688  0.5641 -0.3871
 2740TIP3   OH229710   6.249   6.111  15.355  0.2222  0.3531 -0.0482
 2740TIP3    H129711   6.157   6.117  15.329  0.2392 -0.9424 -0.4493
 2740TIP3    H229712   6.288   6.193  15.324 -0.5832  0.4763 -0.7532
 2741TIP3   OH229713   4.778   4.051   3.764 -0.3938 -0.2252  0.0143
 2741TIP3    H129714   4.687   4.077   3.751 -0.7502 -2.2728 -1.9189
 2741TIP3    H229715   4.818   4.061   3.678  0.4846 -1.9418  0.1904
 2742TIP3   OH229716   6.012   2.785   1.781  0.2061  0.0927  0.0747
 2742TIP3    H129717   6.058   2.701   1.785 -2.6735 -1.6271 -1.8592
 2742TIP3    H229718   5.967   2.792   1.866 -0.6509 -0.9832 -0.2874
 2743TIP3   OH229719   4.585   0.532  14.152  0.5961  0.6214  0.2988
 2743TIP3    H129720   4.545   0.449  14.179  0.2365  0.8316  0.4150
 2743TIP3    H229721   4.659   0.506  14.096 -0.7650  0.2566 -1.3833
 2744TIP3   OH229722   6.374   1.177  14.636 -0.0498  0.2076 -0.4632
 2744TIP3    H129723   6.320   1.168  14.715 -1.0057  0.1358 -1.1219
 2744TIP3    H229724   6.431   1.251  14.655 -1.6949  1.5130 -0.5125
 2745TIP3   OH229725   0.072   4.030  12.020 -0.8068 -0.4521 -0.1726
 2745TIP3    H129726   0.145   3.968  12.023 -1.8228 -1.7299 -1.5020
 2745TIP3    H229727   0.000   3.981  11.981 -1.3548  1.8517 -2.1758
 2746TIP3   OH229728   5.400   0.702   1.654 -0.2236 -0.2052  0.5555
 2746TIP3    H129729   5.466   0.722   1.720  0.2872  0.3809 -0.1206
 2746TIP3    H229730   5.340   0.776   1.657  0.4752  0.4193 -0.4648
 2747TIP3   OH229731   1.580   3.882  12.348  0.2258  0.9135  0.4506
 2747TIP3    H129732   1.557   3.871  12.255  3.0230  0.3862 -0.2184
 2747TIP3    H229733   1.587   3.793  12.381 -0.3777  1.0981  1.0742
 2748TIP3   OH229734   5.033   1.996  16.509 -0.0134  0.1997 -0.0940
 2748TIP3    H129735   5.006   1.905  16.502 -0.0765 -0.0068  2.2862
 2748TIP3    H229736   5.124   1.992  16.537 -0.3864  0.8239  1.2759
 2749TIP3   OH229737   4.141   0.167  12.656  0.3093 -0.4323  0.1748
 2749TIP3    H129738   4.130   0.163  12.751  0.4518  2.5648  0.3547
 2749TIP3    H229739   4.234   0.151  12.641  0.4300 -0.1362  0.6023
 2750TIP3   OH229740   3.047   0.680  13.670  0.7969 -0.5022 -0.2867
 2750TIP3    H129741   3.059   0.704  13.578  2.7027 -2.3012 -0.5481
 2750TIP3    H229742   3.092   0.749  13.719  0.2848  0.1412 -0.7071
 2751TIP3   OH229743   0.989   3.704   3.553 -0.4979  0.2694 -0.3674
 2751TIP3    H129744   1.076   3.742   3.566  1.5147 -4.0258 -0.2302
 2751TIP3    H229745   0.993   3.668   3.464 -2.0387 -0.2251 -0.2401
 2752TIP3   OH229746   4.137   3.768   6.299  0.6251  0.1151 -0.6524
 2752TIP3    H129747   4.135   3.862   6.317 -0.8061  0.3312 -1.7723
 2752TIP3    H229748   4.230   3.746   6.295  0.9709  1.0568  1.6795
 2753TIP3   OH229749   1.665   6.624   5.420 -0.2521 -0.1703 -0.1354
 2753TIP3    H129750   1.700   6.702   5.463  3.0977 -0.7290 -1.7239
 2753TIP3    H229751   1.578   6.612   5.459  0.1683  2.9195  1.8881
 2754TIP3   OH229752   3.374   5.927   0.143  0.0119  0.4259  0.9184
 2754TIP3    H129753   3.337   5.950   0.057 -0.5308  1.5492  1.4405
 2754TIP3    H229754   3.306   5.875   0.185  0.0385  0.3749  0.8972
 2755TIP3   OH229755   2.428   0.111  14.417 -0.0566  0.1554 -0.3879
 2755TIP3    H129756   2.473   0.068  14.489 -0.8218 -0.1654 -0.0944
 2755TIP3    H229757   2.441   0.205  14.433 -1.8198  0.1615  1.2414
 2756TIP3   OH229758   1.556   4.210   1.088 -0.4431  0.2668 -0.0174
 2756TIP3    H129759   1.527   4.283   1.033 -1.8136 -2.1288 -2.5689
 2756TIP3    H229760   1.649   4.201   1.068 -0.5517  0.4858 -0.6167
 2757TIP3   OH229761   6.173   2.112  16.980 -0.0102  0.3078  0.2408
 2757TIP3    H129762   6.101   2.065  16.936 -0.8792  1.3243  0.5407
 2757TIP3    H229763   6.242   2.047  16.990 -1.1807 -0.8917  0.6297
 2758TIP3   OH229764   1.818   2.179  11.699 -0.1409 -0.2677 -0.7924
 2758TIP3    H129765   1.756   2.214  11.634 -0.1634  0.9535 -0.1229
 2758TIP3    H229766   1.873   2.254  11.723 -0.9273 -0.3884  1.5244
 2759TIP3   OH229767   3.903   3.742   5.129 -0.5283  0.1065  0.3082
 2759TIP3    H129768   3.998   3.751   5.127 -0.3853 -0.4929  2.8829
 2759TIP3    H229769   3.877   3.773   5.216 -2.5842 -0.6603  0.0160
 2760TIP3   OH229770   1.549   6.340   6.148 -0.4078  0.3266  0.0903
 2760TIP3    H129771   1.505   6.378   6.224 -0.0007  0.5450  0.2184
 2760TIP3    H229772   1.532   6.246   6.155 -1.0848  0.4429 -0.0155
 2761TIP3   OH229773   2.148   6.317  16.835  0.2942  0.0529 -0.3982
 2761TIP3    H129774   2.147   6.406  16.871 -1.7721  0.2925 -0.9809
 2761TIP3    H229775   2.056   6.299  16.814  0.8307 -1.8686 -1.1656
 2762TIP3   OH229776   3.706   3.621  11.360  0.2080 -0.2641 -0.2625
 2762TIP3    H129777   3.720   3.529  11.382  2.5625  0.0515 -0.3213
 2762TIP3    H229778   3.723   3.668  11.441 -2.5116  0.0380  0.1751
 2763TIP3   OH229779   5.024   3.233  11.507 -0.6943  0.1348  0.4631
 2763TIP3    H129780   5.098   3.187  11.467 -0.2225  3.4042 -2.7128
 2763TIP3    H229781   4.951   3.218  11.446 -0.8485  2.4216  0.0384
 2764TIP3   OH229782   5.242   6.510   0.926 -0.1032 -0.0657  0.0974
 2764TIP3    H129783   5.297   6.450   0.976  2.5894  2.4939  0.3312
 2764TIP3    H229784   5.201   6.566   0.992 -0.2268  0.2784 -0.2676
 2765TIP3   OH229785   3.353   5.627  14.577  0.3937  0.4682  0.1699
 2765TIP3    H129786   3.264   5.612  14.546 -0.3342  0.1057  2.3053
 2765TIP3    H229787   3.379   5.543  14.616  1.6348  0.6023 -0.3431
 2766TIP3   OH229788   1.573   6.438  12.386 -0.2590  0.8407 -0.2093
 2766TIP3    H129789   1.523   6.425  12.306  1.2477  0.8548 -1.1678
 2766TIP3    H229790   1.647   6.377  12.378 -0.4564  0.3521  1.4776
 2767TIP3   OH229791   1.461   0.966  15.714  0.3982  0.2458  0.3938
 2767TIP3    H129792   1.380   0.965  15.764  0.3623  0.0103  0.3364
 2767TIP3    H229793   1.433   0.946  15.624  0.3641  1.4411  0.1256
 2768TIP3   OH229794   1.448   4.481  14.506 -0.1176  0.2158  0.2781
 2768TIP3    H129795   1.532   4.522  14.488 -0.4892  0.9761  0.2825
 2768TIP3    H229796   1.391   4.507  14.434 -0.6775  0.6261  0.8561
 2769TIP3   OH229797   3.239   1.455  11.976 -0.3552 -0.7913  0.7449
 2769TIP3    H129798   3.272   1.532  11.929  0.6069 -0.0359  2.5918
 2769TIP3    H229799   3.312   1.393  11.974 -0.0806 -0.5177  1.7211
 2770TIP3   OH229800   1.826   0.130   3.196 -0.4415 -0.5309 -0.7813
 2770TIP3    H129801   1.836   0.219   3.228  1.5630 -1.0422  0.0530
 2770TIP3    H229802   1.736   0.106   3.220  0.2310 -0.0600  2.4208
 2771TIP3   OH229803   2.000   0.651  13.110  0.1242 -0.2219  0.7112
 2771TIP3    H129804   2.076   0.593  13.104  0.0776 -0.1084 -1.9262
 2771TIP3    H229805   1.952   0.633  13.029 -1.6509  1.0961  1.4619
 2772TIP3   OH229806   0.097   2.562  12.102  0.0263 -0.3009 -0.3911
 2772TIP3    H129807   0.022   2.504  12.111  0.9709 -1.4572  0.1552
 2772TIP3    H229808   0.110   2.570  12.007 -1.8901  1.3852 -0.5417
 2773TIP3   OH229809   0.027   6.734   2.213 -0.1301 -0.1400  0.5439
 2773TIP3    H129810  -0.056   6.758   2.254 -0.5874 -0.7593 -0.0119
 2773TIP3    H229811   0.027   6.783   2.130 -0.3202 -0.7856  0.1629
 2774TIP3   OH229812   2.924   4.198   2.509 -0.3848 -0.2223 -0.0634
 2774TIP3    H129813   2.913   4.118   2.458 -0.8622  0.0770 -0.4267
 2774TIP3    H229814   2.964   4.261   2.449 -1.1521  0.1992 -0.1368
 2775TIP3   OH229815   3.277   1.561  15.953 -0.3575 -0.2745 -0.0448
 2775TIP3    H129816   3.369   1.584  15.948 -0.5330  0.6084  0.6798
 2775TIP3    H229817   3.248   1.596  16.038 -1.2177 -1.0306 -0.0224
 2776TIP3   OH229818   3.708   3.145   4.357 -0.2208 -0.0437 -0.1794
 2776TIP3    H129819   3.660   3.203   4.298  1.3486  2.1678  0.6016
 2776TIP3    H229820   3.791   3.129   4.311 -1.4938 -3.5487 -1.3773
 2777TIP3   OH229821   4.167   6.535  11.406  0.2228 -0.4152 -0.3992
 2777TIP3    H129822   4.147   6.530  11.313 -1.0932  0.6215 -0.1949
 2777TIP3    H229823   4.083   6.515  11.449  0.1132  1.9447  0.5297
 2778TIP3   OH229824   6.059   2.368  12.939  0.1152  0.0194 -0.0680
 2778TIP3    H129825   6.090   2.278  12.939 -0.1001 -0.0549 -0.2412
 2778TIP3    H229826   5.967   2.363  12.911  0.2033  0.3195 -0.4297
 2779TIP3   OH229827   5.756   2.363  17.197  0.1367 -0.1235  0.5356
 2779TIP3    H129828   5.849   2.386  17.194  0.0958  0.0805  0.7440
 2779TIP3    H229829   5.724   2.382  17.109 -0.2409  2.1340  1.1154
 2780TIP3   OH229830   2.536   3.994  14.252  0.0894 -0.1754  0.7738
 2780TIP3    H129831   2.620   3.964  14.287  0.7261 -0.2426 -0.7590
 2780TIP3    H229832   2.538   3.968  14.160 -2.4586 -1.9162  1.1747
 2781TIP3   OH229833   1.313   5.235   2.374  0.3961  0.2140  0.5062
 2781TIP3    H129834   1.300   5.154   2.325  0.7658  0.5025 -0.0782
 2781TIP3    H229835   1.270   5.302   2.321 -1.1071  0.1981  1.6734
 2782TIP3   OH229836   3.122   3.406   3.583  0.0491  0.5874  0.2259
 2782TIP3    H129837   3.180   3.440   3.515 -1.6241  0.9005 -1.0858
 2782TIP3    H229838   3.149   3.314   3.593  1.4511  1.0051  0.3980
 2783TIP3   OH229839   6.517   3.723  10.359 -0.4489 -0.2078 -0.3725
 2783TIP3    H129840   6.601   3.723  10.405  0.4572  2.1145 -1.9869
 2783TIP3    H229841   6.455   3.759  10.423 -0.6982 -3.7141  1.5157
 2784TIP3   OH229842   1.901   1.261  16.830 -0.6614  0.0059  0.1810
 2784TIP3    H129843   1.815   1.220  16.836 -1.2932  1.6040  3.5121
 2784TIP3    H229844   1.952   1.219  16.900  0.3912  0.9460 -0.0069
 2785TIP3   OH229845   0.198   2.211  15.198  0.4702  0.0731 -0.0986
 2785TIP3    H129846   0.148   2.255  15.266  0.0732  0.2232 -0.4858
 2785TIP3    H229847   0.164   2.246  15.116  1.0012 -0.0455 -0.3756
 2786TIP3   OH229848   2.713   3.010  11.418 -0.0106 -0.7582  0.0616
 2786TIP3    H129849   2.637   3.045  11.370  0.7977  0.4643 -0.3425
 2786TIP3    H229850   2.677   2.985  11.503 -0.5163  1.6508  0.5937
 2787TIP3   OH229851   0.364   1.747  13.894  0.0857  0.5172  0.5150
 2787TIP3    H129852   0.411   1.819  13.936 -0.0206  1.5769 -1.1434
 2787TIP3    H229853   0.396   1.747  13.804  0.1146 -1.5605  0.5124
 2788TIP3   OH229854   1.302   3.727  11.791  0.3358  0.0175  0.1542
 2788TIP3    H129855   1.287   3.817  11.821  2.3625  0.5763 -0.3952
 2788TIP3    H229856   1.217   3.684  11.798 -0.3394  1.5710  1.8265
 2789TIP3   OH229857   3.804   6.689  16.179 -0.0782  0.3379  0.2364
 2789TIP3    H129858   3.869   6.749  16.144  1.6118 -1.0609  0.9386
 2789TIP3    H229859   3.843   6.654  16.259 -0.7533 -2.1378 -0.4608
 2790TIP3   OH229860   4.483   1.118   1.470  0.0504 -0.2247 -0.9035
 2790TIP3    H129861   4.426   1.161   1.533  0.1952 -2.7128  1.0255
 2790TIP3    H229862   4.569   1.159   1.482 -0.0742 -0.2463  0.1120
 2791TIP3   OH229863   1.608   4.111   0.465 -0.0951 -0.4420 -0.0320
 2791TIP3    H129864   1.604   4.201   0.496  2.4740 -0.7733  1.4612
 2791TIP3    H229865   1.521   4.093   0.430 -0.6907  2.5456 -0.2090
 2792TIP3   OH229866   5.825   0.189  15.615  0.2841  0.3474 -0.3320
 2792TIP3    H129867   5.910   0.165  15.577 -0.7697 -2.1882 -1.1490
 2792TIP3    H229868   5.816   0.132  15.691 -0.7264  0.5872 -0.2716
 2793TIP3   OH229869   4.397   2.784   1.906  0.1511  0.4184  0.2667
 2793TIP3    H129870   4.315   2.736   1.893  1.2080 -0.8470 -2.0588
 2793TIP3    H229871   4.442   2.737   1.976 -0.6727  0.5716  0.9128
 2794TIP3   OH229872   4.117   3.856   0.939 -0.1667  0.1765  0.5920
 2794TIP3    H129873   4.070   3.791   0.991 -0.2174  0.6976  1.2043
 2794TIP3    H229874   4.088   3.841   0.849 -0.2110 -0.6175  0.7410
 2795TIP3   OH229875   3.749   4.640   0.492  0.4747  0.1716  0.1503
 2795TIP3    H129876   3.760   4.729   0.526 -0.0649  1.1862 -2.1770
 2795TIP3    H229877   3.836   4.616   0.461  0.5106  0.0868  0.3164
 2796TIP3   OH229878   0.314   2.797  11.608  0.2628  0.1569  0.4411
 2796TIP3    H129879   0.372   2.838  11.544 -0.0400  0.2351  0.2150
 2796TIP3    H229880   0.373   2.758  11.673  0.5409  1.1633  0.7930
 2797TIP3   OH229881   5.619   5.702   4.039  0.1706 -0.1442  0.0274
 2797TIP3    H129882   5.687   5.635   4.043  0.2581  0.0523  2.9288
 2797TIP3    H229883   5.654   5.775   4.089 -1.3937  0.7148 -0.0987
 2798TIP3   OH229884   3.990   5.612  15.711 -0.2442 -0.6154  0.4429
 2798TIP3    H129885   3.942   5.550  15.657 -0.2012 -0.7348  0.5436
 2798TIP3    H229886   3.959   5.698  15.682 -0.2116 -0.6789  0.2217
 2799TIP3   OH229887   1.703   6.538   0.914  0.3920  0.2360  0.4280
 2799TIP3    H129888   1.759   6.479   0.966 -1.6283 -0.0651  2.3270
 2799TIP3    H229889   1.614   6.516   0.940 -0.5263  2.3521 -0.7821
 2800TIP3   OH229890   4.324   2.660   5.801  0.2350  0.4267 -0.3552
 2800TIP3    H129891   4.402   2.715   5.789 -0.6525  1.7661 -0.0228
 2800TIP3    H229892   4.330   2.595   5.731  2.5971 -0.6156  0.7679
 2801TIP3   OH229893   4.935   5.981   2.383  0.0644 -0.2920  0.6353
 2801TIP3    H129894   4.915   6.067   2.345 -0.5571 -0.2439  1.0545
 2801TIP3    H229895   5.014   5.953   2.338 -2.0294 -1.3792 -2.5032
 2802TIP3   OH229896   5.927   0.651   6.104 -0.3128 -0.4750  0.5982
 2802TIP3    H129897   5.865   0.637   6.176 -0.0202  1.0754  1.1761
 2802TIP3    H229898   5.873   0.674   6.029 -0.6092 -1.8912  0.3775
 2803TIP3   OH229899   1.088   0.630  16.631  0.2298  0.0492  0.3800
 2803TIP3    H129900   1.122   0.567  16.567 -0.5728 -0.7646  0.7389
 2803TIP3    H229901   1.149   0.625  16.704  0.5718  0.2148  0.1052
 2804TIP3   OH229902   0.917   5.316   2.348  0.0330  0.0009  0.1080
 2804TIP3    H129903   0.859   5.391   2.362 -0.2277  0.2730 -2.2340
 2804TIP3    H229904   1.001   5.355   2.324  0.4844 -0.4362  0.9661
 2805TIP3   OH229905   3.132   4.867  12.417 -0.3279 -0.0431 -0.6901
 2805TIP3    H129906   3.127   4.903  12.506  0.1554 -1.3852 -0.0982
 2805TIP3    H229907   3.085   4.930  12.363 -0.9383  0.6194  0.5828
 2806TIP3   OH229908   5.418   4.936  14.598 -0.0130  0.4609  0.0487
 2806TIP3    H129909   5.464   4.880  14.535 -0.1602  1.0164 -0.5562
 2806TIP3    H229910   5.442   4.900  14.684 -0.1332 -0.5548 -0.3346
 2807TIP3   OH229911   4.803   3.191  12.768  0.3269  0.2391  0.5389
 2807TIP3    H129912   4.863   3.223  12.700  1.2266 -0.8041  0.8355
 2807TIP3    H229913   4.860   3.175  12.844 -0.6792  1.5066  1.5908
 2808TIP3   OH229914   3.887   3.957  13.328  0.1021 -0.1074  0.3543
 2808TIP3    H129915   3.854   3.890  13.388  0.7665  0.2717  1.1415
 2808TIP3    H229916   3.891   4.036  13.380 -0.6119  0.5398 -0.5608
 2809TIP3   OH229917   6.325   3.767  15.117 -0.2945 -0.4375 -0.8672
 2809TIP3    H129918   6.344   3.777  15.024 -0.7530  1.5702 -0.7748
 2809TIP3    H229919   6.287   3.851  15.143 -0.8982 -1.2391  0.9600
 2810TIP3   OH229920   5.373   2.883  11.826  0.3238 -0.5342 -0.0805
 2810TIP3    H129921   5.355   2.904  11.734 -2.1925  0.0414  0.5361
 2810TIP3    H229922   5.326   2.801  11.841 -0.7503  0.3209  1.2101
 2811TIP3   OH229923   5.354   5.023   2.542  0.1883 -0.0670 -0.0679
 2811TIP3    H129924   5.396   5.094   2.591  1.0423 -0.1151 -0.7211
 2811TIP3    H229925   5.265   5.020   2.577  1.5981 -2.1017  3.6271
 2812TIP3   OH229926   3.457   2.455  11.450 -0.1807 -0.6211 -1.1094
 2812TIP3    H129927   3.548   2.483  11.444  0.2009 -1.5338  0.2974
 2812TIP3    H229928   3.410   2.534  11.479  0.6584 -0.9725  1.3060
 2813TIP3   OH229929   2.213   6.621   5.132  0.0402 -0.0420 -0.6272
 2813TIP3    H129930   2.292   6.587   5.091  0.5323 -0.4094  0.6264
 2813TIP3    H229931   2.237   6.638   5.223 -0.8627  1.3833 -0.6327
 2814TIP3   OH229932   0.259   2.466  11.885  0.4844  0.1448 -0.4303
 2814TIP3    H129933   0.341   2.512  11.868  0.9471  0.0228  1.3354
 2814TIP3    H229934   0.274   2.377  11.852  1.2329 -0.0026  0.2738
 2815TIP3   OH229935   1.144   3.322  11.748  0.7277 -0.0482  0.7735
 2815TIP3    H129936   1.119   3.414  11.760 -0.7189 -0.6807  2.8411
 2815TIP3    H229937   1.070   3.272  11.783  1.6750 -2.0123  0.0418
 2816TIP3   OH229938   3.588   3.518   4.971  0.4715  0.5320 -0.0985
 2816TIP3    H129939   3.502   3.552   4.996  0.4948  1.8535 -1.7580
 2816TIP3    H229940   3.569   3.445   4.912  0.4640 -0.5779  1.2659
 2817TIP3   OH229941   5.640   2.539  12.511 -0.7684  0.2510 -0.0458
 2817TIP3    H129942   5.656   2.630  12.485  1.7580 -0.0981  0.1657
 2817TIP3    H229943   5.642   2.490  12.429  1.7097 -0.1115  0.2111
 2818TIP3   OH229944   4.671   4.807   5.711 -0.1994 -0.3056 -0.5496
 2818TIP3    H129945   4.661   4.902   5.715  1.4634 -0.0401 -2.0273
 2818TIP3    H229946   4.746   4.788   5.769  1.9015 -0.2523 -3.1633
 2819TIP3   OH229947   3.354   2.155   5.551  0.3811  0.1289 -0.3049
 2819TIP3    H129948   3.367   2.062   5.538 -1.1535  0.0549 -1.5206
 2819TIP3    H229949   3.413   2.179   5.622  0.4410 -1.8553  0.3190
 2820TIP3   OH229950   3.204   4.193  15.391  0.0685 -0.2505  0.3051
 2820TIP3    H129951   3.190   4.285  15.370  0.2571  0.2638  2.2715
 2820TIP3    H229952   3.121   4.165  15.431 -0.2417 -1.1504 -0.9272
 2821TIP3   OH229953   0.516   6.199   1.520 -0.1808  0.1301  0.6858
 2821TIP3    H129954   0.530   6.115   1.564  0.6432  1.6083  3.3859
 2821TIP3    H229955   0.601   6.221   1.482 -0.1055  0.2522  0.9231
 2822TIP3   OH229956   4.159   6.428   4.049  0.3884 -0.2261  0.4872
 2822TIP3    H129957   4.202   6.481   4.117  2.6502 -0.4702 -0.6877
 2822TIP3    H229958   4.132   6.492   3.983 -0.0386 -0.1795  0.7093
 2823TIP3   OH229959   2.398   2.741   2.755 -0.1490  0.0105  0.3715
 2823TIP3    H129960   2.376   2.798   2.829 -1.3774 -1.8189  1.4646
 2823TIP3    H229961   2.487   2.711   2.773 -0.2790 -0.0703  0.8914
 2824TIP3   OH229962   1.016   5.164  15.772 -0.5243 -0.2367 -0.5463
 2824TIP3    H129963   1.017   5.068  15.771  0.3075 -0.2271 -1.3931
 2824TIP3    H229964   0.929   5.187  15.805 -0.5970 -1.2837  0.0023
 2825TIP3   OH229965   1.637   6.714  12.314 -0.6700 -0.1471 -0.6308
 2825TIP3    H129966   1.589   6.642  12.355  2.1564 -1.5448  0.3666
 2825TIP3    H229967   1.701   6.671  12.257  1.7129  1.4906  0.7204
 2826TIP3   OH229968   2.592   4.107   4.511  0.4552  0.6245 -0.1001
 2826TIP3    H129969   2.683   4.085   4.491  0.1499 -0.0580 -0.7767
 2826TIP3    H229970   2.541   4.042   4.463 -0.4736  2.5647 -1.8490
 2827TIP3   OH229971   1.871   1.645   5.764  0.3796 -0.4210  0.0729
 2827TIP3    H129972   1.789   1.597   5.772 -0.6698  1.1275 -1.0209
 2827TIP3    H229973   1.930   1.604   5.826 -1.4442 -1.1207  1.3601
 2828TIP3   OH229974   2.390   1.912   3.257 -0.4197 -0.1196  0.0145
 2828TIP3    H129975   2.399   2.007   3.262 -1.3428 -0.1100  2.0419
 2828TIP3    H229976   2.418   1.880   3.343 -1.0487 -1.6062 -0.3023
 2829TIP3   OH229977   2.732   5.598   5.284 -0.3893 -0.1365  0.4194
 2829TIP3    H129978   2.781   5.678   5.262 -0.6582  0.3473  1.5635
 2829TIP3    H229979   2.798   5.529   5.283 -0.0711  0.1641 -0.1309
 2830TIP3   OH229980   0.409   4.410  13.590  0.5680  0.0590 -0.3210
 2830TIP3    H129981   0.399   4.492  13.638  1.7363 -0.9350  1.6788
 2830TIP3    H229982   0.444   4.436  13.505  3.0217  1.4864  1.0578
 2831TIP3   OH229983   3.680   3.850  16.996  0.4211  0.2244 -0.5146
 2831TIP3    H129984   3.653   3.920  17.055 -2.7378 -1.7717  0.4974
 2831TIP3    H229985   3.624   3.861  16.919  0.4016 -0.7360 -0.6415
 2832TIP3   OH229986   3.782   6.727  14.381  0.0233 -0.3368  0.1272
 2832TIP3    H129987   3.727   6.727  14.303  1.2376  3.3101 -0.8279
 2832TIP3    H229988   3.868   6.698  14.349  0.6501  1.6467 -0.0331
 2833TIP3   OH229989   4.372   4.623  17.254  0.3483 -0.3220 -0.9867
 2833TIP3    H129990   4.286   4.655  17.282  1.1894  1.7964 -0.7026
 2833TIP3    H229991   4.353   4.567  17.179 -1.0720  2.3645 -2.7021
 2834TIP3   OH229992   2.696   0.284  14.705  0.6069 -0.2535  0.1253
 2834TIP3    H129993   2.682   0.196  14.672 -0.7465 -0.1951  0.5298
 2834TIP3    H229994   2.790   0.299  14.695  0.9694 -2.0193  0.7659
 2835TIP3   OH229995   5.594   4.102   4.009 -0.0133  0.1958  0.0427
 2835TIP3    H129996   5.659   4.036   3.985  0.3347  0.9347 -1.1016
 2835TIP3    H229997   5.637   4.153   4.078  0.6965  0.7463 -0.7785
 2836TIP3   OH229998   3.149   2.972  14.161  0.0196  0.0672  0.2314
 2836TIP3    H129999   3.143   3.008  14.073 -1.2459  0.0965  0.3288
 2836TIP3    H230000   3.078   2.908  14.166  0.1699 -0.0319  1.1785
 2837TIP3   OH230001   1.732   1.552  13.777  0.4116 -0.0779  0.3835
 2837TIP3    H130002   1.678   1.583  13.850  1.6749 -0.3285  1.4388
 2837TIP3    H230003   1.805   1.614  13.773  0.8126 -0.5747 -0.0960
 2838TIP3   OH230004   3.246   0.687   2.960 -0.7879 -0.3915 -0.0926
 2838TIP3    H130005   3.337   0.670   2.936 -1.2605 -2.1609 -0.7357
 2838TIP3    H230006   3.243   0.671   3.054 -0.7970 -2.0566 -0.3632
 2839TIP3   OH230007   1.146   2.120   1.393  0.4273  0.4016 -0.2202
 2839TIP3    H130008   1.111   2.172   1.466  1.3756 -0.8958  1.2131
 2839TIP3    H230009   1.085   2.047   1.385  0.8205  0.0615 -0.1268
 2840TIP3   OH230010   2.808   0.055  16.333 -0.0721  0.4002  0.6311
 2840TIP3    H130011   2.752   0.090  16.402  1.9877  1.2171  1.9270
 2840TIP3    H230012   2.847   0.132  16.291  1.2189 -0.1811  0.7227
 2841TIP3   OH230013   6.360   3.340  14.707  0.6063 -0.0618  0.2272
 2841TIP3    H130014   6.338   3.379  14.622 -0.2406  2.1440  1.4073
 2841TIP3    H230015   6.285   3.361  14.763  0.6821 -2.3871  1.2636
 2842TIP3   OH230016   5.951   1.825  11.515 -0.2814 -0.2001  0.2426
 2842TIP3    H130017   6.042   1.807  11.494 -0.7995 -0.5657 -1.7635
 2842TIP3    H230018   5.907   1.740  11.510 -0.7642 -0.0208  1.1491
 2843TIP3   OH230019   1.665   1.289   1.445  0.2891 -0.6141  0.0635
 2843TIP3    H130020   1.644   1.314   1.355 -2.2136  1.1922  1.1293
 2843TIP3    H230021   1.678   1.371   1.491  0.1708 -1.4870  1.6990
 2844TIP3   OH230022   2.668   2.912  12.500  0.0866  0.2115  0.0014
 2844TIP3    H130023   2.679   2.892  12.407  0.4282  1.2857 -0.1944
 2844TIP3    H230024   2.653   3.007  12.503  1.4884  0.4039  1.1579
 2845TIP3   OH230025   4.673   1.395  16.895 -0.2697 -0.0381  0.1118
 2845TIP3    H130026   4.717   1.436  16.820 -1.1806 -0.2093 -0.5276
 2845TIP3    H230027   4.663   1.303  16.870  1.6585 -0.6550  1.4971
 2846TIP3   OH230028   2.580   2.236   6.055  0.3952  0.0177 -0.2968
 2846TIP3    H130029   2.564   2.272   6.142  1.8022  1.1489 -0.4789
 2846TIP3    H230030   2.552   2.144   6.061 -0.1495  0.2666  1.1423
 2847TIP3   OH230031   0.900   3.429   1.075  0.3336 -0.3461 -0.3510
 2847TIP3    H130032   0.861   3.511   1.046  1.3770  0.2837  0.0071
 2847TIP3    H230033   0.930   3.387   0.994 -1.4965 -1.0797 -0.6880
 2848TIP3   OH230034   4.619   6.661  16.125  0.2293 -0.4518  0.1128
 2848TIP3    H130035   4.560   6.683  16.196 -0.6380 -2.7666  0.1592
 2848TIP3    H230036   4.565   6.667  16.046  0.6304 -0.0052 -0.1336
 2849TIP3   OH230037   4.270   2.168   1.401 -0.2041  0.3214  0.0518
 2849TIP3    H130038   4.348   2.113   1.405 -1.2186 -1.1023  0.5992
 2849TIP3    H230039   4.202   2.111   1.364 -1.0837  1.4166 -0.0423
 2850TIP3   OH230040   1.249   5.789  17.107  0.0507 -0.1103 -0.2930
 2850TIP3    H130041   1.293   5.874  17.113  2.3771 -1.1801 -1.5780
 2850TIP3    H230042   1.260   5.751  17.194 -1.0027  0.8913  0.2914
 2851TIP3   OH230043   5.210   4.740   0.657  0.3047  0.0363  0.0785
 2851TIP3    H130044   5.142   4.793   0.615  2.2208  1.7715 -0.9098
 2851TIP3    H230045   5.278   4.730   0.590  1.0276 -1.7060  1.0342
 2852TIP3   OH230046   4.163   2.639   1.820  0.1697  0.0181  0.5268
 2852TIP3    H130047   4.122   2.562   1.860  1.0155 -0.2873  0.8136
 2852TIP3    H230048   4.096   2.674   1.761 -0.7787 -0.0162  1.5881
 2853TIP3   OH230049   1.169   0.521  15.153 -0.1112  0.2765  0.3110
 2853TIP3    H130050   1.083   0.487  15.178 -0.2176  0.6806  0.5165
 2853TIP3    H230051   1.151   0.611  15.126  0.1518  0.1501 -0.2821
 2854TIP3   OH230052   0.075   6.751   4.718  0.6047  0.0048 -0.7752
 2854TIP3    H130053   0.087   6.807   4.795  1.2617 -0.0635 -0.8308
 2854TIP3    H230054  -0.018   6.761   4.697  0.2215 -0.6474  0.5321
 2855TIP3   OH230055   4.351   5.811   4.650 -0.1994  0.3915  0.7744
 2855TIP3    H130056   4.272   5.757   4.649 -0.2285  0.4512 -0.1323
 2855TIP3    H230057   4.362   5.839   4.560  1.5969 -0.6714  0.6425
 2856TIP3   OH230058   2.067   3.967   3.323  0.4988 -0.0957  0.0055
 2856TIP3    H130059   2.151   3.924   3.306  1.4198  0.2012  3.4593
 2856TIP3    H230060   2.090   4.058   3.340 -0.6540  0.1988  0.0509
 2857TIP3   OH230061   6.372   3.273  10.710  0.4586  0.2094 -0.4833
 2857TIP3    H130062   6.289   3.319  10.695 -0.7343 -2.5453 -2.6041
 2857TIP3    H230063   6.435   3.319  10.655  0.0249  1.3563 -0.0361
 2858TIP3   OH230064   0.695   0.201   0.080 -0.4905 -0.2304  0.0853
 2858TIP3    H130065   0.725   0.153   0.157  0.4138 -1.0640 -0.7738
 2858TIP3    H230066   0.614   0.157   0.055 -0.7999  0.0574  0.5667
 2859TIP3   OH230067   2.755   6.770   0.659  0.2606  0.0102  0.0755
 2859TIP3    H130068   2.765   6.692   0.714  1.0741  1.3096  1.8077
 2859TIP3    H230069   2.741   6.842   0.721  2.1896  1.6712 -1.3388
 2860TIP3   OH230070   1.555   1.770   4.963 -0.1449  0.1399  0.1430
 2860TIP3    H130071   1.636   1.719   4.964 -0.0244  0.2664 -1.4638
 2860TIP3    H230072   1.546   1.802   5.053  2.6801  1.8378 -0.1029
 2861TIP3   OH230073   5.489   6.715  15.049 -0.4217 -0.1291  0.3221
 2861TIP3    H130074   5.463   6.682  15.135  0.0486  0.1493  0.5746
 2861TIP3    H230075   5.452   6.803  15.046  1.3026  0.6476  1.0813
 2862TIP3   OH230076   3.633   5.549   2.214  0.1546  0.0285 -0.2309
 2862TIP3    H130077   3.653   5.496   2.291  0.1004  1.1198  0.5497
 2862TIP3    H230078   3.699   5.618   2.214 -0.4184  0.5897 -0.6278
 2863TIP3   OH230079   0.369   6.479  15.215  0.1027 -0.1708  0.3621
 2863TIP3    H130080   0.417   6.538  15.273 -0.9115  0.1759  0.8604
 2863TIP3    H230081   0.332   6.536  15.148 -0.0264 -0.3704  0.2624
 2864TIP3   OH230082   1.741   6.102   5.070 -0.1067 -0.0587  0.5249
 2864TIP3    H130083   1.677   6.036   5.044  0.6373 -0.6227  0.0981
 2864TIP3    H230084   1.798   6.057   5.133  0.5007  0.1288  0.1144
 2865TIP3   OH230085   4.070   1.312  15.557 -0.2923 -0.6608 -0.1522
 2865TIP3    H130086   4.107   1.396  15.531 -0.4673 -0.2379  0.9416
 2865TIP3    H230087   4.002   1.334  15.620 -1.4304 -1.5243 -1.0474
 2866TIP3   OH230088   3.081   3.661   1.607  0.4736  0.4391  0.6158
 2866TIP3    H130089   3.089   3.745   1.563 -1.7547  2.4239  3.7699
 2866TIP3    H230090   3.160   3.654   1.660  0.5468  0.6721  0.5385
 2867TIP3   OH230091   0.885   3.011  13.620  0.1617 -0.0709  0.0846
 2867TIP3    H130092   0.979   3.008  13.601  0.1650  0.7399 -0.0667
 2867TIP3    H230093   0.854   3.088  13.573 -0.5069 -0.1072  0.4587
 2868TIP3   OH230094   5.468   6.035   4.106 -0.0484 -0.0470 -0.0373
 2868TIP3    H130095   5.437   5.968   4.166 -0.5079  1.4297  1.4285
 2868TIP3    H230096   5.389   6.065   4.061 -0.0364  0.3719  0.2179
 2869TIP3   OH230097   3.356   2.814   4.355  0.2054 -0.3870 -0.1297
 2869TIP3    H130098   3.295   2.778   4.420 -2.7398  1.6074 -1.6968
 2869TIP3    H230099   3.368   2.742   4.292 -2.1182 -0.1787 -0.8522
 2870TIP3   OH230100   0.307   2.418   3.233  0.2299 -0.2410  0.0772
 2870TIP3    H130101   0.378   2.383   3.180  0.7344  0.4679  0.2711
 2870TIP3    H230102   0.350   2.475   3.296 -0.4447 -0.4100  0.7001
 2871TIP3   OH230103   0.909   1.660  16.882  0.0742  0.7860  0.0195
 2871TIP3    H130104   0.878   1.572  16.859 -1.3993  0.9957  1.0842
 2871TIP3    H230105   0.975   1.681  16.816  2.5062 -2.2406  1.3679
 2872TIP3   OH230106   0.642   6.657  14.087  0.8999  0.1408 -0.0582
 2872TIP3    H130107   0.732   6.656  14.119  1.9604 -1.5408 -2.8810
 2872TIP3    H230108   0.648   6.698  14.001 -0.7908 -1.3437 -0.9057
 2873TIP3   OH230109   0.407   6.713  10.920 -0.5602  0.7537  0.6339
 2873TIP3    H130110   0.425   6.737  10.830 -0.0204  0.2210  0.6003
 2873TIP3    H230111   0.318   6.677  10.918 -0.0761 -0.4402  0.0901
 2874TIP3   OH230112   5.772   0.806   0.436  0.5890  0.5939 -0.1785
 2874TIP3    H130113   5.745   0.782   0.524 -0.3332  0.8278 -0.3926
 2874TIP3    H230114   5.699   0.779   0.380  1.1957  0.3844 -0.8739
 2875TIP3   OH230115   6.211   4.207   2.009  0.6273 -0.0327 -0.3828
 2875TIP3    H130116   6.167   4.279   2.054  0.2654 -0.5483  0.0837
 2875TIP3    H230117   6.301   4.210   2.041  0.2695 -0.6702  0.7141
 2876TIP3   OH230118   1.548   3.534   1.785 -0.5225  0.4805 -0.2481
 2876TIP3    H130119   1.462   3.573   1.773  0.4950  2.3801 -1.7261
 2876TIP3    H230120   1.590   3.543   1.699 -0.1848 -3.8275 -0.6216
 2877TIP3   OH230121   1.000   6.204  14.738 -0.4780  0.3680 -0.5477
 2877TIP3    H130122   0.977   6.140  14.806 -0.8859 -0.6114 -1.5994
 2877TIP3    H230123   0.973   6.163  14.656 -0.9155  1.9624 -1.2282
 2878TIP3   OH230124   4.535   0.094   0.716  0.2330 -0.1147 -0.3113
 2878TIP3    H130125   4.621   0.081   0.676  0.7816 -1.4240  1.2494
 2878TIP3    H230126   4.537   0.041   0.796 -2.0054 -0.1288 -0.2285
 2879TIP3   OH230127   1.785   1.963   1.717  0.0525 -0.1959  0.2366
 2879TIP3    H130128   1.762   1.919   1.636  2.8571  0.0367 -0.7385
 2879TIP3    H230129   1.801   2.054   1.692 -0.9078  0.3132  1.3945
 2880TIP3   OH230130   4.198   0.594   2.283 -0.4080 -0.4606  0.4859
 2880TIP3    H130131   4.192   0.523   2.347 -0.6561 -0.6881  0.2118
 2880TIP3    H230132   4.265   0.653   2.318 -0.6052 -0.5389  0.9992
 2881TIP3   OH230133   0.230   4.833   2.452 -0.1997  0.1668 -0.4376
 2881TIP3    H130134   0.200   4.750   2.413 -1.1647  0.5829 -0.5892
 2881TIP3    H230135   0.170   4.899   2.417  1.2374  1.1095 -1.1879
 2882TIP3   OH230136   3.537   5.918  12.701 -0.0133 -0.0893  0.2846
 2882TIP3    H130137   3.593   5.994  12.687  0.6423 -0.8221 -1.1525
 2882TIP3    H230138   3.545   5.899  12.795  2.2412 -0.2692  0.0683
 2883TIP3   OH230139   4.428   2.286   2.640 -0.6053 -0.5146 -0.2410
 2883TIP3    H130140   4.421   2.198   2.676  2.8237 -0.1258  1.5423
 2883TIP3    H230141   4.366   2.338   2.692 -0.1273 -1.1880  1.0273
 2884TIP3   OH230142   3.411   3.632   5.158  0.5512 -0.1046 -0.2917
 2884TIP3    H130143   3.326   3.631   5.203  0.1134  0.6452 -1.0770
 2884TIP3    H230144   3.466   3.689   5.211 -0.7354  2.8664 -2.0316
 2885TIP3   OH230145   1.149   5.981   2.476 -0.9504  0.3676 -0.0962
 2885TIP3    H130146   1.102   5.902   2.448  1.5053 -1.0228 -0.4099
 2885TIP3    H230147   1.219   5.948   2.532  1.2262  2.1991 -1.7078
 2886TIP3   OH230148   3.909   6.353   2.429 -0.0135 -0.1156  0.0266
 2886TIP3    H130149   4.004   6.366   2.436 -0.1084  1.8980 -1.8458
 2886TIP3    H230150   3.890   6.365   2.336 -2.4277  1.8601  0.7043
 2887TIP3   OH230151   3.808   6.207  16.436 -0.3800  0.0704 -0.1850
 2887TIP3    H130152   3.733   6.178  16.489 -0.0924  1.1926  0.8519
 2887TIP3    H230153   3.853   6.126  16.413 -0.6839 -0.4602  1.0413
 2888TIP3   OH230154   0.622   3.903   0.699  0.4082  0.0943 -0.9066
 2888TIP3    H130155   0.622   3.866   0.788  0.9093  1.8479 -0.1555
 2888TIP3    H230156   0.533   3.889   0.668 -0.2527  0.9673  0.5277
 2889TIP3   OH230157   5.083   0.085   3.058 -0.4598 -0.4038  0.0741
 2889TIP3    H130158   5.176   0.061   3.057 -0.6261 -1.1687  1.3689
 2889TIP3    H230159   5.066   0.119   2.971  0.9902 -0.4642 -0.2476
 2890TIP3   OH230160   3.989   2.566   4.986  0.4612  0.6482 -0.4596
 2890TIP3    H130161   4.012   2.617   5.063  2.6700 -0.9091 -0.0297
 2890TIP3    H230162   4.053   2.494   4.985 -2.2097 -1.8051 -1.3231
 2891TIP3   OH230163   1.256   4.741   3.066 -0.6212  0.0713  0.0364
 2891TIP3    H130164   1.223   4.652   3.054 -1.6391  0.2508  1.3603
 2891TIP3    H230165   1.278   4.770   2.978  1.0881 -2.0009 -0.2582
 2892TIP3   OH230166   6.127   0.011   0.645  0.3605 -0.1422 -0.5394
 2892TIP3    H130167   6.124   0.052   0.732 -0.2942  0.7291 -0.9713
 2892TIP3    H230168   6.103  -0.080   0.661 -2.2800  0.5884 -0.1448
 2893TIP3   OH230169   0.983   1.551   1.782  0.1958  0.3221 -1.0992
 2893TIP3    H130170   1.077   1.537   1.782  0.2202  0.4517 -1.7783
 2893TIP3    H230171   0.950   1.498   1.854  0.6407 -0.7394 -1.6705
 2894TIP3   OH230172   0.980   6.480   5.857  0.0157 -0.0889 -0.8341
 2894TIP3    H130173   1.033   6.557   5.836  0.8703 -0.7210 -1.0098
 2894TIP3    H230174   0.931   6.462   5.776 -1.8212  1.5361 -0.1449
 2895TIP3   OH230175   6.624   1.795  15.274 -0.2756 -0.5962 -0.1206
 2895TIP3    H130176   6.555   1.758  15.328  0.4487 -0.7825  0.6840
 2895TIP3    H230177   6.624   1.742  15.194  0.4244 -2.0300  0.8098
 2896TIP3   OH230178   2.217   6.608   6.030 -0.0083  0.0439  0.3276
 2896TIP3    H130179   2.147   6.670   6.009  1.0034  0.4996 -1.8104
 2896TIP3    H230180   2.281   6.619   5.960  1.5473 -1.3849  1.4789
 2897TIP3   OH230181   1.255   4.130   1.670  0.3382 -0.1668 -0.1688
 2897TIP3    H130182   1.318   4.174   1.728 -0.4151  0.5164  0.1448
 2897TIP3    H230183   1.275   4.037   1.680  0.5782 -0.0266  0.7759
 2898TIP3   OH230184   4.200   2.336   3.444  0.1689  0.2940 -0.2507
 2898TIP3    H130185   4.263   2.402   3.415 -0.4733  0.1775 -1.9441
 2898TIP3    H230186   4.154   2.377   3.517  0.7187  1.1952 -0.4065
 2899TIP3   OH230187   6.346   4.863   6.622  0.0330  0.2948 -0.2265
 2899TIP3    H130188   6.327   4.770   6.613 -1.1654  0.3838  1.1684
 2899TIP3    H230189   6.276   4.906   6.573  0.3354  0.4697 -0.5032
 2900TIP3   OH230190   6.228   1.485   3.644  0.0092 -0.6691  0.2437
 2900TIP3    H130191   6.289   1.497   3.571  1.4907  2.8058  1.9535
 2900TIP3    H230192   6.143   1.512   3.609  0.6561  0.6961 -0.2920
 2901TIP3   OH230193   2.377   4.707  15.712 -0.1515  0.0648  0.3711
 2901TIP3    H130194   2.294   4.682  15.673  0.2888 -1.7198  0.5433
 2901TIP3    H230195   2.374   4.672  15.801 -0.2569  2.2134  1.2386
 2902TIP3   OH230196   2.617   3.246   0.438  0.3461 -0.7385 -0.3998
 2902TIP3    H130197   2.537   3.291   0.463 -0.7138 -2.3131 -0.8519
 2902TIP3    H230198   2.635   3.276   0.349  0.9573  0.5507  0.1502
 2903TIP3   OH230199   4.910   2.817  11.733 -0.2640 -0.2288  0.1737
 2903TIP3    H130200   4.962   2.823  11.813  0.5139  0.1231 -0.3584
 2903TIP3    H230201   4.837   2.878  11.748 -0.1726 -0.2337  0.6476
 2904TIP3   OH230202   0.716   6.709  15.572  0.3119  0.3052  0.5769
 2904TIP3    H130203   0.692   6.793  15.612  0.8439  0.6092  0.2549
 2904TIP3    H230204   0.748   6.732  15.485 -1.3192 -0.4091 -0.2207
 2905TIP3   OH230205   3.904   3.194   5.516 -0.0585  0.1684 -0.1032
 2905TIP3    H130206   3.902   3.191   5.611  2.4417  0.0486 -0.0187
 2905TIP3    H230207   3.994   3.218   5.494 -0.0543 -1.7385 -2.4727
 2906TIP3   OH230208   1.015   3.009  11.740 -0.2110  0.4215 -0.3846
 2906TIP3    H130209   1.055   2.983  11.823 -0.1174  0.8112 -0.3082
 2906TIP3    H230210   0.942   2.948  11.729 -0.6136  0.7828  0.2989
 2907TIP3   OH230211   6.369   5.357  14.717 -0.3538 -0.2753 -0.2526
 2907TIP3    H130212   6.280   5.391  14.712  0.1981  1.1607 -0.4625
 2907TIP3    H230213   6.399   5.358  14.626  0.3662  0.5737 -0.0085
 2908TIP3   OH230214   4.224   1.867   3.081 -0.0196  0.3499  0.6699
 2908TIP3    H130215   4.203   1.953   3.044  0.0670 -0.0326 -0.2903
 2908TIP3    H230216   4.282   1.886   3.155 -0.3276  1.1415  0.7112
 2909TIP3   OH230217   2.074   0.187   2.049  0.3283  0.2571  0.3203
 2909TIP3    H130218   2.079   0.225   2.136  0.7029  1.2667 -0.1277
 2909TIP3    H230219   2.164   0.163   2.027  0.1625 -0.4714  0.4094
 2910TIP3   OH230220   0.565   5.860  12.394 -0.4562  0.1093 -0.5552
 2910TIP3    H130221   0.563   5.803  12.317  0.1749 -0.9631  0.2194
 2910TIP3    H230222   0.653   5.850  12.430 -0.2953  1.6485 -0.4536
 2911TIP3   OH230223   2.624   3.890  16.502 -0.3185  0.0344 -0.0715
 2911TIP3    H130224   2.688   3.819  16.491 -0.3292 -0.0011  0.0975
 2911TIP3    H230225   2.556   3.851  16.557 -1.2533 -0.4331 -1.5262
 2912TIP3   OH230226   4.464   3.562   5.463 -0.0225  0.3582 -0.3263
 2912TIP3    H130227   4.443   3.653   5.481  1.7509  1.0192 -1.4975
 2912TIP3    H230228   4.510   3.564   5.379  1.6023 -1.4017  0.4864
 2913TIP3   OH230229   3.509   5.581   4.089  0.2128  0.1181 -0.2586
 2913TIP3    H130230   3.467   5.666   4.098  1.0949  0.6069 -0.7084
 2913TIP3    H230231   3.453   5.533   4.028 -1.3679 -0.3423  1.5364
 2914TIP3   OH230232   3.493   2.196   1.241 -0.2910 -0.4450  0.6061
 2914TIP3    H130233   3.515   2.103   1.234 -0.4214 -0.4426  0.1292
 2914TIP3    H230234   3.463   2.207   1.332  0.3736 -0.7237  0.8592
 2915TIP3   OH230235   1.571   0.338   3.077 -0.9421  0.2544  0.5634
 2915TIP3    H130236   1.655   0.375   3.050  0.0927 -1.6026  1.1251
 2915TIP3    H230237   1.525   0.411   3.117  0.4163  1.2999  0.2913
 2916TIP3   OH230238   5.006   1.751  12.938  0.6591 -0.5727  0.5818
 2916TIP3    H130239   5.000   1.785  12.849 -0.1508 -1.9017  0.0933
 2916TIP3    H230240   4.944   1.803  12.988 -1.0569 -1.7145 -0.2961
 2917TIP3   OH230241   6.781   4.530  16.896  0.2661 -0.0335 -0.1013
 2917TIP3    H130242   6.843   4.527  16.969  0.1020 -0.4305  0.0259
 2917TIP3    H230243   6.809   4.460  16.838  1.1623  1.0982 -1.0594
 2918TIP3   OH230244   3.133   2.667   1.700 -0.1879 -0.1893 -0.6323
 2918TIP3    H130245   3.039   2.677   1.714 -0.5105 -1.3474 -1.8966
 2918TIP3    H230246   3.154   2.579   1.731  0.4346 -0.0522 -0.6418
 2919TIP3   OH230247   1.539   2.690   1.758 -0.2172 -0.1876 -0.3567
 2919TIP3    H130248   1.444   2.700   1.760 -0.4899 -2.1837 -1.3148
 2919TIP3    H230249   1.565   2.714   1.669 -0.0395 -1.1479 -0.5749
 2920TIP3   OH230250   2.967   5.273   2.775 -0.4157 -0.2909 -0.8643
 2920TIP3    H130251   3.059   5.257   2.752  0.0982  0.2581  0.7553
 2920TIP3    H230252   2.936   5.334   2.708  0.7075  0.3498 -0.8073
 2921TIP3   OH230253   2.544   5.656  12.107 -0.2175 -0.1774  0.1316
 2921TIP3    H130254   2.517   5.567  12.128 -0.5103 -0.1714 -0.2027
 2921TIP3    H230255   2.509   5.671  12.019  0.9435 -0.1873 -0.3435
 2922TIP3   OH230256   1.913   5.409  14.765 -0.2061  0.0328 -0.0864
 2922TIP3    H130257   1.897   5.463  14.687  0.0482 -1.5402 -1.2488
 2922TIP3    H230258   1.877   5.461  14.837 -0.6774  1.4073 -1.2670
 2923TIP3   OH230259   5.362   4.608   6.439 -0.1580  0.0056 -0.4433
 2923TIP3    H130260   5.309   4.663   6.382 -0.8501  2.6907  2.6394
 2923TIP3    H230261   5.299   4.551   6.484  0.0624  0.0153 -0.1194
 2924TIP3   OH230262   2.070   2.188   2.902  0.0013 -0.2007 -0.0489
 2924TIP3    H130263   2.084   2.102   2.861  2.2400  0.7481 -1.3239
 2924TIP3    H230264   2.068   2.169   2.996 -3.0354 -2.1054 -0.3881
 2925TIP3   OH230265   5.964   1.136  12.227 -0.2061 -0.1885  0.1559
 2925TIP3    H130266   6.022   1.086  12.170  0.4245 -1.8283  2.1716
 2925TIP3    H230267   5.917   1.195  12.168  1.8963 -0.3845 -1.7744
 2926TIP3   OH230268   2.765   4.778  15.483  0.0706  0.2410  0.0680
 2926TIP3    H130269   2.678   4.743  15.500  0.3158 -0.5601 -0.2619
 2926TIP3    H230270   2.752   4.843  15.413 -0.3035  0.3548  0.2449
 2927TIP3   OH230271   4.992   1.300   3.711  0.6369  0.0447  0.3386
 2927TIP3    H130272   4.957   1.247   3.640  0.2493  0.8065 -0.0442
 2927TIP3    H230273   4.917   1.311   3.771  0.9632 -0.6061  0.8769
 2928TIP3   OH230274   0.234   1.915   1.185 -0.7890  0.5186 -0.3497
 2928TIP3    H130275   0.220   1.919   1.279  0.5244  2.0016 -0.2069
 2928TIP3    H230276   0.318   1.871   1.174 -1.8856 -1.5202 -0.9357
 2929TIP3   OH230277   3.461   3.564  15.218  0.4046 -0.0198  0.2100
 2929TIP3    H130278   3.398   3.561  15.145 -0.6752  0.6169  1.0969
 2929TIP3    H230279   3.509   3.481  15.212 -1.4255 -1.1102  0.3037
 2930TIP3   OH230280   4.528   2.623   1.009 -0.2747  0.3804 -0.1224
 2930TIP3    H130281   4.457   2.664   1.058 -0.5230  0.2439 -0.3658
 2930TIP3    H230282   4.496   2.620   0.919 -0.3712 -0.6243 -0.0548
 2931TIP3   OH230283   1.811   3.551  14.902 -0.3573  0.2685 -0.5319
 2931TIP3    H130284   1.723   3.587  14.914  0.3454  2.0196 -0.4314
 2931TIP3    H230285   1.869   3.618  14.938  0.9950 -1.1240 -0.0920
 2932TIP3   OH230286   1.826   1.005   0.609 -0.6607 -0.2638  0.0611
 2932TIP3    H130287   1.852   1.020   0.518  0.3257 -0.7311  0.2639
 2932TIP3    H230288   1.867   0.922   0.632 -1.2354 -0.3387  0.8136
 2933TIP3   OH230289   2.137   4.429   3.543 -0.4248 -0.4588  0.5226
 2933TIP3    H130290   2.145   4.433   3.638  0.2927  0.6191  0.4171
 2933TIP3    H230291   2.119   4.519   3.516 -0.2511 -0.6905 -0.3948
 2934TIP3   OH230292   4.749   0.966  14.121 -0.0280  0.4723  0.9834
 2934TIP3    H130293   4.826   1.004  14.165  0.0829  1.2043  0.1838
 2934TIP3    H230294   4.763   0.872  14.126  1.3829  0.6149  0.0604
 2935TIP3   OH230295   0.051   6.213   3.490 -1.0493  0.2342 -0.2351
 2935TIP3    H130296   0.103   6.293   3.494  0.0444 -0.3042 -2.9445
 2935TIP3    H230297  -0.039   6.243   3.479 -0.8552  1.0934  0.4455
 2936TIP3   OH230298   4.507   6.778   5.174  0.5102 -0.4073 -0.7107
 2936TIP3    H130299   4.483   6.808   5.262  0.8706  0.6180 -0.9522
 2936TIP3    H230300   4.557   6.698   5.189 -0.8145 -1.1382 -0.0722
 2937TIP3   OH230301   2.059   1.071  14.898  0.1252  0.3374  0.1783
 2937TIP3    H130302   2.000   1.004  14.862 -1.6830  1.9995 -0.0407
 2937TIP3    H230303   2.147   1.036  14.883 -0.7196 -0.9803 -1.9548
 2938TIP3   OH230304   1.241   0.924  14.217  0.2046 -0.1658 -0.1486
 2938TIP3    H130305   1.215   1.016  14.213  0.5629 -0.0537  0.0850
 2938TIP3    H230306   1.229   0.891  14.128  2.0856  0.6531 -0.7330
 2939TIP3   OH230307   3.762   0.754  14.809 -0.3553 -0.0249  0.6891
 2939TIP3    H130308   3.829   0.689  14.789  0.8189  1.3974 -0.0390
 2939TIP3    H230309   3.692   0.736  14.746  0.1659 -0.2699  0.1798
 2940TIP3   OH230310   0.185   5.994   3.360 -0.3937  0.1708  0.2164
 2940TIP3    H130311   0.275   6.025   3.353 -0.6414  0.3493 -2.4105
 2940TIP3    H230312   0.139   6.065   3.406  0.4933  0.6850  0.3223
 2941TIP3   OH230313   4.222   6.088   6.057 -0.3197 -0.4709 -0.9613
 2941TIP3    H130314   4.182   6.152   5.999 -0.9182 -1.2759 -1.4366
 2941TIP3    H230315   4.193   6.114   6.145  1.3843  1.3435 -0.8752
 2942TIP3   OH230316   4.297   4.227  11.198  0.0106 -0.5601 -0.0736
 2942TIP3    H130317   4.211   4.212  11.159 -0.0298  0.3330 -0.3474
 2942TIP3    H230318   4.359   4.190  11.135 -0.1801 -1.4328  0.2428
 2943TIP3   OH230319   5.634   4.624   0.916 -0.4291 -0.0287 -0.5734
 2943TIP3    H130320   5.674   4.688   0.975 -0.1814 -0.1058 -0.6574
 2943TIP3    H230321   5.543   4.651   0.910 -0.8815 -1.1275  1.3353
 2944TIP3   OH230322   1.880   3.910   2.091  0.1822 -0.3436 -0.0405
 2944TIP3    H130323   1.812   3.872   2.035  1.2983 -1.1664 -0.8551
 2944TIP3    H230324   1.906   3.990   2.045 -1.5229  0.9711  1.2133
 2945TIP3   OH230325   0.761   1.039  12.951  0.6690  0.0463 -0.0132
 2945TIP3    H130326   0.849   1.074  12.937  0.8358 -0.7805 -1.0521
 2945TIP3    H230327   0.719   1.102  13.009  2.3495 -0.1616  1.4754
 2946TIP3   OH230328   2.971   2.866  13.960  0.0047 -0.6823 -0.7160
 2946TIP3    H130329   3.062   2.838  13.952  0.4297  0.1082  1.0424
 2946TIP3    H230330   2.937   2.865  13.871  2.0834  0.1586 -1.5413
 2947TIP3   OH230331   2.117   0.969  12.033  0.6570  0.5383 -0.1777
 2947TIP3    H130332   2.158   1.052  12.059  0.5653  0.2824  0.7947
 2947TIP3    H230333   2.190   0.907  12.031  0.3266  0.0415  1.7276
 2948TIP3   OH230334   6.301   0.832   1.186 -0.8486 -0.0142 -0.5540
 2948TIP3    H130335   6.324   0.745   1.218  0.2933  0.9942  1.4628
 2948TIP3    H230336   6.210   0.844   1.213  0.2428  1.0108  2.8505
 2949TIP3   OH230337   4.566   3.215   3.713  0.0825 -0.0399 -0.0430
 2949TIP3    H130338   4.614   3.139   3.681  0.8314  0.7669 -0.8455
 2949TIP3    H230339   4.483   3.179   3.746 -0.0056 -1.0685 -1.3535
 2950TIP3   OH230340   3.723   1.587  17.279  0.5455 -0.2526 -0.2073
 2950TIP3    H130341   3.653   1.571  17.343  0.0771 -1.1069 -0.9173
 2950TIP3    H230342   3.743   1.680  17.289 -1.4253  0.2538 -0.7006
 2951TIP3   OH230343   3.712   1.588   3.524 -0.2685  0.4728  0.2043
 2951TIP3    H130344   3.651   1.621   3.590  1.0765  2.2630  0.5836
 2951TIP3    H230345   3.677   1.618   3.441 -1.0462 -0.3189  0.2442
 2952TIP3   OH230346   0.171   1.335  13.615 -0.6114 -0.4249  0.5164
 2952TIP3    H130347   0.181   1.402  13.682  0.5180  1.1609 -1.1963
 2952TIP3    H230348   0.089   1.358  13.570 -0.9831 -1.0603  0.8542
 2953TIP3   OH230349   5.091   1.027   4.762 -0.4077  0.0200 -0.1806
 2953TIP3    H130350   5.048   1.061   4.683  2.2898 -0.1058 -1.7299
 2953TIP3    H230351   5.114   1.106   4.812 -0.7735  0.1497 -0.2104
 2954TIP3   OH230352   2.167   0.030   4.990  0.1427 -0.4102 -0.2236
 2954TIP3    H130353   2.187  -0.053   5.031  1.5019  0.7736  1.5586
 2954TIP3    H230354   2.223   0.033   4.912  1.0512 -0.5791  0.4296
 2955TIP3   OH230355   3.426   1.605  11.817 -0.1427 -0.0265 -0.0499
 2955TIP3    H130356   3.468   1.690  11.830  0.3425 -0.4355  1.1375
 2955TIP3    H230357   3.364   1.620  11.745 -1.0866  1.7090  1.0681
 2956TIP3   OH230358   1.384   4.661   2.748  0.2148 -0.1976  0.3169
 2956TIP3    H130359   1.329   4.587   2.725  0.2903 -0.5639  1.2752
 2956TIP3    H230360   1.458   4.623   2.795  0.0319  0.5087  1.2063
 2957TIP3   OH230361   0.855   4.627  16.290 -0.4048  0.3735  0.6051
 2957TIP3    H130362   0.846   4.629  16.385 -0.0013  0.7521  0.6378
 2957TIP3    H230363   0.923   4.561  16.274 -1.1094 -0.3394  0.5248
 2958TIP3   OH230364   4.675   3.374   1.348 -0.2141  0.1516  0.0221
 2958TIP3    H130365   4.729   3.355   1.425 -1.0324  1.5649  0.9510
 2958TIP3    H230366   4.725   3.338   1.274  0.6520 -1.0602  1.1833
 2959TIP3   OH230367   4.825   1.272  12.630 -0.3616  0.4567  0.0757
 2959TIP3    H130368   4.772   1.196  12.655  0.3091 -0.3730 -0.9694
 2959TIP3    H230369   4.791   1.297  12.544  0.6560  0.1582 -0.4263
 2960TIP3   OH230370   3.025   3.267  15.805  0.5614  0.0517  0.6493
 2960TIP3    H130371   3.033   3.172  15.815  0.5711 -0.3583 -2.7557
 2960TIP3    H230372   3.108   3.294  15.766 -0.3665  1.0870 -0.6555
 2961TIP3   OH230373   5.968   2.836  14.448 -0.2096  0.1171  0.1504
 2961TIP3    H130374   5.901   2.807  14.510  1.0026 -0.0972  1.3806
 2961TIP3    H230375   5.990   2.924  14.476  0.8904 -0.2609  0.4972
 2962TIP3   OH230376   3.649   3.945  15.700  0.1818  0.0485 -0.4119
 2962TIP3    H130377   3.630   4.038  15.693 -2.2641 -0.3930 -0.0284
 2962TIP3    H230378   3.622   3.921  15.789 -0.8074 -1.3484 -1.0623
 2963TIP3   OH230379   4.972   3.023   2.219  0.3476 -0.1324 -0.1604
 2963TIP3    H130380   5.029   3.075   2.163  0.1985 -0.6498 -0.8129
 2963TIP3    H230381   5.022   3.010   2.299  2.3511 -2.9386 -1.7600
 2964TIP3   OH230382   0.988   3.903   0.794 -0.1286  0.3393  0.2668
 2964TIP3    H130383   1.061   3.911   0.856  1.0774  1.4252 -1.2423
 2964TIP3    H230384   0.993   3.813   0.762 -0.5211 -0.1114  1.4405
 2965TIP3   OH230385   3.469   5.615  13.560 -0.0675  0.0830 -0.5080
 2965TIP3    H130386   3.453   5.583  13.649 -3.1660 -0.2748 -1.1312
 2965TIP3    H230387   3.469   5.710  13.569  0.6854  0.0391  0.0242
 2966TIP3   OH230388   2.702   3.415   1.716  0.4152 -0.0986  0.1494
 2966TIP3    H130389   2.690   3.411   1.621  1.3585  0.6682 -0.0144
 2966TIP3    H230390   2.638   3.354   1.751 -0.7718  0.5118 -0.9107
 2967TIP3   OH230391   4.395   4.814  11.396 -0.0942  0.2317 -0.0660
 2967TIP3    H130392   4.308   4.780  11.373  0.1853 -0.4015 -0.1801
 2967TIP3    H230393   4.428   4.852  11.315  0.3538 -0.8561 -0.3997
 2968TIP3   OH230394   1.842   0.327   6.203 -0.5766  0.3974 -0.4549
 2968TIP3    H130395   1.835   0.418   6.174  1.2065  1.1005  1.1833
 2968TIP3    H230396   1.776   0.318   6.271 -0.5484  0.5677 -0.4053
 2969TIP3   OH230397   4.511   3.341   1.948 -0.0188 -0.3703 -0.3423
 2969TIP3    H130398   4.503   3.256   1.990  0.8522  0.1571  0.9105
 2969TIP3    H230399   4.426   3.383   1.962  0.1515 -0.3327  0.5872
 2970TIP3   OH230400   0.898   0.366  14.581 -0.0437 -0.2025 -0.4355
 2970TIP3    H130401   0.990   0.340  14.576 -0.0307 -0.8630  2.2986
 2970TIP3    H230402   0.901   0.462  14.581  0.6100 -0.2175 -0.5857
 2971TIP3   OH230403   0.490   6.816   3.484  0.1696 -0.0492  0.4250
 2971TIP3    H130404   0.582   6.838   3.494 -0.0546 -0.1705  3.2172
 2971TIP3    H230405   0.487   6.721   3.496 -0.4426  0.1065  1.6058
 2972TIP3   OH230406   5.749   4.184  12.556  0.1336 -0.1456  0.3290
 2972TIP3    H130407   5.739   4.277  12.534 -0.9197 -0.1264  0.8671
 2972TIP3    H230408   5.661   4.155  12.579  0.8662 -0.6153  2.6598
 2973TIP3   OH230409   6.714   4.037  10.609  0.7909 -0.5990  0.5498
 2973TIP3    H130410   6.700   4.128  10.582 -0.5094 -1.2477 -1.0904
 2973TIP3    H230411   6.725   4.040  10.704 -2.0991  0.9607  0.8724
 2974TIP3   OH230412   2.553   6.466   1.525 -0.1716  0.1531  0.3317
 2974TIP3    H130413   2.592   6.464   1.612  0.8619 -0.8076 -0.1481
 2974TIP3    H230414   2.619   6.506   1.469  0.0943 -1.3515 -0.4541
 2975TIP3   OH230415   2.819   5.245   1.929  0.2477 -0.3549 -0.4702
 2975TIP3    H130416   2.793   5.202   1.847  0.0171 -2.5672  0.7449
 2975TIP3    H230417   2.835   5.336   1.903 -1.3763 -0.6422 -2.6845
 2976TIP3   OH230418   1.201   0.213  10.828 -0.2102  0.4685  0.3048
 2976TIP3    H130419   1.191   0.294  10.877  1.7289  0.2697  1.0815
 2976TIP3    H230420   1.261   0.160  10.881  0.1917 -0.6350 -1.2080
 2977TIP3   OH230421   0.763   6.779   5.946 -0.1255 -0.1645 -0.1338
 2977TIP3    H130422   0.738   6.789   5.854  0.1488 -2.0289 -0.4291
 2977TIP3    H230423   0.680   6.770   5.992 -0.2643  0.7670 -0.1932
 2978TIP3   OH230424   5.560   3.885  14.252 -0.0199 -0.0602  0.3279
 2978TIP3    H130425   5.649   3.851  14.248 -0.1284 -0.2315 -1.1337
 2978TIP3    H230426   5.504   3.807  14.252 -0.2003  0.0646 -0.2434
 2979TIP3   OH230427   6.015   5.701  12.177  0.2831 -0.8616 -0.0386
 2979TIP3    H130428   5.996   5.709  12.083 -0.0469 -0.4702  0.0595
 2979TIP3    H230429   5.949   5.755  12.220  0.4571 -1.0068  0.4207
 2980TIP3   OH230430   6.547   2.646   2.430 -0.0043 -0.2856  0.1972
 2980TIP3    H130431   6.597   2.725   2.411  0.2600 -0.7585 -1.1652
 2980TIP3    H230432   6.518   2.615   2.344 -3.4913  0.5250  1.0303
 2981TIP3   OH230433   1.757   5.950   6.204 -0.1221 -0.3545  0.2419
 2981TIP3    H130434   1.691   5.890   6.238 -0.4118  0.6597  1.5090
 2981TIP3    H230435   1.739   6.033   6.248  1.0104  0.3496 -0.5920
 2982TIP3   OH230436   6.582   3.151  14.409  0.3098  0.2501  0.0778
 2982TIP3    H130437   6.612   3.223  14.464 -0.4772  0.9393 -0.3923
 2982TIP3    H230438   6.548   3.193  14.330  0.2802 -0.6607 -0.4001
 2983TIP3   OH230439   2.548   4.419   0.736  0.4054  0.0798  0.3058
 2983TIP3    H130440   2.489   4.422   0.812 -0.4332  1.7239 -0.3858
 2983TIP3    H230441   2.614   4.485   0.755 -0.2789  1.0911 -0.7549
 2984TIP3   OH230442   4.724   2.953  16.412  0.3929 -0.2780 -0.0915
 2984TIP3    H130443   4.768   2.951  16.497  2.6535 -0.0772 -1.2202
 2984TIP3    H230444   4.751   3.036  16.373  0.4341 -0.9476 -1.5231
 2985TIP3   OH230445   4.202   4.981   3.533  0.1539 -0.0220 -0.5703
 2985TIP3    H130446   4.220   4.980   3.627  0.8001 -0.0856 -0.6917
 2985TIP3    H230447   4.136   4.913   3.520 -0.2651  0.2853 -0.1024
 2986TIP3   OH230448   1.607   0.495  12.577  0.2488  0.2789  0.0282
 2986TIP3    H130449   1.533   0.439  12.555  0.4733  0.3368 -0.9027
 2986TIP3    H230450   1.667   0.438  12.625 -1.5186  0.8779  3.0253
 2987TIP3   OH230451   0.127   1.493   2.897 -0.0993  0.4571 -0.0388
 2987TIP3    H130452   0.214   1.468   2.864 -0.0521  1.5986 -0.7977
 2987TIP3    H230453   0.098   1.562   2.838 -1.1002  0.7797  0.8215
 2988TIP3   OH230454   0.958   5.588   1.149 -0.7280 -0.1538  0.4403
 2988TIP3    H130455   0.909   5.662   1.113 -0.1256 -0.0758 -0.2374
 2988TIP3    H230456   0.953   5.520   1.082 -2.2664 -1.1785  1.5523
 2989TIP3   OH230457   5.671   3.820  12.681 -0.2236  0.1203  0.1440
 2989TIP3    H130458   5.639   3.879  12.749 -0.2466 -0.5419  0.7151
 2989TIP3    H230459   5.754   3.787  12.716 -0.0833  0.0203 -0.2863
 2990TIP3   OH230460   2.649   0.800  11.629  0.6590  0.6714 -0.6159
 2990TIP3    H130461   2.629   0.893  11.624  2.6468  1.2952  1.7279
 2990TIP3    H230462   2.738   0.793  11.595  1.0502 -0.1329  0.5453
 2991TIP3   OH230463   2.665   0.061   1.164  0.3960  0.6879 -0.1115
 2991TIP3    H130464   2.677   0.054   1.258 -0.6186  1.0678  0.0560
 2991TIP3    H230465   2.640   0.153   1.150  0.7732  0.6959 -0.7753
 2992TIP3   OH230466   1.837   5.610  13.212 -0.3123  0.1600 -0.4790
 2992TIP3    H130467   1.809   5.555  13.286 -1.1678 -1.0871 -1.7094
 2992TIP3    H230468   1.760   5.661  13.189 -0.9062 -1.5193 -2.3183
 2993TIP3   OH230469   3.627   3.735  13.852  0.0991 -0.0783 -0.1774
 2993TIP3    H130470   3.628   3.827  13.826 -0.0172 -0.2207 -0.6801
 2993TIP3    H230471   3.538   3.705  13.833  0.1826 -0.3406 -0.1623
 2994TIP3   OH230472   1.576   2.330   3.388 -0.0264  0.1550 -0.0512
 2994TIP3    H130473   1.640   2.317   3.458 -0.4256  0.3463  0.3534
 2994TIP3    H230474   1.627   2.362   3.314  0.1039  2.0230  0.8199
 2995TIP3   OH230475   2.230   5.258   2.433 -0.1757 -0.8007 -0.4552
 2995TIP3    H130476   2.139   5.248   2.403 -0.5259 -0.0628  0.3436
 2995TIP3    H230477   2.262   5.335   2.386 -1.0795  1.0347  1.8349
 2996TIP3   OH230478   0.242   6.342  14.853 -0.2254 -0.0162  0.2542
 2996TIP3    H130479   0.182   6.316  14.783  0.0796 -0.6429  0.2217
 2996TIP3    H230480   0.230   6.437  14.861  0.5040  0.2269 -1.3562
 2997TIP3   OH230481   6.538   1.872  12.695  0.7987 -0.0146 -0.2698
 2997TIP3    H130482   6.484   1.828  12.761  1.0279  1.1079  0.6938
 2997TIP3    H230483   6.616   1.900  12.744  0.9677  0.8353 -1.0194
 2998TIP3   OH230484   2.594   2.789  14.808  0.3170 -0.2631  1.2753
 2998TIP3    H130485   2.606   2.765  14.900  2.1443  0.3647  1.2137
 2998TIP3    H230486   2.671   2.754  14.764  0.7204  1.6448  0.4108
 2999TIP3   OH230487   1.178   3.184   1.966 -0.0610  0.0539 -0.2661
 2999TIP3    H130488   1.118   3.113   1.991  0.2576 -0.6834 -1.5818
 2999TIP3    H230489   1.234   3.146   1.899 -0.9989  2.0709 -2.2431
 3000TIP3   OH230490   4.720   6.186  10.940 -0.4491 -0.9946  0.1376
 3000TIP3    H130491   4.659   6.141  10.999 -1.4779  0.3607  0.1474
 3000TIP3    H230492   4.677   6.185  10.855  0.3491 -1.6235 -0.2605
 3001TIP3   OH230493   5.422   0.089   3.071  0.0494 -0.6786 -0.1396
 3001TIP3    H130494   5.485   0.079   3.143  1.0529  0.8434 -0.7776
 3001TIP3    H230495   5.376   0.005   3.068  0.9994 -1.2807  1.3306
 3002TIP3   OH230496   3.471   1.265   4.557 -0.4625  0.5485  0.9500
 3002TIP3    H130497   3.393   1.321   4.556 -0.2862  0.7948  0.9460
 3002TIP3    H230498   3.542   1.324   4.583  0.2889  1.0463 -2.1037
 3003TIP3   OH230499   2.706   1.808  15.176 -0.2054  0.9876  0.1562
 3003TIP3    H130500   2.621   1.853  15.183 -0.3824  0.6265  0.3367
 3003TIP3    H230501   2.753   1.856  15.109 -1.2805  0.0303 -1.3020
 3004TIP3   OH230502   4.416   4.551   1.975 -0.1007  0.3068  0.2072
 3004TIP3    H130503   4.407   4.478   2.036 -0.7098 -1.1030 -1.5356
 3004TIP3    H230504   4.326   4.576   1.954  0.1043  0.8061 -0.0772
 3005TIP3   OH230505   6.013   1.796  10.822 -0.0829  0.4355 -0.4971
 3005TIP3    H130506   6.032   1.877  10.774  0.1027 -0.3362 -1.7394
 3005TIP3    H230507   6.052   1.727  10.769 -4.1117 -0.9437 -1.8888
 3006TIP3   OH230508   2.484   1.248  17.108  0.3623  0.2255  0.4103
 3006TIP3    H130509   2.421   1.301  17.060 -1.4544 -2.0793  0.1683
 3006TIP3    H230510   2.547   1.219  17.042  1.3137  1.9481  0.5301
 3007TIP3   OH230511   0.079   6.177  11.486 -0.4535  0.0535 -0.3360
 3007TIP3    H130512   0.051   6.184  11.395  1.0561 -0.3567 -0.8472
 3007TIP3    H230513   0.138   6.250  11.499  1.8875 -1.7337 -0.6551
 3008TIP3   OH230514   2.613   3.756  14.627  1.1398 -0.1785  0.0184
 3008TIP3    H130515   2.573   3.773  14.542  0.6686 -1.4596 -0.0355
 3008TIP3    H230516   2.561   3.806  14.689 -0.3682 -1.5356 -0.0972
 3009TIP3   OH230517   5.666   0.846  12.857 -0.4467 -0.3788  0.2750
 3009TIP3    H130518   5.735   0.785  12.882 -1.8874 -3.0770 -2.0259
 3009TIP3    H230519   5.591   0.822  12.912 -0.9032 -0.4522 -0.3726
 3010TIP3   OH230520   2.430   1.444  14.672  0.1939 -0.0172 -0.2729
 3010TIP3    H130521   2.369   1.439  14.599  0.5620 -1.9176 -0.4759
 3010TIP3    H230522   2.380   1.485  14.743 -0.6691  0.3155 -1.0696
 3011TIP3   OH230523   4.120   4.322   0.331  0.0214 -0.0360 -0.0545
 3011TIP3    H130524   4.113   4.286   0.242 -1.5489  1.7876 -0.6786
 3011TIP3    H230525   4.087   4.252   0.387 -2.4121  0.1350 -1.2152
 3012TIP3   OH230526   3.991   6.055  12.936  0.4065  0.2147  0.1510
 3012TIP3    H130527   3.938   5.998  12.881  0.0184  1.4897 -0.8328
 3012TIP3    H230528   4.055   5.997  12.977 -0.3588 -1.0032 -0.3602
 3013TIP3   OH230529   5.784   2.327   5.557  0.1869 -0.8597  0.0000
 3013TIP3    H130530   5.789   2.243   5.509 -0.0688 -0.1672 -1.2608
 3013TIP3    H230531   5.839   2.386   5.506 -2.1345  0.5856 -0.8830
 3014TIP3   OH230532   1.209   3.134  10.775 -0.2319 -0.3432 -0.5947
 3014TIP3    H130533   1.192   3.091  10.859 -0.1616  1.8074  0.5362
 3014TIP3    H230534   1.297   3.104  10.751 -0.4459 -1.3612 -0.1634
 3015TIP3   OH230535   1.647   6.042   2.219 -0.4049 -0.5671  0.0493
 3015TIP3    H130536   1.601   6.124   2.237 -0.7119 -1.1398  1.9202
 3015TIP3    H230537   1.639   6.031   2.124 -1.1049  1.1238 -0.1056
 3016TIP3   OH230538   3.303   4.385   5.395 -0.1503  0.3040  0.4709
 3016TIP3    H130539   3.371   4.443   5.429 -0.2848  0.5678  0.2901
 3016TIP3    H230540   3.347   4.300   5.386 -0.0222  0.3171  0.9720
 3017TIP3   OH230541   2.510   1.220   1.240  0.0731  1.3088 -0.0628
 3017TIP3    H130542   2.598   1.247   1.215  0.1384  2.5117  1.4117
 3017TIP3    H230543   2.507   1.232   1.335 -1.7095  1.3499 -0.1036
 3018TIP3   OH230544   5.433   6.216  16.316  0.0537 -0.4096 -0.2464
 3018TIP3    H130545   5.388   6.199  16.399  0.7046  1.9474  0.6347
 3018TIP3    H230546   5.378   6.282  16.273  0.7113 -0.2446 -0.8437
 3019TIP3   OH230547   2.555   3.722  13.202  0.2322 -0.4418 -0.6602
 3019TIP3    H130548   2.533   3.649  13.260  2.3665  0.4989  1.3880
 3019TIP3    H230549   2.475   3.774  13.197 -0.6387 -1.7442 -0.3747
 3020TIP3   OH230550   1.521   4.820  15.547  0.6633  0.0038 -0.0681
 3020TIP3    H130551   1.524   4.766  15.468  1.7753  0.6633 -0.4937
 3020TIP3    H230552   1.592   4.786  15.602 -1.1469 -1.5321  1.3856
 3021TIP3   OH230553   1.457   2.166   2.733  0.2451  0.9821  0.1925
 3021TIP3    H130554   1.394   2.238   2.735  0.6275  1.3251  0.0917
 3021TIP3    H230555   1.410   2.091   2.767  0.2900  1.6367  1.7106
 3022TIP3   OH230556   2.235   4.215  14.231  0.1289  0.6523  0.4210
 3022TIP3    H130557   2.173   4.151  14.264 -0.0158  1.3005  1.4476
 3022TIP3    H230558   2.185   4.297  14.226  0.2369  0.6237 -1.1304
 3023TIP3   OH230559   1.880   5.285   1.509  0.2398  0.0249 -1.0669
 3023TIP3    H130560   1.948   5.308   1.447  1.5776  0.8099  0.6531
 3023TIP3    H230561   1.852   5.368   1.547 -0.6376 -0.4222 -0.7132
 3024TIP3   OH230562   5.763   4.762  13.547  0.8121  0.1086 -0.2012
 3024TIP3    H130563   5.761   4.761  13.643  0.6709 -1.6060 -0.2233
 3024TIP3    H230564   5.787   4.853  13.525  2.4976  0.0924  1.4650
 3025TIP3   OH230565   4.862   1.836   4.271  0.1486 -0.4032 -0.0295
 3025TIP3    H130566   4.930   1.851   4.206  0.2784  0.7459  0.3598
 3025TIP3    H230567   4.839   1.924   4.303 -0.2867 -0.9084  1.0904
 3026TIP3   OH230568   2.016   2.184  14.994  0.5679 -0.4833 -0.3141
 3026TIP3    H130569   1.942   2.134  14.960  0.4359 -0.5380  0.0551
 3026TIP3    H230570   1.984   2.223  15.075  0.4351  0.8061 -0.9701
 3027TIP3   OH230571   2.625   5.032  16.756  0.2702  0.1224  0.1635
 3027TIP3    H130572   2.549   5.070  16.801 -0.0107 -1.0164  0.6584
 3027TIP3    H230573   2.686   5.105  16.748  0.0239  0.5292  1.7526
 3028TIP3   OH230574   1.957   4.662  13.795 -0.4933  0.4534 -0.2863
 3028TIP3    H130575   2.048   4.693  13.794 -0.1899 -0.4579 -1.0983
 3028TIP3    H230576   1.951   4.609  13.874  0.2504 -1.1374 -1.2696
 3029TIP3   OH230577   5.911   3.275  14.802  0.0044  0.5427 -0.1694
 3029TIP3    H130578   5.845   3.334  14.838  1.0811  0.9602  1.1564
 3029TIP3    H230579   5.870   3.189  14.804 -0.6259  0.8518  0.3553
 3030TIP3   OH230580   5.539   0.607   3.705 -0.2377  0.1175 -0.3701
 3030TIP3    H130581   5.582   0.621   3.789 -2.4503  0.5657  0.7200
 3030TIP3    H230582   5.529   0.511   3.699  3.1933 -0.2212 -1.8540
 3031TIP3   OH230583   0.195   2.194  11.712 -0.0186 -0.8261  0.3218
 3031TIP3    H130584   0.263   2.213  11.648 -0.3862  1.4383  0.5708
 3031TIP3    H230585   0.150   2.117  11.677 -0.1233  0.2879 -2.0683
 3032TIP3   OH230586   5.930   0.248   0.611  0.2210  0.0314 -0.0536
 3032TIP3    H130587   5.968   0.174   0.564  0.5030  0.0923  0.0766
 3032TIP3    H230588   5.925   0.218   0.702 -1.1232 -0.4034 -0.2629
 3033TIP3   OH230589   4.427   6.780  16.275 -0.0141  0.4996 -0.3042
 3033TIP3    H130590   4.416   6.868  16.240 -1.7297 -0.3207 -1.9077
 3033TIP3    H230591   4.374   6.778  16.354  0.1667  0.9523 -0.1704
 3034TIP3   OH230592   5.057   2.918   0.147  0.2767 -0.0585 -0.1374
 3034TIP3    H130593   5.107   2.998   0.163 -1.2156  1.0846 -1.0875
 3034TIP3    H230594   5.095   2.882   0.067  1.6313 -0.8846  0.8429
 3035TIP3   OH230595   2.392   0.956  13.828 -0.3420  0.4455  0.0858
 3035TIP3    H130596   2.331   0.945  13.901 -0.3712 -0.6318 -0.0969
 3035TIP3    H230597   2.345   0.920  13.752  0.4119 -0.1431 -0.1087
 3036TIP3   OH230598   0.848   5.883   3.481  0.2953  0.0053  0.0208
 3036TIP3    H130599   0.856   5.804   3.428 -1.0294 -0.6191  0.7218
 3036TIP3    H230600   0.836   5.954   3.419  0.0366 -0.5515 -0.5669
 3037TIP3   OH230601   4.512   1.046  15.069  0.1710 -0.2286 -0.0578
 3037TIP3    H130602   4.530   1.118  15.130 -2.4989  0.5454 -0.1150
 3037TIP3    H230603   4.512   1.088  14.983  1.4475 -0.8535 -0.3710
 3038TIP3   OH230604   5.484   5.483   6.509  0.5800  0.0262  0.3743
 3038TIP3    H130605   5.460   5.436   6.589  0.7457 -0.3152  0.2263
 3038TIP3    H230606   5.404   5.487   6.458 -0.2052  2.7005  1.7713
 3039TIP3   OH230607   4.498   3.921   3.959  0.3623 -0.1437  0.3470
 3039TIP3    H130608   4.447   3.994   3.924  0.3631  0.1121  0.8661
 3039TIP3    H230609   4.444   3.844   3.943  0.3105 -0.0174 -0.1015
 3040TIP3   OH230610   5.589   0.839   4.859 -0.1632  0.7417  0.0139
 3040TIP3    H130611   5.590   0.758   4.909  0.2697  0.9243  0.3054
 3040TIP3    H230612   5.498   0.869   4.863 -0.2964  0.3363  0.0099
 3041TIP3   OH230613   1.118   2.052   4.120 -0.3625  0.3473  0.2624
 3041TIP3    H130614   1.153   2.141   4.121 -1.1358  0.6606  2.6176
 3041TIP3    H230615   1.037   2.058   4.171 -0.5881 -1.6306  0.1609
 3042TIP3   OH230616   6.673   6.799  11.840 -0.1874 -0.0652  0.6619
 3042TIP3    H130617   6.628   6.883  11.832  0.6256  0.3919  0.8497
 3042TIP3    H230618   6.719   6.805  11.924 -0.0702 -0.6696  0.6394
 3043TIP3   OH230619   3.987   4.442   0.740  0.0627  0.8974  0.1208
 3043TIP3    H130620   4.008   4.451   0.647  0.0422  3.9496  0.3495
 3043TIP3    H230621   3.935   4.519   0.760  0.4873  0.5326  2.7816
 3044TIP3   OH230622   1.438   5.970  14.410  0.0891 -0.3189 -0.1387
 3044TIP3    H130623   1.368   5.906  14.402  1.0050 -1.0142 -3.0124
 3044TIP3    H230624   1.511   5.921  14.448  0.5939 -0.8674 -1.7743
 3045TIP3   OH230625   1.076   1.466  17.284  0.1470  0.3295 -0.4411
 3045TIP3    H130626   1.165   1.494  17.305  0.3460 -0.7237  0.1524
 3045TIP3    H230627   1.028   1.475  17.367  0.3201 -1.4322 -0.1105
 3046TIP3   OH230628   3.504   4.736   2.729 -0.2385 -0.0162 -0.0130
 3046TIP3    H130629   3.486   4.722   2.636 -0.2879 -0.7114  0.0950
 3046TIP3    H230630   3.427   4.781   2.763 -1.9378 -3.1159  0.4817
 3047TIP3   OH230631   1.811   5.803   0.973  0.0118 -0.3916  0.0038
 3047TIP3    H130632   1.728   5.828   1.015 -0.7781 -2.5953 -0.2322
 3047TIP3    H230633   1.803   5.836   0.883 -0.9854 -1.4081 -0.2837
 3048TIP3   OH230634   6.753   2.270   1.846  0.1908  0.0930 -0.3286
 3048TIP3    H130635   6.763   2.316   1.762 -3.2532  1.9744  0.1729
 3048TIP3    H230636   6.660   2.250   1.851  0.4649 -0.6711  2.7052
 3049TIP3   OH230637   2.121   2.940   4.981  0.1316  0.3432 -0.5004
 3049TIP3    H130638   2.066   2.948   4.903 -0.1391  0.6177 -0.2827
 3049TIP3    H230639   2.132   3.030   5.011 -0.5536  0.1504  0.3304
 3050TIP3   OH230640   2.035   4.672   5.986  0.1886 -0.2063 -0.6799
 3050TIP3    H130641   2.104   4.646   5.925 -0.3037  0.0956 -1.3789
 3050TIP3    H230642   2.076   4.669   6.072  0.6457 -1.4882 -0.9370
 3051TIP3   OH230643   1.503   1.081   2.833 -0.2837  0.1770 -0.0546
 3051TIP3    H130644   1.458   1.103   2.752  0.9768  0.0335 -0.8002
 3051TIP3    H230645   1.500   1.161   2.885 -0.9544  0.3156 -0.3031
 3052TIP3   OH230646   0.487   5.008   4.345  0.8072 -0.3034 -0.2960
 3052TIP3    H130647   0.427   4.934   4.338 -1.1901  1.2549  0.0880
 3052TIP3    H230648   0.432   5.085   4.339  2.9260  1.1908 -1.2241
 3053TIP3   OH230649   6.174   0.364  12.119  0.3838  0.0909 -0.5729
 3053TIP3    H130650   6.219   0.294  12.167  0.7347  0.9088  0.3210
 3053TIP3    H230651   6.237   0.392  12.052  1.2249  1.2058  0.6482
 3054TIP3   OH230652   3.414   1.489   3.136  0.2194 -0.4637  0.5943
 3054TIP3    H130653   3.425   1.395   3.150  0.0411 -0.2877  2.0516
 3054TIP3    H230654   3.499   1.526   3.161  0.6627 -0.3259 -1.0478
 3055TIP3   OH230655   6.492   3.532   0.623  0.6205  0.0246 -0.5324
 3055TIP3    H130656   6.421   3.515   0.561 -1.8727 -1.0492  2.4640
 3055TIP3    H230657   6.504   3.627   0.620 -0.9169  0.2190 -1.1472
 3056TIP3   OH230658   6.568   0.089  15.100  0.0847 -0.3354  0.1226
 3056TIP3    H130659   6.641   0.096  15.038 -0.2740 -0.2887 -0.2975
 3056TIP3    H230660   6.595   0.022  15.162  1.0393  0.5887  0.7322
 3057TIP3   OH230661   5.047   0.786   0.270 -0.1550  0.0388 -0.5830
 3057TIP3    H130662   5.026   0.696   0.294 -1.5264 -0.0223 -1.9184
 3057TIP3    H230663   5.014   0.840   0.342 -2.7149 -0.2517 -1.5118
 3058TIP3   OH230664   2.634   4.637  16.397 -0.8094  0.0300 -0.1985
 3058TIP3    H130665   2.658   4.703  16.462  1.2477 -1.0568  0.2150
 3058TIP3    H230666   2.625   4.556  16.447 -0.8771 -0.4848 -1.0249
 3059TIP3   OH230667   3.047   4.749  13.627 -0.0547  0.6991 -0.7074
 3059TIP3    H130668   3.091   4.737  13.543  0.7835  0.5301 -0.2535
 3059TIP3    H230669   3.093   4.689  13.686 -0.0813  1.4378  0.0642
 3060TIP3   OH230670   6.504   3.448   2.902 -0.2318  0.6064 -0.2126
 3060TIP3    H130671   6.430   3.508   2.915  0.0000  0.8491  0.0076
 3060TIP3    H230672   6.549   3.447   2.986 -1.4953 -1.6333  0.4670
 3061TIP3   OH230673   4.279   3.126   1.831 -0.4496  0.1769 -0.3192
 3061TIP3    H130674   4.364   3.099   1.865  0.1281  1.0202 -1.0564
 3061TIP3    H230675   4.292   3.216   1.802 -1.1144 -0.2701 -2.0765
 3062TIP3   OH230676   1.980   6.516  15.713 -0.2179 -0.6058  0.1909
 3062TIP3    H130677   2.018   6.453  15.652  0.0337  1.4930 -1.8866
 3062TIP3    H230678   2.042   6.519  15.787  2.9606  1.5831 -2.4090
 3063TIP3   OH230679   6.015   5.958  15.517  0.2568  0.0974  0.1037
 3063TIP3    H130680   6.060   5.991  15.595 -0.4251  0.4098  0.3612
 3063TIP3    H230681   5.999   6.035  15.464  0.1193 -0.0321 -0.0432
 3064TIP3   OH230682   1.175   4.053  14.699 -0.1819  0.1230  0.1837
 3064TIP3    H130683   1.103   4.041  14.638  0.1794  0.7107 -0.3558
 3064TIP3    H230684   1.237   4.109  14.653  1.3550 -1.6446  0.0212
 3065TIP3   OH230685   3.759   2.874  10.644  0.3574  0.5828 -0.3926
 3065TIP3    H130686   3.756   2.930  10.566 -0.0613  0.4569 -0.4702
 3065TIP3    H230687   3.828   2.912  10.698  1.5199 -0.0807 -1.3900
 3066TIP3   OH230688   4.793   2.434   5.136  0.5899  0.0760 -0.2327
 3066TIP3    H130689   4.873   2.435   5.189  1.3773  0.9926 -1.4147
 3066TIP3    H230690   4.749   2.516   5.160  0.0939 -0.3419  0.2834
 3067TIP3   OH230691   4.055   2.121  14.899  0.0851 -0.2234 -0.6374
 3067TIP3    H130692   4.012   2.037  14.883 -0.8730 -0.0307  0.7995
 3067TIP3    H230693   4.148   2.101  14.894 -0.1421 -1.1186 -1.5280
 3068TIP3   OH230694   0.661   2.921   3.787  0.0161  0.4308  0.7149
 3068TIP3    H130695   0.578   2.894   3.827  0.2876 -0.4752  0.7001
 3068TIP3    H230696   0.670   3.014   3.808 -2.0626  1.0844 -1.1915
 3069TIP3   OH230697   5.305   2.072  15.256 -0.4107 -0.0008  0.4848
 3069TIP3    H130698   5.249   1.993  15.258  0.1863 -0.4163  2.4416
 3069TIP3    H230699   5.368   2.058  15.327 -0.3885  2.3096  0.9644
 3070TIP3   OH230700   5.517   1.334   2.927 -0.4883  0.4757 -0.0089
 3070TIP3    H130701   5.555   1.422   2.930  1.1296 -0.1374 -1.6180
 3070TIP3    H230702   5.559   1.287   2.999 -1.8100  1.1814  1.2378
 3071TIP3   OH230703   1.568   0.505   1.030 -0.0728 -0.3775  0.3568
 3071TIP3    H130704   1.656   0.479   1.004  0.0914 -1.0871  1.6132
 3071TIP3    H230705   1.513   0.431   1.006 -0.0788 -0.6000  1.0451
 3072TIP3   OH230706   6.565   6.252  11.318 -0.4110  0.2096 -0.1774
 3072TIP3    H130707   6.557   6.330  11.373 -0.7499  1.2833 -1.6862
 3072TIP3    H230708   6.641   6.270  11.262  0.2162 -1.0596  0.2592
 3073TIP3   OH230709   4.869   0.919  12.060 -0.1942 -0.2416  0.4044
 3073TIP3    H130710   4.962   0.909  12.039 -0.2005  0.6899 -0.1233
 3073TIP3    H230711   4.824   0.883  11.984 -0.2653 -1.1224  0.8687
 3074TIP3   OH230712   1.428   0.329   4.407  0.2854  0.3453  0.0508
 3074TIP3    H130713   1.459   0.412   4.371  0.8027 -0.7516 -2.1005
 3074TIP3    H230714   1.448   0.264   4.339  1.6712 -1.8672  2.4829
 3075TIP3   OH230715   3.138   4.378  16.039  0.0516  0.2614 -0.8447
 3075TIP3    H130716   3.064   4.327  16.073  0.5611 -0.3958 -0.7120
 3075TIP3    H230717   3.108   4.409  15.954 -1.0382  1.4678 -0.0523
 3076TIP3   OH230718   4.489   0.938  12.118 -0.1122  0.5186 -0.0290
 3076TIP3    H130719   4.578   0.914  12.141  0.3454  0.4666 -1.7694
 3076TIP3    H230720   4.465   1.006  12.180  1.4515  1.1370 -0.0909
 3077TIP3   OH230721   1.954   1.598   3.945  0.0756  0.4275 -0.3794
 3077TIP3    H130722   1.990   1.530   3.889  0.1013  1.4107 -1.5959
 3077TIP3    H230723   2.029   1.636   3.989  0.1225  0.0347 -0.1232
 3078TIP3   OH230724   5.632   4.074   5.778 -0.2122 -0.2875 -0.5118
 3078TIP3    H130725   5.645   4.020   5.855 -1.5080 -1.8161 -1.3362
 3078TIP3    H230726   5.538   4.091   5.776 -0.1528 -0.0266 -1.5859
 3079TIP3   OH230727   2.737   5.439  11.656  0.0859 -0.4577  0.3304
 3079TIP3    H130728   2.646   5.417  11.674 -0.5107  1.0821 -0.7004
 3079TIP3    H230729   2.751   5.521  11.703  1.5795 -1.7227  2.1915
 3080TIP3   OH230730   0.349   1.523   5.289  0.8143 -0.0947  0.4772
 3080TIP3    H130731   0.374   1.579   5.215  1.2977  0.3285  0.9624
 3080TIP3    H230732   0.373   1.434   5.261 -2.4690 -0.4531 -1.4274
 3081TIP3   OH230733   3.632   1.919  16.987 -0.0028  0.3644 -0.2663
 3081TIP3    H130734   3.615   1.963  16.904 -1.3290  0.2108 -0.0762
 3081TIP3    H230735   3.728   1.916  16.993  0.1097 -0.1648 -2.0639
 3082TIP3   OH230736   2.078   4.953  11.990  0.4458 -0.2263  0.5038
 3082TIP3    H130737   2.079   4.956  12.086  0.4793 -1.8804  0.5709
 3082TIP3    H230738   2.004   4.896  11.968 -0.4206  1.2530 -0.5007
 3083TIP3   OH230739   5.222   5.412   5.554  0.3151  0.1857 -0.1787
 3083TIP3    H130740   5.204   5.463   5.633 -0.8297  1.0871 -0.9925
 3083TIP3    H230741   5.224   5.321   5.583 -1.4276  0.3990  0.6771
 3084TIP3   OH230742   6.538   3.544  15.535  0.1016  0.3437 -0.5374
 3084TIP3    H130743   6.493   3.603  15.474  1.1270  0.4474 -1.2000
 3084TIP3    H230744   6.534   3.458  15.493 -1.0376 -0.0013  0.2416
 3085TIP3   OH230745   1.145   5.248  13.816 -0.3929 -0.1599  0.2562
 3085TIP3    H130746   1.153   5.225  13.724 -0.5402 -1.7326  0.6163
 3085TIP3    H230747   1.104   5.171  13.856  0.4546  0.1620  1.7754
 3086TIP3   OH230748   3.393   1.286  17.276  0.0662 -0.5062 -0.8047
 3086TIP3    H130749   3.446   1.322  17.205  0.7450  0.0993 -0.0038
 3086TIP3    H230750   3.454   1.231  17.326 -0.6181 -1.6443 -1.1938
 3087TIP3   OH230751   6.736   4.737   4.370 -0.3368 -0.0898  0.5984
 3087TIP3    H130752   6.698   4.673   4.430  0.9481 -2.1150 -0.6791
 3087TIP3    H230753   6.661   4.774   4.323 -1.2744  0.9032  2.7915
 3088TIP3   OH230754   2.692   0.475  13.685  0.8122  0.0339 -0.4764
 3088TIP3    H130755   2.655   0.563  13.678 -0.3336 -0.2476  1.6750
 3088TIP3    H230756   2.783   0.490  13.711 -0.1883  0.5705  2.9677
 3089TIP3   OH230757   0.615   2.656  15.448 -0.4032 -0.1071  0.1254
 3089TIP3    H130758   0.535   2.602  15.450  0.9278 -2.1210  0.8972
 3089TIP3    H230759   0.596   2.729  15.507 -1.4244 -0.9554  0.8711
 3090TIP3   OH230760   0.266   2.154   0.660 -0.0867  0.0508 -0.2635
 3090TIP3    H130761   0.331   2.131   0.594  1.3042  0.7437  0.8307
 3090TIP3    H230762   0.301   2.116   0.741 -1.1343  0.3025  0.3090
 3091TIP3   OH230763   6.503   2.009   1.802 -0.7155  0.0213  0.0880
 3091TIP3    H130764   6.542   2.048   1.723  1.6996 -1.8510  0.2910
 3091TIP3    H230765   6.493   2.082   1.863  3.1839  0.5249  0.2603
 3092TIP3   OH230766   2.053   2.404  10.599  0.3761  0.7186  0.3332
 3092TIP3    H130767   2.104   2.484  10.585 -0.6939  1.2191 -0.8695
 3092TIP3    H230768   2.016   2.385  10.513  1.0306 -1.3668  0.4991
 3093TIP3   OH230769   0.091   5.762  13.204 -0.1363 -0.1246  0.8693
 3093TIP3    H130770   0.174   5.806  13.226 -0.1256  1.2968 -1.8485
 3093TIP3    H230771   0.026   5.832  13.205 -0.5408 -0.4413 -1.1556
 3094TIP3   OH230772   4.372   3.874   2.421 -0.0272  0.2223 -0.0812
 3094TIP3    H130773   4.347   3.788   2.456 -1.0781  0.3248 -0.5563
 3094TIP3    H230774   4.449   3.899   2.472  0.1942 -0.9261  0.1820
 3095TIP3   OH230775   3.280   5.340   3.010  0.1631  0.4844 -0.3196
 3095TIP3    H130776   3.264   5.261   2.959 -2.1716 -0.1204  1.2493
 3095TIP3    H230777   3.357   5.380   2.970  0.8500 -2.1099 -1.7044
 3096TIP3   OH230778   2.033   0.572  13.423  0.6548  0.6229 -0.8241
 3096TIP3    H130779   2.024   0.655  13.469  2.4495 -0.2616  1.2500
 3096TIP3    H230780   2.101   0.588  13.357  0.9598  0.8376 -0.4615
 3097TIP3   OH230781   3.239   4.510   3.743 -0.0167  0.4118  0.2939
 3097TIP3    H130782   3.323   4.521   3.699 -0.3952  0.2336 -0.4778
 3097TIP3    H230783   3.183   4.577   3.704 -0.1611  0.7117  1.0053
 3098TIP3   OH230784   2.469   2.481   4.764  0.3222  0.4954 -0.9917
 3098TIP3    H130785   2.509   2.566   4.780 -1.4175  1.3293 -0.9274
 3098TIP3    H230786   2.407   2.470   4.836  0.0646 -0.5261 -1.3635
 3099TIP3   OH230787   3.022   0.723  12.706 -0.3021  0.0286  0.4757
 3099TIP3    H130788   2.964   0.730  12.631  0.8075  0.7982 -0.3291
 3099TIP3    H230789   3.039   0.629  12.715  1.5378  0.0988 -1.8045
 3100TIP3   OH230790   3.662   0.693   1.120 -0.3285  0.7100 -0.1543
 3100TIP3    H130791   3.608   0.630   1.169 -2.3100  0.8781 -2.0323
 3100TIP3    H230792   3.750   0.680   1.154 -1.1810 -1.1067  1.4942
 3101TIP3   OH230793   5.851   4.479  12.285  0.1634 -0.0904 -0.5931
 3101TIP3    H130794   5.868   4.500  12.377  0.7993 -1.1052 -0.4680
 3101TIP3    H230795   5.937   4.487  12.243 -0.0450 -0.0608 -1.0143
 3102TIP3   OH230796   1.973   3.722  15.039 -0.3567 -0.1496 -0.0099
 3102TIP3    H130797   1.939   3.808  15.061  0.3955  0.0637  0.3431
 3102TIP3    H230798   2.040   3.739  14.972  0.6062 -0.3294  0.8843
 3103TIP3   OH230799   3.152   6.480  16.634 -0.2484 -0.3145 -0.3587
 3103TIP3    H130800   3.081   6.418  16.620 -1.0354  0.6556 -0.7142
 3103TIP3    H230801   3.108   6.563  16.653  0.7674 -0.3347  2.4096
 3104TIP3   OH230802   2.638   1.529  14.039  0.4111  0.4208  0.1960
 3104TIP3    H130803   2.587   1.579  13.976  0.0899 -0.7756 -0.5212
 3104TIP3    H230804   2.712   1.494  13.988  0.7764  0.3918  0.7408
 3105TIP3   OH230805   0.587   5.640  12.952 -0.0424 -0.2181 -0.2525
 3105TIP3    H130806   0.600   5.687  13.034 -1.3856 -1.3007  0.5874
 3105TIP3    H230807   0.625   5.698  12.885  0.5971  0.8924  1.0551
 3106TIP3   OH230808   0.310   6.519   3.009  0.0356 -0.0847 -0.3018
 3106TIP3    H130809   0.244   6.452   3.030  0.2624  0.2815  1.6182
 3106TIP3    H230810   0.285   6.549   2.922 -2.9546  0.7277  0.7480
 3107TIP3   OH230811   3.580   6.578  16.467  0.4955  0.9356 -0.4700
 3107TIP3    H130812   3.489   6.602  16.488  0.6361 -0.5781  2.1091
 3107TIP3    H230813   3.621   6.661  16.442 -1.2091  1.8933 -0.1704
 3108TIP3   OH230814   5.756   1.971  12.881 -0.2471  0.0774 -0.0341
 3108TIP3    H130815   5.711   1.893  12.914 -0.3819  0.4136  0.5724
 3108TIP3    H230816   5.758   1.958  12.786  2.3027 -2.0566  0.2509
 3109TIP3   OH230817   0.095   4.745   0.536  0.7599  0.3660  0.1123
 3109TIP3    H130818   0.059   4.708   0.455 -0.6302  1.5484  0.1757
 3109TIP3    H230819   0.106   4.670   0.594 -0.4250 -0.1921 -0.3669
 3110TIP3   OH230820   3.257   1.318  13.171  0.4697  0.3323 -0.2691
 3110TIP3    H130821   3.200   1.350  13.100  1.9348  3.1457 -0.2027
 3110TIP3    H230822   3.300   1.242  13.133 -0.8247  0.1565 -1.4586
 3111TIP3   OH230823   1.249   1.730  12.772 -0.2263 -0.0808 -0.2581
 3111TIP3    H130824   1.314   1.720  12.703 -3.1563 -3.0647 -2.8034
 3111TIP3    H230825   1.180   1.668  12.749 -2.6369  0.8264  3.8966
 3112TIP3   OH230826   3.555   5.207   0.096 -0.1676  0.2490  0.4054
 3112TIP3    H130827   3.475   5.254   0.074  0.2287  1.6515  1.8680
 3112TIP3    H230828   3.597   5.260   0.163  2.9047  0.4787 -1.5694
 3113TIP3   OH230829   2.764   5.452  10.987  0.0665  0.3806  0.2371
 3113TIP3    H130830   2.809   5.535  11.001 -1.7328  1.4236  0.0184
 3113TIP3    H230831   2.793   5.424  10.899  1.1483  0.4468  0.5614
 3114TIP3   OH230832   1.026   2.352  16.646  0.2823 -0.1886  0.2227
 3114TIP3    H130833   0.977   2.380  16.723  0.3049 -0.0191  0.1740
 3114TIP3    H230834   1.081   2.280  16.678  0.0498 -0.3347  0.2904
 3115TIP3   OH230835   5.993   0.028   2.283  0.4634 -0.1640 -0.0611
 3115TIP3    H130836   5.991  -0.065   2.258  1.0782 -0.8276  2.2033
 3115TIP3    H230837   6.076   0.038   2.329  0.5784  1.6279 -0.6438
 3116TIP3   OH230838   0.583   0.472   0.984 -0.1948 -0.8978 -0.1048
 3116TIP3    H130839   0.573   0.384   0.947 -1.7255 -0.6250 -0.3659
 3116TIP3    H230840   0.593   0.457   1.078  1.5888 -1.4635 -0.3597
 3117TIP3   OH230841   6.286   3.238  12.177 -0.0593  1.4431 -0.2051
 3117TIP3    H130842   6.260   3.197  12.260  0.0211  1.2745 -0.2635
 3117TIP3    H230843   6.346   3.308  12.203  1.3296  0.2988 -0.2252
 3118TIP3   OH230844   3.279   0.239  11.204  0.3845 -0.1470  0.3473
 3118TIP3    H130845   3.269   0.228  11.110  1.8442  2.1324 -0.1074
 3118TIP3    H230846   3.190   0.248  11.237 -0.0447  1.1695 -1.1177
 3119TIP3   OH230847   3.493   6.554   3.145 -0.2346  0.3901  0.3035
 3119TIP3    H130848   3.454   6.550   3.058 -0.1921  1.1649  0.2511
 3119TIP3    H230849   3.512   6.647   3.160  3.4700 -0.1644 -0.4877
 3120TIP3   OH230850   4.221   0.608  11.841  0.6188  0.0927  0.1288
 3120TIP3    H130851   4.196   0.660  11.765  0.7129  0.7743  0.5566
 3120TIP3    H230852   4.238   0.673  11.909  2.7540 -0.3952  0.0880
 3121TIP3   OH230853   4.021   3.264  16.795 -0.0095 -0.6213  0.0176
 3121TIP3    H130854   4.080   3.191  16.814  0.2273 -1.2200 -2.7697
 3121TIP3    H230855   3.999   3.253  16.703 -1.0855  2.0528 -0.0751
 3122TIP3   OH230856   2.639   3.276  16.872 -0.2485 -0.1934  0.1254
 3122TIP3    H130857   2.696   3.316  16.806 -1.2344  0.4843 -0.3225
 3122TIP3    H230858   2.633   3.184  16.845 -0.2094 -0.0410 -0.4266
 3123TIP3   OH230859   4.225   5.180  16.013  1.1585 -0.5676  0.4474
 3123TIP3    H130860   4.286   5.144  15.948  0.9560  0.5249 -0.3625
 3123TIP3    H230861   4.144   5.194  15.964  0.1791 -2.1819  1.5611
 3124TIP3   OH230862   3.805   0.364   2.767  0.5904  0.5378  0.6002
 3124TIP3    H130863   3.738   0.418   2.808 -0.1663 -0.5737  0.8638
 3124TIP3    H230864   3.887   0.390   2.809  0.7306  3.6795 -1.4708
 3125TIP3   OH230865   0.122   6.386  15.402 -0.1218 -0.2790 -0.2050
 3125TIP3    H130866   0.157   6.348  15.321 -1.2216 -0.8255 -0.4228
 3125TIP3    H230867   0.137   6.481  15.392  0.7265 -0.4427 -0.5663
 3126TIP3   OH230868   0.690   4.250  11.195  0.3866 -0.3280 -0.6035
 3126TIP3    H130869   0.600   4.230  11.169 -0.1040  0.0038  0.8108
 3126TIP3    H230870   0.719   4.314  11.131  0.1064 -1.4806 -1.9128
 3127TIP3   OH230871   1.043   0.553  12.070 -0.2770 -0.0474  0.1345
 3127TIP3    H130872   1.024   0.459  12.059  1.0264 -0.3000 -0.0806
 3127TIP3    H230873   0.990   0.595  12.002 -0.0581 -0.7291 -0.4742
 3128TIP3   OH230874   3.156   5.487  16.053 -0.5611  0.0876 -0.2808
 3128TIP3    H130875   3.142   5.561  15.994  1.5840 -0.2007 -1.1968
 3128TIP3    H230876   3.132   5.521  16.140  2.0034  2.4417 -0.4186
 3129TIP3   OH230877   4.531   3.007  12.121  0.4696 -0.8683 -0.2205
 3129TIP3    H130878   4.526   3.032  12.029  1.2068 -0.4920 -0.1680
 3129TIP3    H230879   4.623   3.024  12.145  0.5470 -1.9889  0.2897
 3130TIP3   OH230880   5.583   3.879  15.264 -0.5531  0.1182  0.3489
 3130TIP3    H130881   5.567   3.892  15.357  0.0752  3.5147  0.0450
 3130TIP3    H230882   5.505   3.915  15.221 -0.0194  0.2317 -0.5279
 3131TIP3   OH230883   2.813   1.850   4.300 -0.1213  0.0087 -0.0699
 3131TIP3    H130884   2.806   1.799   4.380 -3.5610  0.2753 -0.1450
 3131TIP3    H230885   2.811   1.941   4.329 -2.2729  0.1146 -0.4689
 3132TIP3   OH230886   4.155   5.858   4.115  0.3892 -0.0878 -0.4611
 3132TIP3    H130887   4.216   5.931   4.105 -1.1235  1.0435 -1.6595
 3132TIP3    H230888   4.119   5.867   4.203  1.6220 -0.5229  0.0977
 3133TIP3   OH230889   6.726   5.178  12.010  0.1761 -0.0471 -0.4271
 3133TIP3    H130890   6.651   5.183  12.068  0.3735 -0.5885 -0.1200
 3133TIP3    H230891   6.747   5.269  11.989 -0.9448  0.0816 -1.0094
 3134TIP3   OH230892   2.388   4.178  11.472 -0.1549  0.6016 -0.2928
 3134TIP3    H130893   2.327   4.113  11.506  0.6799 -0.8412 -1.5112
 3134TIP3    H230894   2.427   4.137  11.395  0.9593  2.2410 -0.6318
 3135TIP3   OH230895   5.720   6.603  13.467 -0.2323 -0.0744  0.3117
 3135TIP3    H130896   5.807   6.643  13.461  0.3095 -1.2580  0.2220
 3135TIP3    H230897   5.703   6.567  13.380 -0.6704 -0.1567  0.4273
 3136TIP3   OH230898   0.968   5.163  13.066 -0.1059  0.2005  0.0815
 3136TIP3    H130899   0.908   5.206  13.004 -1.1455 -0.6744  0.4517
 3136TIP3    H230900   1.052   5.161  13.020 -0.4387  1.1415 -0.5926
 3137TIP3   OH230901   6.124   5.042   1.374  0.1745 -0.3587 -0.0520
 3137TIP3    H130902   6.029   5.045   1.390 -0.1733 -0.6956 -1.8454
 3137TIP3    H230903   6.147   4.949   1.384  0.1586 -0.3990 -0.3816
 3138TIP3   OH230904   3.140   6.256   4.715  0.0947 -0.3483  0.1316
 3138TIP3    H130905   3.110   6.278   4.627 -2.2324 -0.3878  0.8891
 3138TIP3    H230906   3.207   6.189   4.701 -0.4527 -0.5548 -1.6078
 3139TIP3   OH230907   1.647   4.377   4.714  0.5952 -0.4621  0.9277
 3139TIP3    H130908   1.709   4.399   4.784 -0.6666  0.1083  1.8769
 3139TIP3    H230909   1.614   4.290   4.738  2.2211 -1.5010 -0.4482
 3140TIP3   OH230910   5.874   3.449   2.795 -0.1439 -0.0713 -0.4087
 3140TIP3    H130911   5.831   3.379   2.844  0.1454 -0.3355 -0.5239
 3140TIP3    H230912   5.961   3.414   2.776  0.4897  0.8835  0.7365
 3141TIP3   OH230913   2.029   5.276  16.737  0.5050  0.3580 -0.6966
 3141TIP3    H130914   2.118   5.293  16.705 -0.1849  2.1101 -1.7270
 3141TIP3    H230915   2.017   5.340  16.807  0.1970 -0.1646 -0.2692
 3142TIP3   OH230916   5.934   3.667  11.271  0.8329 -1.1438  0.5758
 3142TIP3    H130917   5.923   3.744  11.327  0.9965  0.0111 -0.9359
 3142TIP3    H230918   6.008   3.690  11.214 -1.0755 -1.1679 -1.9493
 3143TIP3   OH230919   4.098   3.919   1.612  0.2216  0.4681 -0.1520
 3143TIP3    H130920   4.178   3.873   1.637 -0.7437 -0.4822  1.2908
 3143TIP3    H230921   4.117   3.955   1.525  1.8914 -0.4826 -0.2066
 3144TIP3   OH230922   3.937   6.231   4.025  0.5894 -0.1731 -0.0557
 3144TIP3    H130923   4.016   6.283   4.037 -0.0205  0.2720  2.3103
 3144TIP3    H230924   3.898   6.225   4.113 -1.2682 -1.5487 -0.9236
 3145TIP3   OH230925   4.811   4.241  12.391 -0.2383  0.0742  0.4067
 3145TIP3    H130926   4.906   4.228  12.393 -0.4339 -1.4409  0.1443
 3145TIP3    H230927   4.785   4.248  12.482  0.2459  1.5255  0.4543
 3146TIP3   OH230928   3.112   4.569  16.352  0.0774 -0.1379  0.6393
 3146TIP3    H130929   3.088   4.649  16.306 -1.0751 -0.9402 -0.2112
 3146TIP3    H230930   3.190   4.538  16.308 -0.2321 -0.1729  0.1157
 3147TIP3   OH230931   3.269   4.491   2.948  0.0843  0.7138 -0.3215
 3147TIP3    H130932   3.293   4.421   2.886  1.9795  0.7066  0.4000
 3147TIP3    H230933   3.348   4.506   2.999 -1.9741 -0.6999  3.5205
 3148TIP3   OH230934   3.379   3.575   2.096  0.1776  0.1869  0.5478
 3148TIP3    H130935   3.444   3.590   2.028  0.2936  1.1973  0.8733
 3148TIP3    H230936   3.337   3.660   2.108  1.6117  0.5741  3.2297
 3149TIP3   OH230937   0.542   3.151   2.260 -0.3792  0.9393 -0.8167
 3149TIP3    H130938   0.575   3.124   2.346  0.3876 -1.9875 -1.9355
 3149TIP3    H230939   0.447   3.154   2.270 -0.3018  0.4937  0.1019
 3150TIP3   OH230940   4.138   1.135  16.211  0.2080  0.0727  0.4505
 3150TIP3    H130941   4.192   1.206  16.244  0.2951  0.0310  0.3962
 3150TIP3    H230942   4.049   1.171  16.211  0.2125  0.0810  0.7072
 3151TIP3   OH230943   2.671   0.328   4.895 -0.4339  0.2962 -0.5745
 3151TIP3    H130944   2.729   0.353   4.823  0.9142 -2.3040 -0.4466
 3151TIP3    H230945   2.611   0.265   4.857 -0.0792 -0.6629  0.4242
 3152TIP3   OH230946   6.229   3.808   0.921 -0.0075 -0.1065  0.1377
 3152TIP3    H130947   6.259   3.899   0.919 -0.8055  0.1514 -0.2762
 3152TIP3    H230948   6.189   3.794   0.836  1.3322 -1.2822 -0.3131
 3153TIP3   OH230949   0.466   1.958  16.300 -0.1351  0.5040 -0.0157
 3153TIP3    H130950   0.421   1.914  16.228 -1.3656  0.0180  1.0369
 3153TIP3    H230951   0.503   2.037  16.260 -0.6414  0.1519 -1.2177
 3154TIP3   OH230952   4.715   0.419   3.858  0.4548  0.1200 -0.1569
 3154TIP3    H130953   4.795   0.467   3.836 -1.1706  1.4913 -3.4937
 3154TIP3    H230954   4.738   0.366   3.934  4.4135  0.7365 -0.8496
 3155TIP3   OH230955   3.090   3.760  14.174  0.1056  0.0225 -0.5422
 3155TIP3    H130956   3.042   3.720  14.246 -0.1722 -1.0134 -1.2782
 3155TIP3    H230957   3.119   3.844  14.208  0.5476 -0.7292  1.0016
 3156TIP3   OH230958   6.361   4.155  11.894  0.3527 -0.6663  0.5146
 3156TIP3    H130959   6.335   4.178  11.983 -0.7596 -1.3166  0.3721
 3156TIP3    H230960   6.343   4.234  11.842 -2.0656 -1.3120  0.2900
 3157TIP3   OH230961   1.171   2.969   4.891  0.0538 -0.2544 -0.4770
 3157TIP3    H130962   1.236   2.940   4.827 -1.2135  0.1003 -1.9279
 3157TIP3    H230963   1.089   2.973   4.843 -0.8715  0.2680  1.1084
 3158TIP3   OH230964   3.542   6.816   6.261  0.9078  0.0110 -0.1805
 3158TIP3    H130965   3.541   6.819   6.166  0.1185 -1.3759 -0.2235
 3158TIP3    H230966   3.554   6.723   6.283 -0.3565  0.1142  1.0626
 3159TIP3   OH230967   1.739   4.662  12.788 -0.7223 -0.1909  0.3745
 3159TIP3    H130968   1.748   4.570  12.765 -2.3808 -0.1925 -0.3575
 3159TIP3    H230969   1.765   4.709  12.709 -1.6836 -0.0853  0.1133
 3160TIP3   OH230970   1.257   1.974  12.396  0.3372  0.1022  0.1718
 3160TIP3    H130971   1.254   2.053  12.450 -1.8271 -0.3983  0.8565
 3160TIP3    H230972   1.181   1.922  12.425  0.1093 -0.9570 -2.1605
 3161TIP3   OH230973   1.595   4.827   2.584 -0.3545  0.1700 -0.7369
 3161TIP3    H130974   1.542   4.898   2.618  0.9895  0.8836 -0.0983
 3161TIP3    H230975   1.606   4.767   2.658  0.1307  0.2644 -0.7314
 3162TIP3   OH230976   2.269   2.261  11.758 -0.0491  0.2561  0.1388
 3162TIP3    H130977   2.222   2.181  11.735 -1.1436  0.4677  1.5454
 3162TIP3    H230978   2.359   2.232  11.775  0.0726 -0.3260 -1.4804
 3163TIP3   OH230979   2.482   0.835   4.917 -0.4001  0.8109  0.0263
 3163TIP3    H130980   2.391   0.855   4.897 -0.5699 -0.4198 -0.4538
 3163TIP3    H230981   2.507   0.900   4.983 -2.2169 -0.0831  1.6327
 3164TIP3   OH230982   6.285   6.570   4.518  0.1896  0.4964  0.3135
 3164TIP3    H130983   6.303   6.661   4.542  0.1602  0.4866  0.3740
 3164TIP3    H230984   6.336   6.518   4.581 -1.7354  0.4423  1.8610
 3165TIP3   OH230985   1.985   6.188   1.868  0.4522 -0.2455 -0.4523
 3165TIP3    H130986   1.947   6.276   1.872 -1.1426 -0.9379 -0.3169
 3165TIP3    H230987   1.932   6.141   1.804 -1.0377 -2.2091  2.1294
 3166TIP3   OH230988   2.484   0.683  16.956 -0.1927  0.0600 -0.8373
 3166TIP3    H130989   2.470   0.589  16.968 -1.3443  0.2653 -0.4531
 3166TIP3    H230990   2.428   0.706  16.882  0.2456  0.3991 -1.0626
 3167TIP3   OH230991   2.125   3.671  15.258 -0.3765 -0.4542  0.4061
 3167TIP3    H130992   2.066   3.678  15.183 -0.5709 -0.0272  0.5944
 3167TIP3    H230993   2.106   3.586  15.297 -0.5507 -0.5078  0.2001
 3168TIP3   OH230994   5.588   2.438   3.425  0.6625 -0.3885  0.0800
 3168TIP3    H130995   5.572   2.491   3.503 -1.2922 -1.2454  0.2973
 3168TIP3    H230996   5.500   2.422   3.389  1.2958 -2.4751 -0.6186
 3169TIP3   OH230997   3.424   6.020   5.964  0.8327  0.4443  0.5166
 3169TIP3    H130998   3.513   6.022   5.928 -0.1392  0.0306 -1.9788
 3169TIP3    H230999   3.403   6.112   5.982  1.8565  0.5180  1.4372
 3170TIP3   OH231000   5.224   3.745   0.116 -0.6756  0.1589 -0.0606
 3170TIP3    H131001   5.181   3.679   0.062 -0.3221 -0.0685 -0.0638
 3170TIP3    H231002   5.209   3.827   0.069  1.2726 -0.2963 -1.5151
 3171TIP3   OH231003   3.389   3.086   4.673  0.1878  0.2346  1.1801
 3171TIP3    H131004   3.330   3.019   4.709 -1.5057  1.1053  0.1130
 3171TIP3    H231005   3.476   3.057   4.698 -0.6220 -1.5799  2.0262
 3172TIP3   OH231006   5.974   1.079  12.968 -0.1653  0.2744  0.0449
 3172TIP3    H131007   6.044   1.090  12.904 -0.1792  1.4651  0.2272
 3172TIP3    H231008   5.894   1.096  12.918 -0.0937  2.7568  0.6970
 3173TIP3   OH231009   1.436   0.276  11.794  0.1784  0.5587  0.2833
 3173TIP3    H131010   1.399   0.202  11.842  1.5026  1.2990  2.5082
 3173TIP3    H231011   1.506   0.237  11.742 -2.1318 -0.4708 -2.2108
 3174TIP3   OH231012   6.570   2.417   2.623  0.0062  0.0057 -0.0750
 3174TIP3    H131013   6.652   2.450   2.659 -1.1856  1.9575  0.9796
 3174TIP3    H231014   6.543   2.483   2.560 -1.9845  0.6802  1.4193
 3175TIP3   OH231015   1.431   2.298   0.100  0.4876 -0.1750  0.7502
 3175TIP3    H131016   1.362   2.254   0.150 -0.5333 -0.0691 -0.5590
 3175TIP3    H231017   1.435   2.250   0.017 -0.9913  2.4615 -0.9239
 3176TIP3   OH231018   6.749   1.415  17.280  0.3170  0.0647 -0.7126
 3176TIP3    H131019   6.675   1.474  17.264  0.5784  0.3937 -0.7198
 3176TIP3    H231020   6.725   1.368  17.359 -0.7987 -1.2583 -1.8048
 3177TIP3   OH231021   1.542   4.462   1.021  0.2106 -0.5195 -0.3610
 3177TIP3    H131022   1.465   4.510   1.051  0.5709 -0.3295  0.2681
 3177TIP3    H231023   1.609   4.481   1.087  0.7520 -0.7968 -0.8305
 3178TIP3   OH231024   0.612   2.168  16.949  0.0366  0.2897  0.2964
 3178TIP3    H131025   0.523   2.134  16.944 -0.2388  0.9439  0.5992
 3178TIP3    H231026   0.658   2.107  17.007  0.4307 -1.3700 -1.6882
 3179TIP3   OH231027   4.865   1.552   3.512 -0.1035 -0.0805  0.6108
 3179TIP3    H131028   4.865   1.604   3.431 -1.1573 -0.7355  0.1762
 3179TIP3    H231029   4.958   1.543   3.534  0.1112  1.5711  0.4382
 3180TIP3   OH231030   1.303   5.118   0.440  0.1518  0.4630  0.1052
 3180TIP3    H131031   1.276   5.030   0.415  0.2676  0.3592  0.3406
 3180TIP3    H231032   1.321   5.112   0.534  2.0665  0.2529 -0.2597
 3181TIP3   OH231033   1.044   1.280   1.988 -0.0036 -0.0364  0.2457
 3181TIP3    H131034   0.952   1.294   1.963 -0.0928 -0.7312  0.1741
 3181TIP3    H231035   1.068   1.198   1.944  0.2414 -0.5759  1.3728
 3182TIP3   OH231036   0.785   0.686   0.476 -0.3210 -0.2055 -0.5882
 3182TIP3    H131037   0.771   0.592   0.466  1.1420 -0.3621 -1.3548
 3182TIP3    H231038   0.777   0.721   0.387 -1.2374  0.4537 -0.2518
 3183TIP3   OH231039   3.028   3.389  16.578  0.9835 -0.3899 -0.5207
 3183TIP3    H131040   3.045   3.324  16.509  0.0398  1.0434 -2.1543
 3183TIP3    H231041   3.071   3.468  16.547 -1.3717  0.9069 -0.5813
 3184TIP3   OH231042   0.231   1.787   1.709  0.1764  0.4538  0.3346
 3184TIP3    H131043   0.323   1.762   1.716  0.2489  0.6724  0.1820
 3184TIP3    H231044   0.186   1.708   1.681  0.6390  0.8989 -1.7152
 3185TIP3   OH231045   0.993   4.556   4.031 -0.0127 -0.6178 -0.1833
 3185TIP3    H131046   0.937   4.615   3.982 -0.5599 -0.7322  0.3001
 3185TIP3    H231047   1.018   4.605   4.109 -0.1642 -0.8844  0.0351
 3186TIP3   OH231048   4.697   0.296  16.361 -0.0781  0.1236 -0.3234
 3186TIP3    H131049   4.726   0.379  16.322 -2.6237  0.6081 -1.2633
 3186TIP3    H231050   4.616   0.275  16.314 -0.6157 -1.7863  1.4205
 3187TIP3   OH231051   0.678   4.961  11.908 -0.1309  0.0498 -0.2200
 3187TIP3    H131052   0.670   5.056  11.910  2.6421  0.3084  1.4790
 3187TIP3    H231053   0.721   4.942  11.825  2.4597  0.6259  0.9421
 3188TIP3   OH231054   1.345   1.690  15.422 -0.2164 -0.6903  0.6685
 3188TIP3    H131055   1.361   1.661  15.512  0.1144 -0.0725  0.8118
 3188TIP3    H231056   1.433   1.704  15.386 -0.3368 -1.2628  0.1362
 3189TIP3   OH231057   5.300   2.469  16.387 -0.7383  0.0752  0.2681
 3189TIP3    H131058   5.392   2.496  16.386 -0.5396 -0.6041  0.2348
 3189TIP3    H231059   5.303   2.374  16.393 -1.4667  0.1592  2.1153
 3190TIP3   OH231060   1.519   3.943   2.332  0.1786  0.3911  0.4348
 3190TIP3    H131061   1.529   3.963   2.425  2.7802 -0.5843  0.4142
 3190TIP3    H231062   1.575   4.006   2.287 -1.3175  1.0740 -0.5190
 3191TIP3   OH231063   5.075   1.740   0.329 -0.1589  0.2720 -0.3549
 3191TIP3    H131064   5.069   1.815   0.388 -1.4523  1.5442 -2.0562
 3191TIP3    H231065   5.105   1.777   0.246  0.6775 -1.3337 -0.7887
 3192TIP3   OH231066   5.406   4.558  12.250 -0.2576 -0.5461  0.3111
 3192TIP3    H131067   5.480   4.598  12.204 -1.2915 -0.7042 -1.5299
 3192TIP3    H231068   5.402   4.606  12.334  0.7854  0.7133 -0.3328
 3193TIP3   OH231069   4.605   5.260   0.694 -0.1264 -0.2921 -0.3325
 3193TIP3    H131070   4.630   5.209   0.771  0.9616  0.1562 -0.3782
 3193TIP3    H231071   4.509   5.267   0.700 -0.0840 -0.5589  0.7911
 3194TIP3   OH231072   3.711   4.810   3.603  0.0030 -0.5027  0.6141
 3194TIP3    H131073   3.767   4.758   3.546  1.0283 -0.6145  1.6983
 3194TIP3    H231074   3.683   4.884   3.549  0.7355 -0.7557 -0.1129
 3195TIP3   OH231075   0.767   1.029   4.736  0.6061 -0.3425  0.1937
 3195TIP3    H131076   0.777   0.980   4.654  0.2713 -0.4445  0.2132
 3195TIP3    H231077   0.798   1.117   4.714  1.5304 -0.6508  0.2550
 3196TIP3   OH231078   3.837   2.513  14.034  0.3929 -0.1265 -0.4850
 3196TIP3    H131079   3.760   2.457  14.045  2.5401 -3.0797  0.1027
 3196TIP3    H231080   3.863   2.499  13.943  2.3713 -2.0832  0.3397
 3197TIP3   OH231081   6.097   1.513  16.079  0.2113  0.1424 -0.0576
 3197TIP3    H131082   6.033   1.471  16.136 -0.8634  0.6989 -0.8388
 3197TIP3    H231083   6.061   1.504  15.991 -0.1832  2.8868 -0.2404
 3198TIP3   OH231084   5.789   2.849   4.104 -0.0368  0.1385 -0.3263
 3198TIP3    H131085   5.801   2.918   4.039  0.2242  0.9072  0.5342
 3198TIP3    H231086   5.717   2.879   4.159  1.7938  1.0196  1.6881
 3199TIP3   OH231087   3.909   6.033   2.173 -0.0715  0.1631 -0.6776
 3199TIP3    H131088   3.993   5.989   2.186 -0.6868 -0.4734  1.4773
 3199TIP3    H231089   3.931   6.125   2.161  0.9350  0.0128 -0.0572
 3200TIP3   OH231090   4.364   4.556  12.700 -0.1357 -0.0808  0.5117
 3200TIP3    H131091   4.387   4.629  12.758 -0.8355  0.6451 -0.1266
 3200TIP3    H231092   4.440   4.546  12.642  0.0302  0.0202  0.7120
 3201TIP3   OH231093   0.912   3.228  12.261 -0.2438  0.2745  0.0302
 3201TIP3    H131094   0.830   3.232  12.212 -1.5337  0.5429  2.1722
 3201TIP3    H231095   0.904   3.149  12.314  1.4551 -0.4170 -0.7212
 3202TIP3   OH231096   2.468   5.655   6.538  0.0684 -0.1660 -0.1031
 3202TIP3    H131097   2.502   5.659   6.628  0.1467  0.1700 -0.1511
 3202TIP3    H231098   2.528   5.707   6.486 -0.1615 -0.0951 -0.2983
 3203TIP3   OH231099   3.062   3.775   6.647  0.8155  0.0348 -0.2467
 3203TIP3    H131100   3.059   3.801   6.555 -0.4713  0.3255 -0.1317
 3203TIP3    H231101   2.999   3.703   6.653  2.1391 -1.1150  0.0603
 3204TIP3   OH231102   5.265   6.374  11.236  0.1647 -0.0147 -0.2680
 3204TIP3    H131103   5.254   6.344  11.326  0.0801 -0.5964 -0.4679
 3204TIP3    H231104   5.238   6.299  11.182  0.2546  0.3135 -0.7746
 3205TIP3   OH231105   5.991   2.805  16.969  0.0377  0.8896 -0.5172
 3205TIP3    H131106   5.989   2.723  16.919  1.0860  0.7856 -0.4000
 3205TIP3    H231107   6.084   2.818  16.991 -0.5300  0.2447  2.5447
 3206TIP3   OH231108   0.612   2.264  14.294  0.1217 -0.0908 -0.2639
 3206TIP3    H131109   0.687   2.207  14.283 -1.2843 -1.9163 -0.6692
 3206TIP3    H231110   0.602   2.308  14.209  2.1540  2.0182  0.5291
 3207TIP3   OH231111   0.086   6.328   1.695  0.2069  0.2433  0.4450
 3207TIP3    H131112   0.163   6.286   1.657 -0.3139 -1.5522  1.3234
 3207TIP3    H231113   0.012   6.296   1.643 -0.0905  0.9235  0.4357
 3208TIP3   OH231114   5.826   1.246  17.151 -0.3421 -0.0234  0.4122
 3208TIP3    H131115   5.809   1.316  17.088  0.8305  0.8288  1.0075
 3208TIP3    H231116   5.915   1.264  17.183 -1.1413 -0.0669  2.7630
 3209TIP3   OH231117   5.548   0.373   5.812 -0.0146  0.5861  0.7508
 3209TIP3    H131118   5.567   0.379   5.905 -2.0497 -0.5829  1.2775
 3209TIP3    H231119   5.502   0.290   5.802  2.9086 -0.7930 -1.8198
 3210TIP3   OH231120   6.748   4.257   0.478 -0.4112 -0.3995 -0.0272
 3210TIP3    H131121   6.760   4.198   0.553 -0.7315  2.3780  2.3204
 3210TIP3    H231122   6.735   4.343   0.518  2.2779  1.6733 -3.3608
 3211TIP3   OH231123   0.050   1.390  11.306 -0.0457  0.4677  0.4624
 3211TIP3    H131124  -0.009   1.464  11.316  0.1416  0.5534  0.9865
 3211TIP3    H231125   0.113   1.400  11.377 -0.0797 -0.2431  0.6006
 3212TIP3   OH231126   0.550   4.656   1.041  0.7920  0.0841 -0.0845
 3212TIP3    H131127   0.584   4.658   0.951 -0.5885 -0.3931 -0.6360
 3212TIP3    H231128   0.603   4.590   1.086  0.4145 -0.8556 -0.9999
 3213TIP3   OH231129   5.124   5.515   3.964  0.1405 -0.4327  0.6050
 3213TIP3    H131130   5.216   5.524   3.990  0.5570  1.1848 -1.3211
 3213TIP3    H231131   5.089   5.604   3.968 -0.7093 -0.6812 -0.9361
 3214TIP3   OH231132   6.270   6.308  15.704  0.4436  0.2326 -0.1820
 3214TIP3    H131133   6.195   6.353  15.666  1.9210  3.7640  0.8973
 3214TIP3    H231134   6.344   6.334  15.649  1.5192  0.0105  1.1346
 3215TIP3   OH231135   1.136   0.415   3.045 -0.0680 -0.0019  0.3987
 3215TIP3    H131136   1.064   0.354   3.055  0.2619 -0.4390  0.1176
 3215TIP3    H231137   1.197   0.371   2.986 -0.7004  1.3782 -1.3070
 3216TIP3   OH231138   4.139   4.136   0.986  0.1264  0.0847  0.4106
 3216TIP3    H131139   4.124   4.041   0.985 -1.6036  0.3451  0.5257
 3216TIP3    H231140   4.167   4.157   0.897  3.6980 -0.9943  1.1889
 3217TIP3   OH231141   2.028   3.690  13.351 -0.0926 -0.7239  0.1455
 3217TIP3    H131142   1.943   3.709  13.312 -0.8609 -2.2262  1.0306
 3217TIP3    H231143   2.014   3.702  13.445  0.3330 -2.1490  0.3986
 3218TIP3   OH231144   1.335   3.986  12.354 -0.0792  0.6857  0.3589
 3218TIP3    H131145   1.284   3.931  12.413 -0.3834  0.5319 -0.0453
 3218TIP3    H231146   1.418   3.940  12.343 -0.4884  0.1038 -0.3021
 3219TIP3   OH231147   4.488   3.052   4.210  0.4585  0.1801  0.0308
 3219TIP3    H131148   4.415   3.108   4.238 -0.0720 -0.2225 -0.5374
 3219TIP3    H231149   4.453   2.963   4.216  0.4900  0.0555 -1.4636
 3220TIP3   OH231150   4.452   6.542   1.121 -0.0962 -0.0641 -0.3761
 3220TIP3    H131151   4.457   6.528   1.216  0.3763 -0.8678 -0.5174
 3220TIP3    H231152   4.405   6.466   1.087 -1.0034  0.6364 -0.6949
 3221TIP3   OH231153   0.256   6.240   1.466  0.2923 -0.0453 -0.7402
 3221TIP3    H131154   0.225   6.262   1.378 -0.7212 -1.1312 -0.6574
 3221TIP3    H231155   0.351   6.236   1.457  0.1813 -0.4041 -1.8420
 3222TIP3   OH231156   0.350   1.049   3.143 -0.1067 -0.1713 -0.3853
 3222TIP3    H131157   0.336   0.954   3.151  1.3240 -0.2946  0.6512
 3222TIP3    H231158   0.312   1.071   3.057 -3.5508 -1.0712  0.8005
 3223TIP3   OH231159   0.638   1.659   5.343 -0.2868  0.5338  0.0584
 3223TIP3    H131160   0.639   1.624   5.254 -1.0407 -0.9472  0.6177
 3223TIP3    H231161   0.595   1.745   5.335 -1.8860 -0.3193 -0.7517
 3224TIP3   OH231162   5.948   2.319  14.681 -0.1174 -0.0724  0.1582
 3224TIP3    H131163   5.957   2.342  14.773 -1.0574 -0.5327  0.3732
 3224TIP3    H231164   5.897   2.391  14.643  1.0221  0.5577 -0.2000
 3225TIP3   OH231165   5.405   6.261  15.802  0.0185 -0.5765 -0.3561
 3225TIP3    H131166   5.385   6.340  15.852  2.9847 -0.0469  0.0727
 3225TIP3    H231167   5.414   6.292  15.712  0.6275 -0.5057 -0.2728
 3226TIP3   OH231168   2.015   3.281  17.247  0.2140 -0.1937 -0.0227
 3226TIP3    H131169   2.058   3.341  17.185  1.3048  0.3460  1.2385
 3226TIP3    H231170   2.028   3.194  17.209 -2.0891  0.3743 -2.3062
 3227TIP3   OH231171   5.386   1.106  11.566  0.0683 -0.2153 -0.2865
 3227TIP3    H131172   5.431   1.056  11.498  1.7261 -0.0739  0.6752
 3227TIP3    H231173   5.454   1.124  11.631 -0.9857  1.4965  0.3820
 3228TIP3   OH231174   6.556   0.214  11.805 -0.5773 -0.3730  0.1376
 3228TIP3    H131175   6.605   0.242  11.883  0.1911 -0.7468 -0.2013
 3228TIP3    H231176   6.606   0.249  11.732 -0.7068 -0.9407 -0.2214
 3229TIP3   OH231177   5.211   3.792  10.495 -0.4368 -0.0725  0.8423
 3229TIP3    H131178   5.147   3.846  10.449 -0.2149  0.2739  0.9391
 3229TIP3    H231179   5.292   3.803  10.445 -0.2911  0.0018  1.0948
 3230TIP3   OH231180   5.186   5.238   3.394 -0.1151 -0.2591  0.2357
 3230TIP3    H131181   5.137   5.280   3.323 -1.0670 -1.8247 -0.0666
 3230TIP3    H231182   5.218   5.310   3.447 -3.3034  0.8488  0.8003
 3231TIP3   OH231183   3.467   4.755  12.610 -0.7730 -0.4630 -0.5344
 3231TIP3    H131184   3.392   4.709  12.648  0.9551 -0.5582  2.9539
 3231TIP3    H231185   3.509   4.689  12.555 -1.0637 -1.6116  0.5701
 3232TIP3   OH231186   5.275   4.248  14.107  0.3480  0.0090  0.5675
 3232TIP3    H131187   5.352   4.200  14.136  2.1640  1.6618 -1.2861
 3232TIP3    H231188   5.240   4.288  14.186  2.4788  0.6773  1.2163
 3233TIP3   OH231189   5.839   2.487  14.510 -0.0532  0.8170 -0.1080
 3233TIP3    H131190   5.793   2.469  14.428  1.9949 -1.9491 -0.7036
 3233TIP3    H231191   5.916   2.538  14.484 -0.0406  0.9692  0.2289
 3234TIP3   OH231192   1.183   1.628  12.352  0.2876 -0.6392  0.6573
 3234TIP3    H131193   1.125   1.701  12.374 -0.2935 -0.9524  0.1665
 3234TIP3    H231194   1.139   1.551  12.387 -0.1270 -1.0117 -0.6667
 3235TIP3   OH231195   2.408   2.363  15.177  0.1024 -0.3775 -0.2631
 3235TIP3    H131196   2.322   2.405  15.178  0.2137 -0.1389 -0.5356
 3235TIP3    H231197   2.447   2.391  15.094  0.3294 -0.7136 -0.2693
 3236TIP3   OH231198   3.541   2.738   3.167 -0.5831  0.7508  0.1439
 3236TIP3    H131199   3.460   2.767   3.209 -0.1070  0.7462  1.0877
 3236TIP3    H231200   3.526   2.752   3.074 -1.2691  1.7513  0.3892
 3237TIP3   OH231201   5.681   3.628   1.396  0.2132 -0.3113 -0.4068
 3237TIP3    H131202   5.695   3.719   1.422 -1.3170 -0.3187  0.5490
 3237TIP3    H231203   5.622   3.634   1.321 -2.7010 -0.5886  1.7681
 3238TIP3   OH231204   5.545   6.336  14.774 -0.2175  0.1354  0.0220
 3238TIP3    H131205   5.531   6.429  14.792 -1.5326 -0.1035  0.2396
 3238TIP3    H231206   5.483   6.315  14.704 -0.6788 -0.8473  0.7255
 3239TIP3   OH231207   0.864   3.261  13.458  0.3119 -0.3223 -0.0024
 3239TIP3    H131208   0.778   3.220  13.460  0.7347 -1.1729  0.9835
 3239TIP3    H231209   0.892   3.253  13.366  0.7176 -2.9506  0.2988
 3240TIP3   OH231210   6.441   5.761  13.572  0.1390 -0.5239 -0.2993
 3240TIP3    H131211   6.352   5.763  13.607  0.3091  1.4504  0.0705
 3240TIP3    H231212   6.456   5.850  13.541  2.4194 -0.5089  0.7468
 3241TIP3   OH231213   5.205   2.320   5.458  0.7163 -0.1088 -0.0097
 3241TIP3    H131214   5.161   2.281   5.383  1.1756  0.0093 -0.3432
 3241TIP3    H231215   5.257   2.391   5.421 -2.1557  2.5801  0.8644
 3242TIP3   OH231216   5.029   6.374   1.457 -0.0388 -0.1146 -0.3509
 3242TIP3    H131217   5.058   6.410   1.373 -0.1192 -0.5232 -0.5520
 3242TIP3    H231218   5.068   6.432   1.523  0.6419 -0.2453 -0.6423
 3243TIP3   OH231219   3.045   5.051   6.218 -0.2007  0.3001  0.2128
 3243TIP3    H131220   2.999   5.118   6.167 -0.9475  0.6891  1.3864
 3243TIP3    H231221   2.980   4.981   6.230 -0.2438  0.5178  1.2325
 3244TIP3   OH231222   0.014   0.801   3.241 -0.5018 -0.1591 -0.1014
 3244TIP3    H131223   0.047   0.871   3.297  0.4637  0.0887 -0.9792
 3244TIP3    H231224  -0.057   0.841   3.192 -0.7088 -0.1117  0.2340
 3245TIP3   OH231225   2.091   2.112   3.206 -0.1339 -0.0469 -0.0556
 3245TIP3    H131226   2.128   2.029   3.237  1.4075 -0.9195 -3.9734
 3245TIP3    H231227   1.996   2.098   3.205 -0.0616 -0.7981  1.8329
 3246TIP3   OH231228   2.301   2.093   0.868  0.0592  0.4850  0.4553
 3246TIP3    H131229   2.237   2.136   0.924  1.6535  2.4875  0.8200
 3246TIP3    H231230   2.378   2.149   0.873  0.3990  0.5014 -3.4125
 3247TIP3   OH231231   2.683   5.861  11.858 -0.1815  0.4529 -0.5296
 3247TIP3    H131232   2.591   5.837  11.871 -0.1920  0.2090 -1.0293
 3247TIP3    H231233   2.682   5.917  11.780 -0.0259  1.2349  0.0251
 3248TIP3   OH231234   2.736   2.415   4.956 -0.2463  0.1848  0.6699
 3248TIP3    H131235   2.809   2.370   4.999 -0.1812  1.9818  2.5445
 3248TIP3    H231236   2.672   2.346   4.938  1.9904 -1.4606 -1.2326
 3249TIP3   OH231237   4.404   2.761  15.203  0.5968 -0.0377  0.2126
 3249TIP3    H131238   4.364   2.828  15.147  2.5936  1.2321  0.2540
 3249TIP3    H231239   4.330   2.715  15.243 -0.8126  2.6869  0.8322
 3250TIP3   OH231240   1.179   0.531   2.663  0.1460  0.0248  0.1403
 3250TIP3    H131241   1.219   0.519   2.749  2.3686 -0.2381 -0.9064
 3250TIP3    H231242   1.224   0.469   2.606 -1.0631  0.4276 -1.3045
 3251TIP3   OH231243   5.707   5.475  15.397  0.3242  0.0391 -0.7103
 3251TIP3    H131244   5.615   5.497  15.383  0.7617  1.8530 -0.8885
 3251TIP3    H231245   5.755   5.540  15.346  1.7844  1.4139  2.2817
 3252TIP3   OH231246   5.791   6.249  10.793 -0.4658  0.1077 -0.2520
 3252TIP3    H131247   5.779   6.324  10.735 -0.8849 -0.1275 -0.4682
 3252TIP3    H231248   5.769   6.173  10.740 -0.0556 -0.1739 -0.0297
 3253TIP3   OH231249   0.705   3.195   3.005 -0.0803  0.3896  0.7107
 3253TIP3    H131250   0.793   3.160   3.022 -0.2226 -0.4087 -0.1828
 3253TIP3    H231251   0.713   3.241   2.922 -0.4462  0.5397  0.7569
 3254TIP3   OH231252   2.633   4.269   0.234 -0.3532  0.3047 -0.3285
 3254TIP3    H131253   2.634   4.219   0.152  0.1465 -0.7371  0.3040
 3254TIP3    H231254   2.684   4.348   0.215  0.7301 -0.4702 -0.6878
 3255TIP3   OH231255   1.655   1.370   1.175  0.2434 -0.1431  0.8080
 3255TIP3    H131256   1.638   1.462   1.196  0.7851  0.3957 -1.0891
 3255TIP3    H231257   1.699   1.372   1.091  0.9303 -2.1134  1.0978
 3256TIP3   OH231258   3.371   3.994   4.707 -0.6506 -0.0258  0.3903
 3256TIP3    H131259   3.392   4.073   4.657 -1.2764  0.3843  0.7508
 3256TIP3    H231260   3.412   4.008   4.792  1.1294 -1.1045 -0.2798
 3257TIP3   OH231261   5.537   2.044   1.012  0.3029  0.3223  0.4024
 3257TIP3    H131262   5.598   2.007   0.949 -1.8228 -1.3592 -0.7521
 3257TIP3    H231263   5.591   2.068   1.087  2.4137 -0.7688 -0.7320
 3258TIP3   OH231264   4.534   4.842  13.608 -0.4033  0.2016  0.2110
 3258TIP3    H131265   4.577   4.872  13.688  0.1409 -0.1027  0.0341
 3258TIP3    H231266   4.537   4.918  13.550  1.4035 -0.3342 -0.4085
 3259TIP3   OH231267   2.690   0.839  11.340  0.0868 -0.0596 -0.3065
 3259TIP3    H131268   2.665   0.852  11.432  0.0870  1.7161 -0.5511
 3259TIP3    H231269   2.710   0.927  11.308 -1.0971 -0.5117 -2.3508
 3260TIP3   OH231270   2.480   5.832   5.993 -0.4216 -0.1884 -0.1409
 3260TIP3    H131271   2.547   5.777   6.034  0.6115  0.6822 -0.6404
 3260TIP3    H231272   2.477   5.803   5.902 -1.1903 -0.6639  0.0311
 3261TIP3   OH231273   1.204   4.786   4.312 -0.1101  0.3758  0.2360
 3261TIP3    H131274   1.213   4.715   4.377  0.3055 -0.9453 -1.2334
 3261TIP3    H231275   1.110   4.793   4.297 -0.1657  0.2774  0.5295
 3262TIP3   OH231276   5.625   3.669   2.018  0.3569  0.0943 -0.1519
 3262TIP3    H131277   5.600   3.697   2.106  0.7673 -0.3660  0.1081
 3262TIP3    H231278   5.685   3.738   1.987 -0.4424  0.6862 -0.3949
 3263TIP3   OH231279   1.732   3.229   4.327  0.0821  0.1785  0.1692
 3263TIP3    H131280   1.739   3.296   4.395 -0.1830 -0.5868  0.9583
 3263TIP3    H231281   1.660   3.172   4.356  0.4716 -0.5951 -0.3603
 3264TIP3   OH231282   0.057   6.535   3.379  0.8896  0.3858 -0.3684
 3264TIP3    H131283  -0.039   6.525   3.382  1.0688 -1.0524  2.0348
 3264TIP3    H231284   0.073   6.584   3.299 -1.8878  0.8161 -0.7282
 3265TIP3   OH231285   2.112   4.621   2.514 -0.0066 -0.5869  0.1067
 3265TIP3    H131286   2.139   4.683   2.447 -1.3599  0.6999  0.7091
 3265TIP3    H231287   2.116   4.671   2.596 -3.8451 -0.3726  0.2570
 3266TIP3   OH231288   6.505   1.883  10.891  0.0044 -0.2020  0.1185
 3266TIP3    H131289   6.584   1.855  10.939  0.3820  2.6273  1.2367
 3266TIP3    H231290   6.433   1.841  10.938  0.7462 -1.8906 -0.2163
 3267TIP3   OH231291   6.735   4.781  17.072  0.3085 -0.0284 -0.3009
 3267TIP3    H131292   6.666   4.730  17.031 -0.4429  1.4570 -0.9207
 3267TIP3    H231293   6.790   4.811  16.999  0.2863  0.6978 -0.0259
 3268TIP3   OH231294   4.310   6.118   3.801 -0.3773  0.4972  0.2472
 3268TIP3    H131295   4.245   6.049   3.818 -0.1151  0.0750 -0.4146
 3268TIP3    H231296   4.289   6.149   3.712 -0.0449  0.7722  0.2648
 3269TIP3   OH231297   5.679   1.843   4.417 -0.1326 -0.0662 -0.6672
 3269TIP3    H131298   5.590   1.815   4.394 -0.7311  1.1471  0.0877
 3269TIP3    H231299   5.724   1.763   4.444 -0.8063 -0.7852 -1.6669
 3270TIP3   OH231300   6.087   5.066  15.462  0.4168 -0.3664  0.0401
 3270TIP3    H131301   6.047   5.147  15.496  1.5661  0.8963 -1.5266
 3270TIP3    H231302   6.089   5.079  15.368  0.6715 -2.2312 -0.2168
 3271TIP3   OH231303   6.073   2.084  11.693 -0.0058  0.1139 -0.3101
 3271TIP3    H131304   6.137   2.086  11.622  0.1487 -1.6513 -0.2208
 3271TIP3    H231305   5.996   2.129  11.656  1.4504  2.8511 -0.1901
 3272TIP3   OH231306   0.791   2.272   0.251 -0.4055 -0.2851  0.4541
 3272TIP3    H131307   0.733   2.260   0.176 -0.0929 -1.0122  0.3228
 3272TIP3    H231308   0.831   2.186   0.264  1.4413  0.4717 -0.1298
 3273TIP3   OH231309   4.826   3.308  13.231 -0.2530 -0.1651  0.4568
 3273TIP3    H131310   4.842   3.383  13.289 -1.4420  0.4465  0.0046
 3273TIP3    H231311   4.814   3.234  13.290 -0.0783  0.1895  0.9411
 3274TIP3   OH231312   1.519   3.338  13.410  0.3616  0.3489 -0.1246
 3274TIP3    H131313   1.517   3.397  13.485  1.5339  0.7437 -0.3947
 3274TIP3    H231314   1.566   3.387  13.342  0.0719 -0.3374 -0.8301
 3275TIP3   OH231315   6.412   5.679   3.034  0.5385 -0.2447  0.4628
 3275TIP3    H131316   6.408   5.662   2.940  2.6092  0.1856  0.2908
 3275TIP3    H231317   6.504   5.670   3.057  0.4200  1.9990  2.0091
 3276TIP3   OH231318   0.782   1.883  10.261 -0.0206 -0.1598 -0.6731
 3276TIP3    H131319   0.687   1.888  10.276 -0.0848 -0.3110 -1.0480
 3276TIP3    H231320   0.800   1.790  10.249  0.0798 -0.0593 -1.2719
 3277TIP3   OH231321   3.653   5.785  10.982  0.0133  1.0800  0.1917
 3277TIP3    H131322   3.646   5.752  11.072  0.0290  0.6600  0.0422
 3277TIP3    H231323   3.595   5.729  10.932  1.6119 -0.0569 -0.4243
 3278TIP3   OH231324   2.397   3.693  11.787  0.0555  0.0399  0.3014
 3278TIP3    H131325   2.389   3.658  11.699 -1.0314  0.6779  0.1456
 3278TIP3    H231326   2.335   3.642  11.839 -0.1920  0.4840  0.4440
 3279TIP3   OH231327   0.158   2.979   1.906  0.0714 -0.0318  1.0340
 3279TIP3    H131328   0.248   3.000   1.931  0.1589  1.0922 -0.1570
 3279TIP3    H231329   0.120   3.064   1.880 -0.2965 -0.9988 -1.7109
 3280TIP3   OH231330   0.548   2.104   0.387 -0.1785 -0.3746 -0.2431
 3280TIP3    H131331   0.569   2.031   0.329 -0.2312 -0.0696 -0.6494
 3280TIP3    H231332   0.618   2.103   0.453  0.0104 -0.5846 -0.4440
 3281TIP3   OH231333   5.402   5.803  16.021  0.4397 -0.0698 -0.1379
 3281TIP3    H131334   5.352   5.793  16.102  2.1317 -0.8643  0.8381
 3281TIP3    H231335   5.461   5.876  16.037  3.0532 -2.2656  0.5800
 3282TIP3   OH231336   5.620   3.327  12.901 -0.4768  0.3216  0.7339
 3282TIP3    H131337   5.659   3.415  12.901  2.0518 -0.7531  1.2231
 3282TIP3    H231338   5.677   3.276  12.958 -2.0379 -1.6278  0.6029
 3283TIP3   OH231339   2.355   3.276   6.323  0.0467 -0.2335 -0.0279
 3283TIP3    H131340   2.358   3.181   6.313 -0.4956 -0.2261 -0.2475
 3283TIP3    H231341   2.358   3.291   6.418  0.8115 -0.4419 -0.0118
 3284TIP3   OH231342   0.775   2.064   4.794  0.0448 -0.7816  0.2270
 3284TIP3    H131343   0.736   2.024   4.717  0.6678 -0.0349 -0.4973
 3284TIP3    H231344   0.867   2.037   4.791  0.4939  0.7676 -0.3306
 3285TIP3   OH231345   2.870   2.338  13.470 -0.0698 -0.3511  0.0821
 3285TIP3    H131346   2.950   2.390  13.462 -0.5079  0.8594  3.0531
 3285TIP3    H231347   2.805   2.387  13.418  0.3781  0.2398  0.0690
 3286TIP3   OH231348   5.397   0.090   6.731 -0.5776  0.0368 -0.0638
 3286TIP3    H131349   5.363   0.178   6.745 -0.3807 -0.2828  2.7041
 3286TIP3    H231350   5.321   0.033   6.741 -0.1386 -0.3206  1.3561
 3287TIP3   OH231351   0.291   5.708  16.276  0.0948 -0.5028  0.1801
 3287TIP3    H131352   0.293   5.707  16.372  1.4427 -0.1421  0.1643
 3287TIP3    H231353   0.241   5.630  16.253 -0.5072 -0.4294  1.1817
 3288TIP3   OH231354   4.900   2.735  17.075 -0.0854  0.0594 -0.6130
 3288TIP3    H131355   4.812   2.755  17.043  0.3383  0.0884 -1.7989
 3288TIP3    H231356   4.887   2.662  17.135 -0.8314 -0.4437 -1.3623
 3289TIP3   OH231357   4.574   6.257  13.865 -0.0371  0.9662 -0.1758
 3289TIP3    H131358   4.517   6.205  13.809 -0.0087  1.0179 -0.2525
 3289TIP3    H231359   4.645   6.198  13.889  0.5646  1.2893 -1.1471
 3290TIP3   OH231360   5.776   5.005   4.759 -0.2265 -0.3674  0.5767
 3290TIP3    H131361   5.711   5.069   4.730 -2.0472 -2.2566  0.2874
 3290TIP3    H231362   5.733   4.959   4.832  1.6283 -0.2494  1.7865
 3291TIP3   OH231363   0.796   6.048   2.576  0.0902  0.4212  0.1403
 3291TIP3    H131364   0.763   6.024   2.489  1.7012 -1.0490 -0.0739
 3291TIP3    H231365   0.730   6.015   2.636 -0.8125  1.0511 -0.4732
 3292TIP3   OH231366   4.937   2.125  11.303  0.3835  0.2435 -0.3053
 3292TIP3    H131367   4.878   2.089  11.369  0.7242  0.6475  0.2226
 3292TIP3    H231368   4.884   2.132  11.224 -0.0336 -0.2121 -0.0679
 3293TIP3   OH231369   4.192   2.950  16.496  0.4385 -0.0184  0.4065
 3293TIP3    H131370   4.107   2.914  16.520 -0.6685  1.9026 -0.4520
 3293TIP3    H231371   4.221   2.896  16.422 -0.1394 -0.5369  0.5547
 3294TIP3   OH231372   5.908   5.678   3.442  0.2545  0.9671  0.3714
 3294TIP3    H131373   5.893   5.762   3.487 -1.4658 -0.0110  1.6746
 3294TIP3    H231374   5.829   5.664   3.391  0.0263 -0.4358  1.0964
 3295TIP3   OH231375   4.795   4.152  10.994  0.1203 -0.4499  0.0889
 3295TIP3    H131376   4.882   4.188  11.011  0.8514 -2.5647  1.0407
 3295TIP3    H231377   4.758   4.208  10.925  2.2210  0.4842 -0.3055
 3296TIP3   OH231378   0.575   2.550  15.808  0.9938  0.2039 -0.0370
 3296TIP3    H131379   0.484   2.527  15.826  0.8955  0.8912  0.3814
 3296TIP3    H231380   0.607   2.588  15.890  1.8645 -0.6503  0.0355
 3297TIP3   OH231381   0.887   6.312  15.976  0.3445 -0.0765  0.3221
 3297TIP3    H131382   0.928   6.385  15.931  0.7790 -0.9465 -0.7040
 3297TIP3    H231383   0.859   6.349  16.060 -2.3037  2.0870 -1.4322
 3298TIP3   OH231384   0.267   5.983  11.530  0.3413  0.2496 -0.3661
 3298TIP3    H131385   0.280   5.982  11.625  1.7189 -1.0443 -0.5486
 3298TIP3    H231386   0.193   6.042  11.517  1.4023  2.0047  1.3453
 3299TIP3   OH231387   4.630   6.671  17.208  0.0610 -0.2042 -0.5182
 3299TIP3    H131388   4.602   6.635  17.124 -1.0823  0.6533 -0.5107
 3299TIP3    H231389   4.563   6.735  17.230 -0.0894 -1.0193  1.4571
 3300TIP3   OH231390   0.742   2.137   5.041  0.2430  0.4728 -0.1399
 3300TIP3    H131391   0.773   2.107   4.956  0.3740  0.8683 -0.2333
 3300TIP3    H231392   0.691   2.216   5.022  2.8320  2.3249  0.4429
 3301TIP3   OH231393   5.914   0.568  14.008 -0.0180  0.2307  0.4290
 3301TIP3    H131394   5.986   0.505  14.014  0.3406  0.6255  0.2843
 3301TIP3    H231395   5.957   0.653  14.006 -0.5629  0.5435  1.8175
 3302TIP3   OH231396   1.865   0.312   3.840 -0.2742  0.2443  0.1956
 3302TIP3    H131397   1.929   0.285   3.906 -1.3933  0.2814  1.3265
 3302TIP3    H231398   1.877   0.251   3.768 -0.1291 -0.8221  1.1071
 3303TIP3   OH231399   6.697   1.711   2.227 -0.3524 -0.3114 -0.0687
 3303TIP3    H131400   6.693   1.800   2.192 -0.6223 -0.5744 -0.7134
 3303TIP3    H231401   6.641   1.660   2.169  0.3824 -1.0544 -0.1267
 3304TIP3   OH231402   5.554   5.145   5.668  0.4257 -0.1761  0.2356
 3304TIP3    H131403   5.629   5.095   5.702  1.7802  1.5936 -0.0467
 3304TIP3    H231404   5.543   5.115   5.578  1.0846 -0.1302  0.1388
 3305TIP3   OH231405   4.524   5.894  15.520  0.0754 -0.6012  0.5603
 3305TIP3    H131406   4.437   5.919  15.551  1.0544  0.6408  2.3860
 3305TIP3    H231407   4.518   5.902  15.425 -1.8796 -0.7947  0.6390
 3306TIP3   OH231408   5.482   6.082   4.817  0.6174 -0.6069 -0.6732
 3306TIP3    H131409   5.478   6.065   4.911 -1.8405  1.3887 -0.3586
 3306TIP3    H231410   5.563   6.132   4.805  1.0861 -1.1171  0.3395
 3307TIP3   OH231411   0.369   3.144  15.694  0.1406 -0.7028 -0.2755
 3307TIP3    H131412   0.306   3.097  15.640 -2.5868  1.5520  0.8444
 3307TIP3    H231413   0.412   3.205  15.633  0.2521 -1.2634 -0.7608
 3308TIP3   OH231414   1.305   6.104   3.981  0.3739  0.3065  0.5329
 3308TIP3    H131415   1.360   6.182   3.981  1.7107 -0.6146 -0.8597
 3308TIP3    H231416   1.359   6.036   3.941 -1.0593 -1.1366  0.9835
 3309TIP3   OH231417   0.956   4.675  13.093  0.6200 -0.3347  0.5532
 3309TIP3    H131418   0.965   4.691  12.999  1.1502  0.8221  0.7940
 3309TIP3    H231419   0.926   4.584  13.099  3.1185 -1.2793 -0.6301
 3310TIP3   OH231420   3.813   1.173   1.317 -0.3408 -0.1276 -0.5467
 3310TIP3    H131421   3.731   1.202   1.275 -2.0147 -2.4259  1.0158
 3310TIP3    H231422   3.802   1.078   1.328  1.9878 -0.2632  0.9369
 3311TIP3   OH231423   6.727   3.929   4.080 -0.6788  0.5116  0.2954
 3311TIP3    H131424   6.817   3.924   4.048 -1.0718 -0.6363 -0.7048
 3311TIP3    H231425   6.678   3.869   4.023 -1.8694  0.2911  1.5053
 3312TIP3   OH231426   6.016   5.858  16.044 -0.0362  0.0448 -0.6403
 3312TIP3    H131427   5.984   5.883  15.958 -1.4406  1.6234  0.2959
 3312TIP3    H231428   6.034   5.942  16.088 -0.1538 -0.7095  0.8782
 3313TIP3   OH231429   0.824   6.333  10.965  0.3299  0.2783 -0.1624
 3313TIP3    H131430   0.898   6.381  11.002 -0.5248  1.6061 -0.1574
 3313TIP3    H231431   0.787   6.391  10.898  0.1469 -0.9540 -1.1517
 3314TIP3   OH231432   4.393   6.197  10.977 -0.4321  0.4097  0.7100
 3314TIP3    H131433   4.298   6.195  10.984 -0.4455  1.8808  1.2270
 3314TIP3    H231434   4.410   6.249  10.898 -0.0759 -2.3076 -1.0569
 3315TIP3   OH231435   1.813   3.594  16.706 -0.1495  0.2686 -0.0251
 3315TIP3    H131436   1.779   3.509  16.679 -1.1100  0.9156 -0.8991
 3315TIP3    H231437   1.892   3.574  16.757  0.2506 -1.0976 -1.1586
 3316TIP3   OH231438   0.312   4.484   0.973 -0.1498  0.4990 -0.5825
 3316TIP3    H131439   0.337   4.574   0.992 -0.1000  0.0150  1.7863
 3316TIP3    H231440   0.221   4.478   1.004 -0.3053 -0.1551 -1.1533
 3317TIP3   OH231441   2.176   1.136   4.515  0.0246 -0.0606 -0.8305
 3317TIP3    H131442   2.205   1.203   4.453 -0.1780  1.6702  0.8907
 3317TIP3    H231443   2.150   1.186   4.593  2.3516 -2.3181  1.4569
 3318TIP3   OH231444   6.333   3.145   2.886 -0.4371  0.1118  0.1010
 3318TIP3    H131445   6.252   3.192   2.864 -1.4046 -0.7452  1.6613
 3318TIP3    H231446   6.313   3.102   2.969  0.7685 -2.1762 -0.7385
 3319TIP3   OH231447   2.899   0.421  14.470 -0.2980 -0.0548  0.0730
 3319TIP3    H131448   2.897   0.347  14.409 -1.7136 -0.2598  0.3418
 3319TIP3    H231449   2.919   0.497  14.415 -0.6495 -0.3729 -0.5038
 3320TIP3   OH231450   3.463   1.516   1.859 -0.2960 -0.0754 -0.5165
 3320TIP3    H131451   3.430   1.535   1.946 -1.1873 -1.2517 -0.5823
 3320TIP3    H231452   3.558   1.521   1.867 -0.3984  0.3760  0.3904
 3321TIP3   OH231453   0.757   5.094  14.290 -0.0065 -0.4860  0.5548
 3321TIP3    H131454   0.790   5.009  14.318  2.2577 -0.0589 -0.6701
 3321TIP3    H231455   0.747   5.144  14.372  0.6898 -1.2330  1.1073
 3322TIP3   OH231456   5.472   0.100   0.676 -0.5202  0.1392  0.0883
 3322TIP3    H131457   5.472   0.041   0.752  0.8089  0.8720  0.6685
 3322TIP3    H231458   5.521   0.054   0.608 -0.1604  0.2324  0.2822
 3323TIP3   OH231459   4.385   3.266   1.309 -0.8137  0.9251  0.6180
 3323TIP3    H131460   4.340   3.311   1.381 -0.2659  0.4125  1.2882
 3323TIP3    H231461   4.476   3.292   1.317 -0.2621 -1.2030  1.7525
 3324TIP3   OH231462   4.439   2.337  12.304 -0.1786  0.3869 -0.4523
 3324TIP3    H131463   4.460   2.369  12.216 -0.9900  1.5743 -0.2337
 3324TIP3    H231464   4.347   2.360  12.316 -0.2162 -0.2542  0.5032
 3325TIP3   OH231465   3.772   1.865   2.248  0.2824 -0.0749  0.3466
 3325TIP3    H131466   3.761   1.772   2.269 -0.6716 -0.4499 -1.6270
 3325TIP3    H231467   3.846   1.893   2.302  1.9153 -2.5036 -0.4923
 3326TIP3   OH231468   3.162   1.816   2.100  0.7930 -0.7367 -0.3730
 3326TIP3    H131469   3.113   1.875   2.158  3.2046 -0.7124  1.7057
 3326TIP3    H231470   3.205   1.875   2.038  1.5255 -0.4465  0.4034
 3327TIP3   OH231471   5.453   4.668   3.035  0.1636  0.7435  0.5319
 3327TIP3    H131472   5.415   4.681   2.948  0.6559 -0.0008  0.1959
 3327TIP3    H231473   5.520   4.737   3.042  1.1670 -0.1117 -0.3030
 3328TIP3   OH231474   2.527   1.644  16.328  0.6455 -0.3456 -0.4197
 3328TIP3    H131475   2.610   1.689  16.340  0.1955  0.0962  1.1594
 3328TIP3    H231476   2.479   1.698  16.265  0.9692  0.2201 -0.1859
 3329TIP3   OH231477   4.601   0.333  13.882  0.2688  0.0811 -0.3394
 3329TIP3    H131478   4.526   0.299  13.930  1.0974 -0.0608  0.8721
 3329TIP3    H231479   4.652   0.255  13.860  0.0423  0.1728 -1.2006
 3330TIP3   OH231480   6.234   1.140  14.870 -0.5035  0.8567  0.7241
 3330TIP3    H131481   6.222   1.062  14.925  0.9238  1.7899  2.4275
 3330TIP3    H231482   6.181   1.207  14.913  1.9360  2.0457  1.9604
 3331TIP3   OH231483   4.486   5.258  14.406  0.5757  0.2430 -0.1500
 3331TIP3    H131484   4.416   5.221  14.352  0.1357  0.1806  0.4531
 3331TIP3    H231485   4.446   5.267  14.493  1.3997 -0.0320  0.2578
 3332TIP3   OH231486   5.135   1.793  16.673  0.0477  0.4073  0.0479
 3332TIP3    H131487   5.223   1.831  16.679  1.2333 -2.0984 -0.8016
 3332TIP3    H231488   5.134   1.725  16.741 -0.7400 -0.4948 -0.8483
 3333TIP3   OH231489   0.711   2.717  14.898 -0.1097 -0.0868  0.3066
 3333TIP3    H131490   0.659   2.686  14.824 -0.3366 -0.8571  0.7792
 3333TIP3    H231491   0.765   2.641  14.922 -1.3960 -0.4613  2.1204
 3334TIP3   OH231492   1.209   1.631  15.889  0.0064  0.5250  0.2944
 3334TIP3    H131493   1.160   1.649  15.969 -1.1248 -2.5389  0.3583
 3334TIP3    H231494   1.155   1.568  15.841  2.1841 -0.1723 -1.3382
 3335TIP3   OH231495   2.113   5.272   5.822 -0.3798 -0.6410  0.0687
 3335TIP3    H131496   2.165   5.274   5.902 -0.2643  0.2227 -0.0230
 3335TIP3    H231497   2.071   5.186   5.822 -0.1661 -0.7414  0.9217
 3336TIP3   OH231498   3.012   0.696   1.289 -0.1263  0.1754  0.4421
 3336TIP3    H131499   3.062   0.748   1.226  0.2948  0.3084  0.8798
 3336TIP3    H231500   3.039   0.730   1.374 -1.7367  0.9450  0.6688
 3337TIP3   OH231501   4.045   0.699  15.007  0.5144  0.2688  0.0918
 3337TIP3    H131502   4.048   0.720  14.914  0.9997 -0.9768 -0.1971
 3337TIP3    H231503   4.136   0.709  15.036  0.2818  1.0837  0.5248
 3338TIP3   OH231504   2.986   5.862   0.095 -0.1785  0.2454 -0.5628
 3338TIP3    H131505   2.989   5.809   0.175 -1.6893 -1.0310 -1.3356
 3338TIP3    H231506   2.923   5.931   0.114 -2.1422 -1.2911 -1.3668
 3339TIP3   OH231507   4.734   4.601  13.538  0.0807 -0.0007 -0.0413
 3339TIP3    H131508   4.707   4.685  13.502  1.4202  0.6349  0.4096
 3339TIP3    H231509   4.806   4.573  13.483  1.4036  0.4430  1.4270
 3340TIP3   OH231510   2.553   3.884   5.847  0.3434 -0.2024 -0.0040
 3340TIP3    H131511   2.600   3.806   5.818  0.4202 -0.2696  0.3049
 3340TIP3    H231512   2.484   3.851   5.905  1.4637  0.1033  1.5184
 3341TIP3   OH231513   5.221   1.402   5.568  0.3676  0.5209  0.4343
 3341TIP3    H131514   5.314   1.408   5.546  0.4120  1.5533  0.8612
 3341TIP3    H231515   5.190   1.492   5.566 -0.2613  0.3529  1.8281
 3342TIP3   OH231516   1.406   1.574   5.211  0.0163  0.8229 -0.4207
 3342TIP3    H131517   1.383   1.667   5.220 -1.2503  0.4947 -0.1009
 3342TIP3    H231518   1.349   1.529   5.274 -1.1701 -0.3970 -2.2909
 3343TIP3   OH231519   6.488   5.890  13.919  0.0716  0.0151 -0.5808
 3343TIP3    H131520   6.520   5.810  13.878 -0.4381 -0.3299 -0.3031
 3343TIP3    H231521   6.448   5.861  14.001  0.8441  0.6664  0.0397
 3344TIP3   OH231522   2.025   6.016   6.057  0.1703  0.1880  0.2646
 3344TIP3    H131523   1.973   5.940   6.084  0.2103 -0.3506 -1.1596
 3344TIP3    H231524   2.115   5.993   6.080 -0.0259  0.5227  1.4024
 3345TIP3   OH231525   4.070   3.017  15.161  0.1763 -0.1751  0.7790
 3345TIP3    H131526   4.029   2.931  15.160  0.2627 -0.2081 -0.3353
 3345TIP3    H231527   4.158   3.002  15.126 -0.3005  0.5970 -0.8094
 3346TIP3   OH231528   0.690   4.331   3.073 -0.3192  0.1715  0.5662
 3346TIP3    H131529   0.717   4.338   3.164 -1.6741  1.4937  0.8729
 3346TIP3    H231530   0.596   4.314   3.076 -0.1868 -0.8756 -0.5720
 3347TIP3   OH231531   5.711   3.240   0.759  0.0885 -0.0168  0.1414
 3347TIP3    H131532   5.787   3.239   0.818 -1.0650  0.0300  1.6784
 3347TIP3    H231533   5.654   3.170   0.792 -0.0608 -0.7772 -1.6615
 3348TIP3   OH231534   6.752   1.456  16.606 -0.2086  0.3986  0.0647
 3348TIP3    H131535   6.756   1.485  16.515 -0.2193 -0.2034 -0.1312
 3348TIP3    H231536   6.841   1.469  16.639  0.0494 -0.3451 -0.3338
 3349TIP3   OH231537   6.568   4.137  14.150  0.2220 -0.1248  0.7770
 3349TIP3    H131538   6.609   4.134  14.236  1.8764  2.2436  0.1152
 3349TIP3    H231539   6.635   4.100  14.091 -1.1577 -2.3822  0.5575
 3350TIP3   OH231540   0.225   1.896  16.136 -0.5029  0.4770  0.3049
 3350TIP3    H131541   0.134   1.873  16.153 -0.7311  0.0421 -1.4199
 3350TIP3    H231542   0.226   1.991  16.133 -1.0213  0.4660 -0.2940
 3351TIP3   OH231543   1.062   1.654  16.110 -0.0271 -0.0521 -0.2385
 3351TIP3    H131544   1.082   1.696  16.194  0.9919 -1.3695  0.1809
 3351TIP3    H231545   0.981   1.696  16.082  0.5094  1.5925  0.5972
 3352TIP3   OH231546   0.867   2.489  14.336 -0.0013 -0.5501 -0.2431
 3352TIP3    H131547   0.824   2.535  14.409  0.3462  0.9011 -0.9441
 3352TIP3    H231548   0.925   2.427  14.379 -0.4142 -0.2795  0.7270
 3353TIP3   OH231549   3.606   0.827   0.309  0.0362  1.5332  0.0975
 3353TIP3    H131550   3.692   0.791   0.330 -0.7404 -0.2429  0.3142
 3353TIP3    H231551   3.593   0.805   0.216 -0.8067  0.4709  0.4583
 3354TIP3   OH231552   4.781   4.342  11.224 -0.2857 -0.1582  0.2617
 3354TIP3    H131553   4.869   4.328  11.258 -0.2866  0.8736  0.7211
 3354TIP3    H231554   4.758   4.260  11.180  0.3809 -0.9012  1.2740
 3355TIP3   OH231555   1.484   6.039   0.138 -0.3362  0.1475 -0.3491
 3355TIP3    H131556   1.562   5.987   0.158  0.1305  1.1008  0.3164
 3355TIP3    H231557   1.434   6.040   0.219  0.2256  1.7139 -0.0073
 3356TIP3   OH231558   6.453   3.315  16.183 -0.8310  0.3973 -0.0141
 3356TIP3    H131559   6.517   3.282  16.245  0.0412 -0.5624 -1.3895
 3356TIP3    H231560   6.386   3.356  16.237 -0.2234 -0.6375  1.5581
 3357TIP3   OH231561   3.434   0.933  15.176  0.1355  0.4924 -0.3808
 3357TIP3    H131562   3.514   0.899  15.216 -0.4059  1.4597  1.5972
 3357TIP3    H231563   3.366   0.919  15.242 -1.0066  1.1213 -1.4002
 3358TIP3   OH231564   0.022   3.922   3.238 -0.5203  0.7795 -0.9795
 3358TIP3    H131565  -0.008   3.860   3.172 -1.3688  0.6412 -0.4709
 3358TIP3    H231566  -0.053   3.979   3.254  0.1164  1.6760 -1.1371
 3359TIP3   OH231567   3.619   6.170   4.900  0.2470  0.0476  0.1809
 3359TIP3    H131568   3.694   6.119   4.931  0.8238  0.6255 -0.2350
 3359TIP3    H231569   3.621   6.160   4.805 -0.0215  0.3121  0.1474
 3360TIP3   OH231570   2.087   3.660   2.109 -0.4554  0.2822  0.2850
 3360TIP3    H131571   2.056   3.642   2.197 -2.8210 -0.4141 -0.6306
 3360TIP3    H231572   2.060   3.751   2.092  0.7613  0.7068  0.5732
 3361TIP3   OH231573   1.385   6.142  13.355  0.1373  0.3740 -0.2186
 3361TIP3    H131574   1.361   6.161  13.445  2.1534  1.9848  0.0353
 3361TIP3    H231575   1.444   6.066  13.361 -1.1128 -0.6175 -0.3690
 3362TIP3   OH231576   0.023   4.938  11.500  0.2124 -0.1899 -0.0272
 3362TIP3    H131577  -0.052   4.979  11.456 -0.1874 -1.1364 -0.2285
 3362TIP3    H231578   0.043   4.999  11.572  0.1394  0.7694 -0.8065
 3363TIP3   OH231579   2.638   5.305  14.998 -0.2331  0.0950  0.0561
 3363TIP3    H131580   2.723   5.272  15.027 -0.4486 -0.9215 -0.4635
 3363TIP3    H231581   2.582   5.228  14.992 -1.5888  0.9200  1.7026
 3364TIP3   OH231582   4.138   4.179  16.263 -0.1158 -0.4372 -0.3473
 3364TIP3    H131583   4.198   4.186  16.338  1.0090 -2.5992 -1.0254
 3364TIP3    H231584   4.097   4.094  16.273 -0.4018 -0.4853 -1.8760
 3365TIP3   OH231585   5.475   0.190  15.564  0.0844  0.0519 -0.1077
 3365TIP3    H131586   5.480   0.095  15.561 -3.2302 -0.1928  0.6125
 3365TIP3    H231587   5.565   0.218  15.577  1.4099 -2.8736 -2.3634
 3366TIP3   OH231588   3.442   3.552   3.160 -0.6494 -0.3684 -0.0250
 3366TIP3    H131589   3.502   3.479   3.177 -0.2825 -0.0024  0.2875
 3366TIP3    H231590   3.500   3.626   3.141 -1.0379 -0.6014 -2.2260
 3367TIP3   OH231591   3.275   3.655   4.240 -0.3137  0.0025  0.4523
 3367TIP3    H131592   3.338   3.592   4.206 -1.7225 -0.3563 -1.5549
 3367TIP3    H231593   3.197   3.643   4.185 -1.6342  1.4120  1.9782
 3368TIP3   OH231594   0.905   0.440  13.797 -0.2412 -0.7419  0.4346
 3368TIP3    H131595   0.951   0.522  13.780 -2.4328  0.6355  0.9584
 3368TIP3    H231596   0.973   0.380  13.826  1.2537  1.2102  1.0781
 3369TIP3   OH231597   1.518   6.744   4.572 -0.2347  0.9825  0.2794
 3369TIP3    H131598   1.551   6.834   4.581  3.0377 -0.0011 -1.1517
 3369TIP3    H231599   1.554   6.698   4.648  0.9347  0.1158 -0.7820
 3370TIP3   OH231600   3.087   6.087   5.118 -0.3850  0.0835 -0.2146
 3370TIP3    H131601   3.002   6.130   5.129 -1.0223 -0.7645 -1.6434
 3370TIP3    H231602   3.131   6.140   5.051  0.4576  0.8523  0.9272
 3371TIP3   OH231603   5.521   1.979   3.228  0.1825  0.5204 -0.1259
 3371TIP3    H131604   5.592   1.968   3.165  0.2060  0.1793 -0.0428
 3371TIP3    H231605   5.552   2.045   3.289  0.7870 -0.2525  0.4176
 3372TIP3   OH231606   3.297   1.009  14.065 -0.1361  0.0906 -0.1444
 3372TIP3    H131607   3.304   0.927  14.015  1.1352  0.3192 -0.3407
 3372TIP3    H231608   3.364   1.003  14.132 -0.2075  0.8726  0.0059
 3373TIP3   OH231609   1.986   5.386   3.064 -0.0752  0.8147  0.6182
 3373TIP3    H131610   1.904   5.342   3.087 -1.8385  3.1250 -0.9642
 3373TIP3    H231611   1.962   5.443   2.991  2.7456  2.3078  0.8073
 3374TIP3   OH231612   3.896   6.369  11.780 -0.2595 -0.0862 -0.0314
 3374TIP3    H131613   3.950   6.331  11.849 -2.4370 -1.0564  1.1633
 3374TIP3    H231614   3.929   6.458  11.770  0.5868 -0.1869  1.7061
 3375TIP3   OH231615   2.123   2.795   1.796 -0.1838  0.3680 -0.7105
 3375TIP3    H131616   2.164   2.820   1.878  0.4552  0.3970 -1.0360
 3375TIP3    H231617   2.029   2.794   1.815 -0.0133  0.0461  0.1045
 3376TIP3   OH231618   5.596   3.638   6.044  0.2403 -0.0246  0.5027
 3376TIP3    H131619   5.644   3.569   5.999 -1.2456 -1.2539  0.7943
 3376TIP3    H231620   5.619   3.718   5.995  0.3098 -1.0201 -1.1323
 3377TIP3   OH231621   4.266   3.356  16.917 -0.1919 -0.1804 -0.0882
 3377TIP3    H131622   4.251   3.424  16.851 -0.7214 -0.3542 -0.1491
 3377TIP3    H231623   4.179   3.339  16.954  0.0385 -0.3865  0.3569
 3378TIP3   OH231624   3.805   3.496   4.255  0.5343  0.2124 -0.1044
 3378TIP3    H131625   3.749   3.572   4.268  1.3441  0.8110 -0.1130
 3378TIP3    H231626   3.856   3.489   4.335  0.3988 -0.3813 -0.0651
 3379TIP3   OH231627   5.287   4.708  14.897 -0.4668  0.8429  0.3633
 3379TIP3    H131628   5.373   4.737  14.867  0.1836  0.6421  1.9354
 3379TIP3    H231629   5.225   4.770  14.858  0.2658  0.2089 -1.8273
 3380TIP3   OH231630   5.131   6.142  12.764 -0.1713  0.1963 -0.2635
 3380TIP3    H131631   5.104   6.108  12.679 -2.3339  0.5165  0.2717
 3380TIP3    H231632   5.202   6.084  12.792  0.0037 -0.4014 -1.9032
 3381TIP3   OH231633   5.606   0.685  12.457  0.7445 -0.1832 -0.3183
 3381TIP3    H131634   5.657   0.752  12.503  0.6633  0.3436 -0.9763
 3381TIP3    H231635   5.521   0.685  12.501  0.6910  0.2669 -0.4162
 3382TIP3   OH231636   5.481   0.534   4.875  0.5835  0.1271 -0.5193
 3382TIP3    H131637   5.454   0.580   4.954  0.6240 -1.4815  0.4526
 3382TIP3    H231638   5.557   0.583   4.844  1.1027  0.2532  0.9286
 3383TIP3   OH231639   5.953   1.770   0.560  0.5346  0.5235 -0.2384
 3383TIP3    H131640   6.002   1.824   0.498  1.2729  0.6056  0.4088
 3383TIP3    H231641   5.876   1.741   0.511  1.5841 -0.2001 -1.4909
 3384TIP3   OH231642   1.459   2.516  13.870  0.0164 -0.3794  0.1053
 3384TIP3    H131643   1.536   2.564  13.840 -0.4072  0.1737 -0.1068
 3384TIP3    H231644   1.389   2.542  13.810 -0.3316 -0.8997  0.2780
 3385TIP3   OH231645   0.682   4.082   5.328  0.1906 -0.0647  0.3026
 3385TIP3    H131646   0.651   4.017   5.265  2.0899  0.0130 -0.7397
 3385TIP3    H231647   0.624   4.071   5.404 -0.4092 -1.9915 -0.3973
 3386TIP3   OH231648   3.452   1.912   5.498  0.0655  0.3872 -0.0967
 3386TIP3    H131649   3.544   1.916   5.523  0.3044  2.7155 -1.2487
 3386TIP3    H231650   3.414   1.845   5.556  2.1944  0.2967  1.2342
 3387TIP3   OH231651   6.254   0.088  14.767 -0.2799 -0.0715 -0.2090
 3387TIP3    H131652   6.163   0.064  14.751 -0.2554  1.5784 -3.3174
 3387TIP3    H231653   6.302   0.046  14.695  1.0541  1.1353 -0.0368
 3388TIP3   OH231654   4.736   3.391   4.103 -0.3402 -0.1143 -0.5313
 3388TIP3    H131655   4.751   3.485   4.117  0.1045 -0.0777 -1.2130
 3388TIP3    H231656   4.656   3.387   4.051 -0.5166 -0.1321 -0.2622
 3389TIP3   OH231657   6.216   0.921   1.613 -0.8485 -0.0535 -0.2597
 3389TIP3    H131658   6.156   0.861   1.568 -0.3775 -1.3828  0.8646
 3389TIP3    H231659   6.298   0.912   1.565 -1.2933  1.1642 -1.2937
 3390TIP3   OH231660   6.445   0.722  16.946 -0.2091 -0.2366 -0.2991
 3390TIP3    H131661   6.532   0.715  16.986 -0.1488  0.7701 -0.2500
 3390TIP3    H231662   6.433   0.639  16.900  0.3413 -0.8069  0.5762
 3391TIP3   OH231663   5.571   1.245  13.855 -0.1163  0.3168  0.1868
 3391TIP3    H131664   5.556   1.238  13.761 -1.4842  1.0708  0.3405
 3391TIP3    H231665   5.664   1.269  13.863 -0.1002  0.6621 -0.9794
 3392TIP3   OH231666   5.528   3.425  16.083 -0.2456  0.4561 -0.1596
 3392TIP3    H131667   5.569   3.427  15.997  0.8896 -1.5298  0.3025
 3392TIP3    H231668   5.490   3.338  16.090  0.6155  0.2063  1.7480
 3393TIP3   OH231669   5.695   6.278  16.014  0.2906 -0.0377  0.3835
 3393TIP3    H131670   5.664   6.309  15.928  3.2870  0.6173 -0.5115
 3393TIP3    H231671   5.710   6.359  16.064  3.4521 -0.1719 -0.2735
 3394TIP3   OH231672   2.839   2.848  12.101  0.3714 -0.1132 -0.6810
 3394TIP3    H131673   2.753   2.818  12.073 -0.5325  0.8314  1.0120
 3394TIP3    H231674   2.899   2.781  12.068 -0.8937 -0.3370 -2.6368
 3395TIP3   OH231675   4.265   3.097  13.787  0.0896  1.0471  0.7757
 3395TIP3    H131676   4.284   3.189  13.806  1.0743  0.8698  0.6890
 3395TIP3    H231677   4.215   3.100  13.705 -2.0318  1.6486  2.0681
 3396TIP3   OH231678   3.284   4.003  14.031  0.1014 -0.2407 -0.2201
 3396TIP3    H131679   3.360   3.980  14.085  0.0619  0.8986  0.3361
 3396TIP3    H231680   3.209   3.993  14.091 -0.1772 -1.1747 -0.7122
 3397TIP3   OH231681   2.238   6.069   2.261  0.0840  0.2007 -0.1151
 3397TIP3    H131682   2.193   6.092   2.342  0.1806 -2.5951  0.8092
 3397TIP3    H231683   2.168   6.066   2.195 -0.4995 -0.3448  0.5059
 3398TIP3   OH231684   4.314   3.516  14.214  0.2568  0.1999  0.2860
 3398TIP3    H131685   4.266   3.512  14.131  0.0394 -0.6369  0.4421
 3398TIP3    H231686   4.401   3.548  14.190  0.6950 -1.4858 -0.5145
 3399TIP3   OH231687   0.822   2.836   2.734 -0.1978  0.3255  0.2629
 3399TIP3    H131688   0.730   2.809   2.739 -0.3927  1.0936  0.9824
 3399TIP3    H231689   0.869   2.758   2.706 -1.2167  0.2348 -1.2128
 3400TIP3   OH231690   1.354   3.202  14.280  0.2928 -0.0619 -0.5623
 3400TIP3    H131691   1.367   3.117  14.323  1.7237 -0.0466 -0.9506
 3400TIP3    H231692   1.356   3.265  14.352  1.8992 -0.1119 -0.5431
 3401TIP3   OH231693   3.020   1.383  13.047 -0.3769 -0.8718 -0.6913
 3401TIP3    H131694   3.041   1.399  12.954 -0.6392 -0.2379 -0.6480
 3401TIP3    H231695   2.947   1.321  13.045 -0.5163 -0.7042 -0.9183
 3402TIP3   OH231696   1.578   3.500   5.038 -0.3338 -0.0389  0.1149
 3402TIP3    H131697   1.554   3.441   5.109 -2.8481  0.5238 -0.2179
 3402TIP3    H231698   1.528   3.470   4.963 -1.4856  2.3157 -0.1220
 3403TIP3   OH231699   5.523   3.098   4.497  0.1751 -0.1844 -0.1672
 3403TIP3    H131700   5.540   3.188   4.522  0.2561  0.2600 -1.7645
 3403TIP3    H231701   5.555   3.046   4.571  1.8052  1.0011 -0.0083
 3404TIP3   OH231702   6.815   1.345  14.175 -0.0430  0.4223 -0.2137
 3404TIP3    H131703   6.800   1.389  14.259 -0.6574 -0.8749  0.3679
 3404TIP3    H231704   6.775   1.259  14.186  1.2803 -0.3368 -1.2918
 3405TIP3   OH231705   3.510   4.898   0.481  0.4298 -0.2991  0.2785
 3405TIP3    H131706   3.580   4.914   0.544  0.1099  0.8685  0.3591
 3405TIP3    H231707   3.478   4.985   0.459 -1.3543 -0.8357  0.6459
 3406TIP3   OH231708   4.635   5.698  12.101 -0.4844 -0.7628  0.7250
 3406TIP3    H131709   4.556   5.716  12.050  1.5498  0.7427 -2.0222
 3406TIP3    H231710   4.604   5.695  12.192 -3.3438  2.2261 -0.0456
 3407TIP3   OH231711   0.520   2.291  14.996 -0.6808 -0.2106 -0.3938
 3407TIP3    H131712   0.430   2.320  14.982 -0.1560  1.3610 -0.6319
 3407TIP3    H231713   0.513   2.224  15.065 -2.2334 -1.5531 -1.8014
 3408TIP3   OH231714   4.277   3.374   0.047  0.1338  0.2651 -0.3104
 3408TIP3    H131715   4.239   3.392  -0.039  0.8993 -1.1563 -0.9621
 3408TIP3    H231716   4.371   3.365   0.030 -0.0500 -3.2473  0.0870
 3409TIP3   OH231717   0.299   1.189   4.239  0.0213  0.7241 -0.3161
 3409TIP3    H131718   0.363   1.119   4.254  0.2295  0.7104 -1.2658
 3409TIP3    H231719   0.232   1.174   4.306 -0.5321 -1.1025 -1.2527
 3410TIP3   OH231720   5.113   3.686   1.610 -0.3913 -0.1956  0.1989
 3410TIP3    H131721   5.161   3.611   1.647  0.1832  1.1768  2.2871
 3410TIP3    H231722   5.021   3.666   1.627 -0.4231 -1.4347 -1.2194
 3411TIP3   OH231723   1.462   1.510  11.605  0.3280 -0.0102  0.2552
 3411TIP3    H131724   1.526   1.472  11.545 -0.8576 -0.3653 -0.7859
 3411TIP3    H231725   1.400   1.556  11.549 -1.1974 -0.9432  1.1214
 3412TIP3   OH231726   3.164   1.973   4.896  0.1355  0.6929 -0.4275
 3412TIP3    H131727   3.194   2.063   4.912 -2.8596  1.1890  3.0181
 3412TIP3    H231728   3.074   1.983   4.864 -0.3541 -1.0858  0.3568
 3413TIP3   OH231729   2.475   1.426  16.485 -0.0994 -0.1499 -0.2682
 3413TIP3    H131730   2.497   1.480  16.410 -3.2980  0.1117 -1.0846
 3413TIP3    H231731   2.460   1.339  16.448  1.4236 -0.7835  0.5450
 3414TIP3   OH231732   3.558   1.402   1.478  0.0494 -0.1491 -0.6777
 3414TIP3    H131733   3.578   1.314   1.510  1.1679  0.9346  1.7904
 3414TIP3    H231734   3.464   1.412   1.492 -0.1441 -1.0812 -1.3050
 3415TIP3   OH231735   1.174   3.765  10.987  0.3866 -0.1586  0.4374
 3415TIP3    H131736   1.223   3.839  10.949  1.1608  0.3695  2.3913
 3415TIP3    H231737   1.088   3.769  10.945  1.5352 -0.2579 -2.0348
 3416TIP3   OH231738   1.251   0.664  12.612 -0.4001  0.2719  0.1857
 3416TIP3    H131739   1.308   0.589  12.629 -2.8683 -2.0429 -1.4388
 3416TIP3    H231740   1.237   0.663  12.518 -1.1076  2.3154  0.2550
 3417TIP3   OH231741   5.671   3.313   2.635  0.5789  0.5177  0.2878
 3417TIP3    H131742   5.623   3.347   2.560  1.1827  0.0926 -0.2913
 3417TIP3    H231743   5.734   3.382   2.656  0.7589  0.4139  0.0853
 3418TIP3   OH231744   3.220   0.610   4.519  0.2801 -0.0236 -0.1670
 3418TIP3    H131745   3.309   0.592   4.491 -0.4784 -1.8589 -1.5164
 3418TIP3    H231746   3.167   0.598   4.439 -1.0822  1.7206  0.4407
 3419TIP3   OH231747   0.898   5.867   4.703 -0.0182 -0.2407  0.0543
 3419TIP3    H131748   0.880   5.948   4.751 -2.1627 -0.7852  0.2232
 3419TIP3    H231749   0.869   5.884   4.614 -1.0846 -1.0144  0.2372
 3420TIP3   OH231750   5.662   3.041  11.355 -0.2044 -0.4815 -0.0951
 3420TIP3    H131751   5.681   3.060  11.447  2.5405 -3.0024 -0.0677
 3420TIP3    H231752   5.717   3.103  11.306  0.2349 -0.8277 -0.0385
 3421TIP3   OH231753   1.214   0.913  14.527  0.3174 -0.6135 -0.2614
 3421TIP3    H131754   1.213   0.918  14.431  0.8191  0.3587 -0.2207
 3421TIP3    H231755   1.306   0.920  14.550  0.0202  1.4517  0.4022
 3422TIP3   OH231756   2.310   4.885  16.164  0.4512 -0.2237 -0.2592
 3422TIP3    H131757   2.363   4.809  16.188  0.2066 -0.6730 -1.0996
 3422TIP3    H231758   2.355   4.923  16.089  1.2422  1.1957  0.9054
 3423TIP3   OH231759   5.692   2.037  13.609  0.0467  0.1422 -0.1588
 3423TIP3    H131760   5.693   2.133  13.615  1.6424  0.0378  1.5404
 3423TIP3    H231761   5.649   2.008  13.689  0.9696 -0.6092  0.0752
 3424TIP3   OH231762   6.316   4.673   5.671  0.4584  0.0734 -0.5216
 3424TIP3    H131763   6.363   4.591   5.680 -0.0122 -0.1089  0.3753
 3424TIP3    H231764   6.299   4.701   5.762 -0.4576  0.5310 -0.8240
 3425TIP3   OH231765   1.814   2.961   0.100  0.4270 -0.0414  0.0755
 3425TIP3    H131766   1.808   3.018   0.024  1.7513  0.2625  0.1809
 3425TIP3    H231767   1.856   3.015   0.167 -0.6243 -0.3459  0.9768
 3426TIP3   OH231768   2.999   1.501  16.294  0.2308  0.1893  0.0818
 3426TIP3    H131769   2.952   1.516  16.376 -0.4223 -3.0641  0.3534
 3426TIP3    H231770   2.940   1.535  16.226 -0.7786 -0.2707  0.7206
 3427TIP3   OH231771   3.738   1.696  13.151  0.2794 -0.5841 -0.0371
 3427TIP3    H131772   3.796   1.636  13.198  0.2132 -0.4163  0.2589
 3427TIP3    H231773   3.672   1.721  13.215 -0.2210 -0.9086 -0.4270
 3428TIP3   OH231774   0.483   2.988   0.839  0.1614 -0.3300 -0.1632
 3428TIP3    H131775   0.434   2.917   0.880  0.5548 -0.8953 -0.6677
 3428TIP3    H231776   0.504   2.956   0.751  0.1266  0.5027 -0.4847
 3429TIP3   OH231777   0.947   3.146   5.901  0.3037  0.4880  0.3577
 3429TIP3    H131778   0.926   3.238   5.919  0.5949  0.5945  0.1526
 3429TIP3    H231779   1.041   3.146   5.882  0.0106  0.3716 -1.1317
 3430TIP3   OH231780   6.152   1.007  16.298 -0.1566  0.1063 -0.2382
 3430TIP3    H131781   6.134   1.084  16.352  0.9779 -0.1948  0.5931
 3430TIP3    H231782   6.100   0.937  16.339 -2.6807  0.8192 -2.1158
 3431TIP3   OH231783   3.635   3.929   5.590 -0.8270  0.9036 -0.3122
 3431TIP3    H131784   3.618   3.860   5.654 -0.6904  0.5904 -0.6101
 3431TIP3    H231785   3.721   3.964   5.614 -0.1542 -0.1354 -1.1362
 3432TIP3   OH231786   1.672   0.370  15.840 -0.4041  0.3757 -0.6657
 3432TIP3    H131787   1.598   0.343  15.786 -0.2057  0.1610 -0.8317
 3432TIP3    H231788   1.643   0.356  15.930 -0.1139 -0.8827 -0.7622
 3433TIP3   OH231789   6.129   4.327  13.809 -0.0484 -0.6219  0.1454
 3433TIP3    H131790   6.163   4.415  13.827  1.4457 -0.7514 -1.8339
 3433TIP3    H231791   6.137   4.317  13.714  0.2181 -3.0622  0.3885
 3434TIP3   OH231792   5.619   1.192  11.007  0.5591  0.0870 -0.4931
 3434TIP3    H131793   5.555   1.263  10.997 -0.9487 -0.9459  1.4694
 3434TIP3    H231794   5.633   1.160  10.919 -1.2460  0.6948 -1.0314
 3435TIP3   OH231795   3.984   0.478  13.772 -0.3037  0.3678 -0.4779
 3435TIP3    H131796   3.917   0.453  13.836 -0.1318 -0.7478 -0.7243
 3435TIP3    H231797   3.969   0.420  13.698  2.1973 -1.2536  0.2519
 3436TIP3   OH231798   2.267   2.780  16.262  0.0230  0.0434  0.3008
 3436TIP3    H131799   2.343   2.785  16.320  0.7034  2.0713 -0.7112
 3436TIP3    H231800   2.266   2.864  16.217 -2.7055 -0.0462  0.1189
 3437TIP3   OH231801   5.020   3.657  11.051 -0.2754  0.0705 -0.0530
 3437TIP3    H131802   4.925   3.644  11.052 -0.0496 -1.7323  2.1508
 3437TIP3    H231803   5.055   3.583  11.101  2.3451  0.3874 -1.2973
 3438TIP3   OH231804   0.479   1.565   4.343 -0.2153 -0.3926  0.3017
 3438TIP3    H131805   0.573   1.551   4.330  0.0234  1.2385  0.1063
 3438TIP3    H231806   0.461   1.528   4.429  0.5412 -1.0004  0.2063
 3439TIP3   OH231807   1.753   2.663  13.100  0.3352 -0.3827 -0.4183
 3439TIP3    H131808   1.830   2.692  13.050  0.5515  0.3569  0.3324
 3439TIP3    H231809   1.778   2.676  13.191 -0.6352 -0.2793 -0.1684
 3440TIP3   OH231810   3.490   6.436   1.496  0.4811 -0.5956 -0.1709
 3440TIP3    H131811   3.574   6.449   1.452 -0.6719 -0.1118 -2.2558
 3440TIP3    H231812   3.463   6.348   1.473  1.8783 -1.9406  3.0761
 3441TIP3   OH231813   3.779   5.925   1.676  0.0169  0.0147  0.2698
 3441TIP3    H131814   3.725   5.989   1.723 -0.1409  0.3929 -0.4228
 3441TIP3    H231815   3.832   5.884   1.744  1.7095  2.4112  0.4583
 3442TIP3   OH231816   0.745   1.809   2.888  0.0149 -0.2366  0.6122
 3442TIP3    H131817   0.670   1.751   2.883 -0.4415  0.4080 -0.1557
 3442TIP3    H231818   0.784   1.805   2.801 -1.2264  2.1887 -0.0902
 3443TIP3   OH231819   6.204   5.588   1.835  0.4173  0.1244  0.1429
 3443TIP3    H131820   6.167   5.639   1.763 -2.9697 -2.3291  0.0180
 3443TIP3    H231821   6.229   5.505   1.796  1.1157 -0.2073  1.2684
 3444TIP3   OH231822   1.583   4.139   3.461 -0.0251  0.0486  0.5908
 3444TIP3    H131823   1.669   4.179   3.469  0.9850 -2.3723  2.3854
 3444TIP3    H231824   1.533   4.175   3.534 -0.5125  1.3370 -0.3617
 3445TIP3   OH231825   0.370   0.539  13.798 -0.6775 -0.9182 -0.5202
 3445TIP3    H131826   0.368   0.588  13.880 -1.1178 -4.2122  1.5153
 3445TIP3    H231827   0.322   0.593  13.736 -0.0293  1.7935  1.2802
 3446TIP3   OH231828   1.254   5.927   3.514 -0.1054  0.0590  0.0282
 3446TIP3    H131829   1.202   5.914   3.435  1.2119 -3.1340 -0.3620
 3446TIP3    H231830   1.328   5.980   3.485  0.7635 -1.7194 -1.0684
 3447TIP3   OH231831   5.853   6.158  12.978 -0.1010  0.4533 -0.1292
 3447TIP3    H131832   5.850   6.254  12.975  0.1459  0.4872  0.6716
 3447TIP3    H231833   5.768   6.130  12.944 -1.0974  1.0037  1.8403
 3448TIP3   OH231834   0.956   6.454   4.489  0.5105  0.1928  0.0296
 3448TIP3    H131835   1.026   6.395   4.460 -0.8981 -1.4021 -0.2066
 3448TIP3    H231836   0.968   6.533   4.437 -0.3543 -1.6246 -3.0508
 3449TIP3   OH231837   1.629   2.958   1.352 -0.0781 -0.2829 -0.4074
 3449TIP3    H131838   1.592   2.873   1.374  0.6974 -1.3465 -3.0865
 3449TIP3    H231839   1.553   3.015   1.338 -0.6923 -1.5947 -2.5926
 3450TIP3   OH231840   1.143   6.680   5.811  0.1291 -0.0518 -0.3130
 3450TIP3    H131841   1.198   6.629   5.871 -0.8114 -1.2904 -0.4910
 3450TIP3    H231842   1.205   6.731   5.758  0.9730  3.1262  3.4496
 3451TIP3   OH231843   0.618   6.303  11.464 -0.0197  0.3581 -0.2939
 3451TIP3    H131844   0.527   6.322  11.445 -0.8997 -1.3314  1.9686
 3451TIP3    H231845   0.642   6.232  11.404 -1.2143 -1.4014  1.2328
 3452TIP3   OH231846   4.355   2.226   4.519  0.0270  0.1437 -0.2294
 3452TIP3    H131847   4.444   2.255   4.539  0.5158 -0.4298 -1.4872
 3452TIP3    H231848   4.366   2.136   4.489 -1.0391 -0.0759  0.0221
 3453TIP3   OH231849   5.075   4.926   5.534  0.5134 -0.5793 -0.0393
 3453TIP3    H131850   5.082   4.833   5.553  0.4061 -0.6354 -0.2757
 3453TIP3    H231851   5.084   4.933   5.439  0.2841 -0.3729 -0.0484
 3454TIP3   OH231852   0.589   4.178   0.610 -0.2577  0.0660  0.4966
 3454TIP3    H131853   0.677   4.148   0.585  0.3282  0.5348  1.9559
 3454TIP3    H231854   0.598   4.206   0.701 -2.3123 -1.4804  1.2158
 3455TIP3   OH231855   1.583   3.563   6.433 -0.4373  0.1221 -0.1762
 3455TIP3    H131856   1.548   3.478   6.405  0.5355 -0.5165  0.5028
 3455TIP3    H231857   1.665   3.572   6.385 -0.3368  0.4881  0.0589
 3456TIP3   OH231858   3.039   5.887  15.597 -0.1622  0.3158  0.1759
 3456TIP3    H131859   3.065   5.807  15.551 -0.8443  0.1345  0.0890
 3456TIP3    H231860   3.056   5.868  15.690 -1.9123 -0.5919  0.3445
 3457TIP3   OH231861   0.328   4.767  13.207  0.3828  0.9066 -0.0244
 3457TIP3    H131862   0.341   4.769  13.302 -0.4682 -3.1270  0.2668
 3457TIP3    H231863   0.412   4.738  13.171  0.4184  1.5274 -0.4652
 3458TIP3   OH231864   4.076   5.336   4.377  0.3488  0.2249 -0.5250
 3458TIP3    H131865   4.100   5.333   4.470 -2.0691 -0.0303  0.1384
 3458TIP3    H231866   4.111   5.255   4.340  0.8086  0.0404  0.3013
 3459TIP3   OH231867   3.085   2.228   4.049 -0.0034  0.3645 -0.4350
 3459TIP3    H131868   3.134   2.307   4.072  1.6081 -0.7892  0.2086
 3459TIP3    H231869   3.126   2.159   4.101 -1.3892 -0.9014 -0.9910
 3460TIP3   OH231870   1.317   6.056  16.433 -0.3513  0.3825 -0.3469
 3460TIP3    H131871   1.238   6.100  16.404 -0.9849  0.2600  1.1373
 3460TIP3    H231872   1.348   6.107  16.508  0.1342 -0.4249  0.0181
 3461TIP3   OH231873   4.040   3.798   0.672 -0.1565 -0.3198  0.1089
 3461TIP3    H131874   4.109   3.835   0.617 -0.7562  0.8634  0.1431
 3461TIP3    H231875   4.003   3.727   0.619 -0.8825  0.9551 -1.1246
 3462TIP3   OH231876   6.191   1.915  12.632 -0.2660 -0.0693  0.0353
 3462TIP3    H131877   6.201   1.840  12.691 -0.3066 -0.1137 -0.0150
 3462TIP3    H231878   6.169   1.988  12.690  0.8220  0.1322  0.1956
 3463TIP3   OH231879   1.827   4.710  16.989  0.0878  0.6740  0.0263
 3463TIP3    H131880   1.863   4.736  17.074 -1.5506  1.2877  0.5454
 3463TIP3    H231881   1.876   4.763  16.926  1.2876  0.2417  0.5689
 3464TIP3   OH231882   0.438   0.852   5.297  0.3529 -0.2090  0.0607
 3464TIP3    H131883   0.522   0.806   5.305  1.2909  1.8844  3.4183
 3464TIP3    H231884   0.380   0.805   5.357  0.6780  1.5055  1.7679
 3465TIP3   OH231885   5.541   1.343   4.049 -0.1424  0.3165  0.3047
 3465TIP3    H131886   5.571   1.401   3.979  0.8266  0.4340  0.8164
 3465TIP3    H231887   5.620   1.322   4.099 -0.3916 -1.8015 -0.1293
 3466TIP3   OH231888   2.936   1.460   2.429  0.1195  0.0635  0.3077
 3466TIP3    H131889   3.006   1.479   2.491  0.2110 -1.4463  0.6703
 3466TIP3    H231890   2.902   1.546   2.404  2.3266  0.8342 -0.1341
 3467TIP3   OH231891   6.093   0.055   5.389  0.0009 -0.2936 -0.4390
 3467TIP3    H131892   6.034   0.130   5.396 -2.9237 -2.4054 -1.5962
 3467TIP3    H231893   6.139   0.068   5.307  1.0454  1.2747  0.3780
 3468TIP3   OH231894   5.678   2.083  17.211 -0.7194 -0.2861 -0.0225
 3468TIP3    H131895   5.712   2.172  17.224  0.7522 -1.0757  1.7723
 3468TIP3    H231896   5.699   2.063  17.120  1.9530  0.0062  0.4724
 3469TIP3   OH231897   3.862   0.777  16.785 -0.0285 -0.4033 -0.2403
 3469TIP3    H131898   3.793   0.842  16.799  0.6279  0.0969  0.6901
 3469TIP3    H231899   3.868   0.730  16.868  0.2960 -0.8924 -0.5388
 3470TIP3   OH231900   5.513   2.127  12.506 -0.3708  0.3282  0.3920
 3470TIP3    H131901   5.592   2.179  12.492 -0.4806  0.2170 -0.6655
 3470TIP3    H231902   5.482   2.153  12.594  0.6929  0.5473  0.7046
 3471TIP3   OH231903   1.651   3.059   1.628 -0.3349  0.1066  0.0288
 3471TIP3    H131904   1.588   3.003   1.582 -1.7119  1.6938 -0.0371
 3471TIP3    H231905   1.733   3.046   1.580 -0.9431 -0.9050 -0.7563
 3472TIP3   OH231906   2.844   1.356   0.938 -0.2069 -0.1335  0.1932
 3472TIP3    H131907   2.764   1.404   0.957 -0.4783  0.1318 -1.5189
 3472TIP3    H231908   2.815   1.273   0.901  0.2950  0.2485 -1.0976
 3473TIP3   OH231909   2.804   4.509   1.427  0.0379 -0.5324  0.6813
 3473TIP3    H131910   2.751   4.589   1.421 -0.3288 -0.7454  1.0793
 3473TIP3    H231911   2.815   4.494   1.520  2.7315  0.7583  0.6009
 3474TIP3   OH231912   1.739   2.527   1.222  0.2195 -0.1577  0.0577
 3474TIP3    H131913   1.726   2.615   1.187  0.8402 -0.6777 -1.5298
 3474TIP3    H231914   1.772   2.540   1.311 -0.3153  1.2061  0.0512
 3475TIP3   OH231915   4.631   0.834  13.589  0.1425 -0.0628 -0.4352
 3475TIP3    H131916   4.600   0.872  13.507 -0.6222  2.2980  0.9004
 3475TIP3    H231917   4.699   0.773  13.562  0.6459  1.4391 -2.7789
 3476TIP3   OH231918   5.423   2.854  12.579  0.3297 -0.5450 -0.3452
 3476TIP3    H131919   5.437   2.914  12.652 -0.4487 -2.1773  1.2010
 3476TIP3    H231920   5.510   2.838  12.543  0.3911  2.5121 -1.6387
 3477TIP3   OH231921   4.082   3.888  12.861  0.2080  0.3146  0.2780
 3477TIP3    H131922   4.166   3.923  12.890  0.6305 -1.1460  0.8739
 3477TIP3    H231923   4.045   3.846  12.939 -0.3899 -0.3496 -0.3592
 3478TIP3   OH231924   3.059   6.756   2.745 -0.5957 -0.0453 -0.4539
 3478TIP3    H131925   2.989   6.703   2.706 -1.4822  0.7708 -0.0094
 3478TIP3    H231926   3.012   6.826   2.791  0.5068  0.2110  0.2918
 3479TIP3   OH231927   0.952   1.945   1.420  0.6630  0.0029  0.2008
 3479TIP3    H131928   0.883   1.880   1.409 -0.3395  0.4118  3.5416
 3479TIP3    H231929   1.002   1.913   1.495  1.9917  1.5471 -0.0087
 3480TIP3   OH231930   2.655   1.085  16.462  0.2887 -0.0628 -0.0545
 3480TIP3    H131931   2.739   1.129  16.474 -0.7560  1.6065  1.3451
 3480TIP3    H231932   2.648   1.025  16.536 -0.3788  0.8418  0.6256
 3481TIP3   OH231933   3.892   0.640  15.894 -0.2954 -0.5338  1.0270
 3481TIP3    H131934   3.882   0.632  15.799 -0.1991 -1.7568  1.1157
 3481TIP3    H231935   3.868   0.730  15.913 -0.9207 -0.4628 -0.0798
 3482TIP3   OH231936   2.704   5.559   0.724  0.3505 -0.0923 -0.0087
 3482TIP3    H131937   2.723   5.485   0.667 -0.9632 -0.7194  0.3317
 3482TIP3    H231938   2.768   5.553   0.795  0.8145 -0.3812 -0.4588
 3483TIP3   OH231939   0.954   3.202  10.680 -0.1336  0.2669  0.3620
 3483TIP3    H131940   1.035   3.163  10.712  0.4932  0.4181 -0.9948
 3483TIP3    H231941   0.978   3.291  10.656 -0.5091  0.0840 -0.7479
 3484TIP3   OH231942   4.850   0.434  14.407  0.0632 -0.0430  0.7062
 3484TIP3    H131943   4.944   0.455  14.410 -0.2785  1.7517 -0.2293
 3484TIP3    H231944   4.836   0.399  14.319 -0.4400  1.3240  0.2228
 3485TIP3   OH231945   1.524   5.060   5.614 -0.3393  0.0483 -0.1205
 3485TIP3    H131946   1.612   5.068   5.575 -0.4575 -2.3333 -0.9250
 3485TIP3    H231947   1.533   5.100   5.701  1.3961  0.3137 -0.4010
 3486TIP3   OH231948   6.590   5.065   1.082 -0.0861 -0.2885 -0.3124
 3486TIP3    H131949   6.556   5.154   1.078 -1.6058 -0.7858  1.1816
 3486TIP3    H231950   6.685   5.076   1.081 -0.2525  1.3538 -0.0322
 3487TIP3   OH231951   4.715   3.736  12.125  0.0513  0.5434 -0.4048
 3487TIP3    H131952   4.747   3.812  12.173  0.1783 -0.5620  1.3203
 3487TIP3    H231953   4.737   3.754  12.033  0.1164  2.5451 -0.0192
 3488TIP3   OH231954   0.968   4.520   0.112  0.3420  0.0580 -0.3399
 3488TIP3    H131955   0.989   4.438   0.068 -0.0540  0.2452 -0.9001
 3488TIP3    H231956   0.905   4.496   0.180 -1.1682  0.1297 -1.6700
 3489TIP3   OH231957   2.140   2.385  14.819  0.4188  0.1193  0.6452
 3489TIP3    H131958   2.126   2.293  14.839  1.3122 -0.1011  0.2662
 3489TIP3    H231959   2.111   2.432  14.897 -1.4430 -0.3877  0.2794
 3490TIP3   OH231960   5.356   3.021  16.473  0.0443  0.0462 -0.4364
 3490TIP3    H131961   5.269   2.994  16.503  0.1447 -0.5056 -0.6275
 3490TIP3    H231962   5.358   2.995  16.381  0.3418  0.2388 -0.4829
 3491TIP3   OH231963   5.035   0.353  15.193 -0.5541 -0.0968  0.2356
 3491TIP3    H131964   5.047   0.324  15.103  1.3627  1.0697  0.0925
 3491TIP3    H231965   5.051   0.274  15.246  0.9623 -0.1774 -0.3289
 3492TIP3   OH231966   1.637   0.311   5.250  0.1226  0.2179 -0.0175
 3492TIP3    H131967   1.678   0.232   5.215 -0.0876 -0.2825  0.8317
 3492TIP3    H231968   1.663   0.381   5.191 -0.0328 -0.5643 -1.0216
 3493TIP3   OH231969   3.869   6.407  15.618  0.5418  0.0641 -0.2527
 3493TIP3    H131970   3.926   6.361  15.680 -1.5199 -0.7150  1.1098
 3493TIP3    H231971   3.882   6.500  15.638  2.3761 -0.0242 -0.9222
 3494TIP3   OH231972   2.179   6.790  14.407  0.1622 -0.1777 -0.4182
 3494TIP3    H131973   2.259   6.842  14.398  0.1828 -0.3104 -0.9825
 3494TIP3    H231974   2.159   6.760  14.319 -0.5983 -0.0163 -0.3073
 3495TIP3   OH231975   1.332   2.398   0.667 -0.1379 -0.0875  0.1755
 3495TIP3    H131976   1.420   2.382   0.700  0.1039  0.7984 -0.0337
 3495TIP3    H231977   1.324   2.493   0.662 -1.3972 -0.1406  0.9541
 3496TIP3   OH231978   5.793   6.534  11.898 -0.2220 -0.0091  0.0902
 3496TIP3    H131979   5.727   6.593  11.862 -0.2817  0.2762  0.6640
 3496TIP3    H231980   5.862   6.532  11.831  0.9494  2.6999  1.1661
 3497TIP3   OH231981   3.703   6.573   4.217 -0.9467  0.2442  0.1578
 3497TIP3    H131982   3.702   6.481   4.189 -2.0991 -0.1885  1.5386
 3497TIP3    H231983   3.682   6.569   4.311  1.7635  1.7002  0.8746
 3498TIP3   OH231984   1.983   5.096  16.045  0.1468  0.2553  0.7723
 3498TIP3    H131985   2.076   5.105  16.069  0.3352  0.8543 -0.1429
 3498TIP3    H231986   1.958   5.183  16.014 -0.9161  0.2627  1.6426
 3499TIP3   OH231987   1.723   3.243   6.132  0.0910  0.3878  0.2755
 3499TIP3    H131988   1.812   3.257   6.099  0.9981 -2.0967  1.5741
 3499TIP3    H231989   1.697   3.158   6.095 -1.4903  0.7754  0.4742
 3500TIP3   OH231990   1.720   1.150  12.753 -0.5189 -0.1481 -0.2482
 3500TIP3    H131991   1.746   1.093  12.680  0.5048  0.2809 -0.2190
 3500TIP3    H231992   1.669   1.220  12.712  1.4052  0.9713 -0.7645
 3501TIP3   OH231993   0.873   1.978   1.935 -0.1706 -0.4472  0.4371
 3501TIP3    H131994   0.852   1.897   1.888 -0.2718 -1.2403  1.8301
 3501TIP3    H231995   0.843   1.963   2.025  1.1005  0.6020  1.0596
 3502TIP3   OH231996   3.759   1.519  12.543 -0.9713  0.4004 -0.0379
 3502TIP3    H131997   3.709   1.519  12.462 -0.7279 -2.4726 -0.2340
 3502TIP3    H231998   3.769   1.427  12.566  0.5343  1.0776  2.2994
 3503TIP3   OH231999   6.392   5.797   5.981 -0.1191 -0.1320 -0.2561
 3503TIP3    H132000   6.379   5.702   5.980  1.4440 -0.3732  0.6499
 3503TIP3    H232001   6.379   5.823   6.072 -1.1247  0.6249 -0.6012
 3504TIP3   OH232002   4.603   0.252  15.438  0.2263  0.3091  0.1529
 3504TIP3    H132003   4.595   0.305  15.359  0.7727  2.2579  1.3670
 3504TIP3    H232004   4.697   0.250  15.456  0.2541 -1.4965 -0.1567
 3505TIP3   OH232005   0.047   2.188  16.023 -0.6834  0.2505  0.0407
 3505TIP3    H132006   0.139   2.206  16.041 -0.0276 -2.4754 -0.4222
 3505TIP3    H232007   0.005   2.190  16.109 -0.1209  1.1107  0.2998
 3506TIP3   OH232008   0.055   2.891   5.185  0.4533  0.1959  0.0742
 3506TIP3    H132009   0.066   2.974   5.139 -0.5958  0.3485  0.0856
 3506TIP3    H232010   0.142   2.851   5.184  1.1478  1.6401  0.7544
 3507TIP3   OH232011   4.540   2.799   2.710  0.4811 -0.2924 -0.3879
 3507TIP3    H132012   4.631   2.790   2.737  0.5619 -0.3365 -0.6743
 3507TIP3    H232013   4.493   2.818   2.791  0.6547 -0.9128 -0.1377
 3508TIP3   OH232014   5.426   6.454  12.500  0.5000  0.3975  0.2378
 3508TIP3    H132015   5.520   6.453  12.520  0.3999  2.9193  1.0214
 3508TIP3    H232016   5.386   6.409  12.575  1.0671 -0.4719  0.0213
 3509TIP3   OH232017   0.318   6.768   1.491 -0.5830  0.3866  0.4202
 3509TIP3    H132018   0.395   6.818   1.466 -0.3501  0.2518  0.8644
 3509TIP3    H232019   0.351   6.682   1.515 -0.8585  0.3552  0.6992
 3510TIP3   OH232020   1.802   6.445   6.154 -0.5455  0.4145 -0.8351
 3510TIP3    H132021   1.867   6.381   6.181 -1.4337  0.5916  1.9082
 3510TIP3    H232022   1.721   6.395   6.145 -0.7862  0.7846 -0.7725
 3511TIP3   OH232023   4.480   2.862  13.277  0.0817 -0.0610 -0.6237
 3511TIP3    H132024   4.535   2.791  13.309 -1.5178 -0.5289  1.2015
 3511TIP3    H232025   4.393   2.822  13.268 -0.4396  1.1967 -1.3618
 3512TIP3   OH232026   1.014   2.703   4.804 -0.0015 -0.6807 -0.6976
 3512TIP3    H132027   1.101   2.669   4.781  1.0240  0.5544  1.2158
 3512TIP3    H232028   0.975   2.634   4.858  0.5098 -0.5113 -0.0966
 3513TIP3   OH232029   2.698   2.624   2.519  0.4404 -0.1501 -0.1357
 3513TIP3    H132030   2.730   2.689   2.456 -2.0657  2.0870  0.8100
 3513TIP3    H232031   2.634   2.572   2.469 -0.2762  0.5146  0.0793
 3514TIP3   OH232032   3.004   6.292  14.583  0.3397  0.2305 -0.2741
 3514TIP3    H132033   2.998   6.238  14.661 -0.8288  1.9812  0.8694
 3514TIP3    H232034   3.097   6.313  14.575  0.7902 -1.8112 -0.6640
 3515TIP3   OH232035   1.678   3.476   5.798  0.3238  0.2660  0.0658
 3515TIP3    H132036   1.639   3.535   5.733 -1.7479 -1.2847 -0.1440
 3515TIP3    H232037   1.667   3.388   5.761 -1.5264 -0.7165  2.7878
 3516TIP3   OH232038   5.474   1.549   4.861 -0.1939  0.2029 -0.0767
 3516TIP3    H132039   5.468   1.460   4.826 -0.2758  0.5359 -0.9263
 3516TIP3    H232040   5.411   1.599   4.808  0.0713  0.8256  0.1997
 3517TIP3   OH232041   1.111   2.515   2.725  0.3880  0.5308  0.3893
 3517TIP3    H132042   1.097   2.583   2.659 -0.9617 -0.2808 -0.1675
 3517TIP3    H232043   1.030   2.514   2.776  0.3471 -0.7442  0.3123
 3518TIP3   OH232044   4.325   5.167   0.253 -0.5860 -0.4515  0.4830
 3518TIP3    H132045   4.409   5.123   0.259  0.2901  1.3504  1.8619
 3518TIP3    H232046   4.311   5.179   0.159  0.9652 -0.2460  0.2708
 3519TIP3   OH232047   6.266   5.189  12.363  0.1057  0.3456 -0.2158
 3519TIP3    H132048   6.236   5.280  12.360 -0.0864  0.3576  1.5914
 3519TIP3    H232049   6.196   5.143  12.410  1.7737 -0.0823  1.9118
 3520TIP3   OH232050   2.135   0.010   4.630  0.1865 -0.3622  0.1972
 3520TIP3    H132051   2.077  -0.035   4.691  0.6909 -1.8219 -0.3908
 3520TIP3    H232052   2.075   0.050   4.566 -0.1978 -1.3423 -0.0574
 3521TIP3   OH232053   0.575   3.277   6.111  0.0792  0.1625 -0.3363
 3521TIP3    H132054   0.609   3.269   6.023  1.7235 -0.1697  0.3193
 3521TIP3    H232055   0.573   3.371   6.128  2.5002  0.1165  0.3124
 3522TIP3   OH232056   4.395   1.868  13.899 -1.0121  0.1030 -0.4800
 3522TIP3    H132057   4.436   1.811  13.834  0.0509  0.6040 -0.2593
 3522TIP3    H232058   4.332   1.812  13.944  0.3687 -1.0173  0.0573
 3523TIP3   OH232059   4.539   0.313  16.585 -0.2398 -0.9772 -0.2986
 3523TIP3    H132060   4.626   0.298  16.548 -0.0546 -1.5371  0.3595
 3523TIP3    H232061   4.535   0.408  16.597  0.1775 -0.9188 -0.5973
 3524TIP3   OH232062   2.400   5.334   4.246  0.1610  0.4662  0.0182
 3524TIP3    H132063   2.474   5.319   4.306 -0.3012  2.0224  1.0030
 3524TIP3    H232064   2.394   5.429   4.240  0.6186  0.3332 -3.0613
 3525TIP3   OH232065   2.026   2.439   4.055  0.3039  0.1810 -0.6086
 3525TIP3    H132066   1.945   2.395   4.030  1.2006 -1.7254 -0.2544
 3525TIP3    H232067   2.000   2.499   4.125 -0.6922 -0.9522  0.0127
 3526TIP3   OH232068   6.035   1.731   0.110  1.0518 -0.1903 -0.3946
 3526TIP3    H132069   6.003   1.730   0.200  2.2832  2.7999  0.1183
 3526TIP3    H232070   5.966   1.776   0.060  2.3778  2.3103 -0.0665
 3527TIP3   OH232071   5.641   1.338   1.649  0.1536 -0.5084  0.5904
 3527TIP3    H132072   5.577   1.375   1.710  1.5469  0.3647  1.5515
 3527TIP3    H232073   5.625   1.244   1.651 -0.7241 -0.3468  1.2573
 3528TIP3   OH232074   0.953   6.476  14.033  0.2437  0.3966 -0.6144
 3528TIP3    H132075   0.943   6.544  14.100 -0.4887  0.4802 -0.8026
 3528TIP3    H232076   1.015   6.414  14.071  0.7884  1.0875 -0.3749
 3529TIP3   OH232077   3.994   1.667   2.291  0.4861  0.1228  0.1089
 3529TIP3    H132078   4.047   1.624   2.359  0.8865 -1.3073 -1.0546
 3529TIP3    H232079   3.905   1.636   2.307  0.4201  0.5491  0.5640
 3530TIP3   OH232080   2.696   0.270  13.479 -0.5257 -0.4950  0.4025
 3530TIP3    H132081   2.770   0.210  13.482 -0.4316 -0.4164 -0.2553
 3530TIP3    H232082   2.715   0.335  13.547  0.8378  0.4604 -0.8450
 3531TIP3   OH232083   2.183   5.186   1.566  0.1388  0.1433  0.1870
 3531TIP3    H132084   2.161   5.146   1.481  2.2817  2.9250 -1.8097
 3531TIP3    H232085   2.235   5.119   1.610  0.1413 -0.8735 -1.2893
 3532TIP3   OH232086   2.425   6.539   2.592 -0.2260  0.2615  0.8723
 3532TIP3    H132087   2.521   6.543   2.596 -0.1258 -2.1873  1.5164
 3532TIP3    H232088   2.403   6.587   2.512  1.5436  0.7698  0.6604
 3533TIP3   OH232089   4.032   5.611  16.013 -0.5119  0.3238  0.0539
 3533TIP3    H132090   3.995   5.643  15.930 -0.1320  0.0764 -0.2139
 3533TIP3    H232091   3.985   5.529  16.030 -1.3029  0.8861  0.6025
 3534TIP3   OH232092   2.873   3.117   2.265  0.2475  0.0785  0.6413
 3534TIP3    H132093   2.779   3.108   2.250  0.5064 -2.3353  0.2175
 3534TIP3    H232094   2.880   3.150   2.354 -1.0436  2.9570 -0.2785
 3535TIP3   OH232095   3.031   2.973  14.962  0.5090  0.2694  0.4984
 3535TIP3    H132096   2.976   3.047  14.936 -1.3349 -1.6046 -1.0711
 3535TIP3    H232097   3.070   2.942  14.881  0.8224 -0.8250  1.0573
 3536TIP3   OH232098   2.749   3.072  13.667 -0.0620 -0.8213  0.1176
 3536TIP3    H132099   2.761   3.167  13.670 -1.9685 -0.5904  1.1246
 3536TIP3    H232100   2.772   3.047  13.578  1.7551  0.3964  0.2278
 3537TIP3   OH232101   2.431   5.506   5.776  0.0130  0.1116  0.2989
 3537TIP3    H132102   2.475   5.589   5.792 -0.3023  0.3511 -0.0477
 3537TIP3    H232103   2.362   5.501   5.842 -0.1650  0.2729  0.1263
 3538TIP3   OH232104   3.133   4.558  16.623  0.1862 -0.1116 -0.0112
 3538TIP3    H132105   3.116   4.546  16.530 -0.0979  1.5757 -0.1862
 3538TIP3    H232106   3.222   4.524  16.635 -0.2301 -1.4528 -0.6587
 3539TIP3   OH232107   1.622   4.633  16.598 -0.4867  0.8493 -0.7079
 3539TIP3    H132108   1.638   4.593  16.684 -2.1099  0.8441 -0.4034
 3539TIP3    H232109   1.649   4.565  16.536 -1.5958 -0.0831 -0.1905
 3540TIP3   OH232110   5.436   5.631  16.798 -0.2948 -0.1150 -0.0964
 3540TIP3    H132111   5.362   5.607  16.742  0.8355 -1.6768 -0.9925
 3540TIP3    H232112   5.492   5.686  16.743  1.8046 -3.2490 -1.2841
 3541TIP3   OH232113   0.765   2.629  16.014  0.0066  0.8671  0.1141
 3541TIP3    H132114   0.841   2.589  15.974 -0.2055  0.5964 -0.0205
 3541TIP3    H232115   0.801   2.684  16.084  0.3759  1.4338 -0.5244
 3542TIP3   OH232116   0.723   5.137   0.631  0.8562  0.4713  0.6103
 3542TIP3    H132117   0.720   5.228   0.660 -1.1776 -0.0241  2.0871
 3542TIP3    H232118   0.736   5.087   0.711 -0.9844 -0.7043  0.2089
 3543TIP3   OH232119   1.358   0.976  12.138 -0.6895 -0.1753 -0.3729
 3543TIP3    H132120   1.410   1.034  12.194  2.2648  1.4463 -4.5293
 3543TIP3    H232121   1.412   0.898  12.128 -0.5197  0.1432 -2.0530
 3544TIP3   OH232122   3.650   4.622  16.643  0.2185 -0.3746 -0.1969
 3544TIP3    H132123   3.640   4.625  16.548 -0.4239 -1.1029 -0.1526
 3544TIP3    H232124   3.631   4.712  16.671  1.1851  0.0378 -0.8214
 3545TIP3   OH232125   1.139   5.453   3.524 -0.3111 -0.9532  0.0849
 3545TIP3    H132126   1.115   5.361   3.517 -2.7698 -0.2528 -1.5335
 3545TIP3    H232127   1.158   5.467   3.616  3.1478 -3.7488 -0.0920
 3546TIP3   OH232128   1.579   2.444  13.023  0.7211 -0.1876 -0.2093
 3546TIP3    H132129   1.625   2.523  13.052  2.2811 -0.9229 -0.6714
 3546TIP3    H232130   1.539   2.410  13.103 -0.1172  1.1464 -0.0315
 3547TIP3   OH232131   2.497   2.134   7.186 -0.0677  0.5019 -0.1808
 3547TIP3    H132132   2.473   2.046   7.156 -1.0971  0.9680 -0.7515
 3547TIP3    H232133   2.576   2.156   7.136 -0.5729  0.4352 -1.0156
 3548TIP3   OH232134   6.521   0.865   4.642  0.0641 -0.0983  0.0346
 3548TIP3    H132135   6.575   0.920   4.584 -0.6881  0.8168  0.1819
 3548TIP3    H232136   6.580   0.840   4.712  0.4434  0.4910 -0.0635
 3549TIP3   OH232137   3.716   3.296   1.381 -0.3442 -0.1757  0.1217
 3549TIP3    H132138   3.669   3.214   1.397  0.5047 -0.5141  0.9342
 3549TIP3    H232139   3.808   3.271   1.378 -0.1687  0.5510 -1.0216
 3550TIP3   OH232140   3.817   2.414   4.309 -0.2471  0.3246 -0.1023
 3550TIP3    H132141   3.723   2.427   4.321 -0.3594  0.2890 -0.9570
 3550TIP3    H232142   3.856   2.443   4.392 -0.7051  3.4768 -0.9467
 3551TIP3   OH232143   2.274   6.556   0.142  0.0402 -1.4788 -0.1684
 3551TIP3    H132144   2.305   6.545   0.232  0.9241 -0.4514 -0.3299
 3551TIP3    H232145   2.353   6.547   0.088 -0.1168 -0.0734 -0.6757
 3552TIP3   OH232146   1.719   0.479  11.419  0.1364 -0.3837  0.0640
 3552TIP3    H132147   1.711   0.463  11.513  1.7164  1.3066  0.5154
 3552TIP3    H232148   1.704   0.393  11.379 -3.8030 -0.5286  1.6150
 3553TIP3   OH232149   3.855   4.103  15.205 -0.6208 -0.2012 -0.1285
 3553TIP3    H132150   3.764   4.125  15.226 -0.1200  1.1233  0.6918
 3553TIP3    H232151   3.903   4.114  15.287  0.7661  1.8170 -1.1555
 3554TIP3   OH232152   3.702   1.444  14.078 -0.0213  0.1819  0.0045
 3554TIP3    H132153   3.699   1.399  13.993 -1.3456 -0.7217  0.5136
 3554TIP3    H232154   3.744   1.381  14.137  1.0048  0.8536 -0.0006
 3555TIP3   OH232155   3.332   3.574  14.948 -0.1582 -0.0998  0.0095
 3555TIP3    H132156   3.280   3.501  14.914 -1.6037  0.1481  1.6491
 3555TIP3    H232157   3.366   3.617  14.870 -1.6648 -0.8191 -1.0665
 3556TIP3   OH232158   0.818   4.144  15.059 -0.6851  0.1384 -0.0473
 3556TIP3    H132159   0.901   4.192  15.062 -0.0272 -1.0548  1.6549
 3556TIP3    H232160   0.781   4.153  15.147 -1.8696 -0.2071 -0.4928
 3557TIP3   OH232161   2.151   3.272   2.242 -0.1273  0.4696 -0.2353
 3557TIP3    H132162   2.233   3.259   2.194  0.2663  2.4817 -0.1789
 3557TIP3    H232163   2.177   3.270   2.334 -0.1533  0.9472 -0.2146
 3558TIP3   OH232164   6.094   1.849   1.590 -0.1342  0.6493  0.3287
 3558TIP3    H132165   6.031   1.857   1.517 -2.5735  2.4929  2.5303
 3558TIP3    H232166   6.158   1.918   1.573 -1.5199  2.0642  0.6328
 3559TIP3   OH232167   5.463   0.779  16.770 -1.0637  1.0585 -0.1546
 3559TIP3    H132168   5.444   0.861  16.816 -1.2781 -0.3466  2.3638
 3559TIP3    H232169   5.460   0.712  16.838 -0.7614 -1.0472 -2.1410
 3560TIP3   OH232170   0.087   1.446   4.356 -0.6043 -0.2614 -0.3423
 3560TIP3    H132171   0.141   1.525   4.356  0.3199 -0.8888  0.0101
 3560TIP3    H232172   0.069   1.429   4.264  0.4879 -0.5163 -0.5108
 3561TIP3   OH232173   1.749   4.743   1.054  0.0550 -0.3017 -0.2411
 3561TIP3    H132174   1.656   4.726   1.037  0.5175 -4.5553  1.0094
 3561TIP3    H232175   1.795   4.683   0.996  1.9499 -0.2083  1.1407
 3562TIP3   OH232176   1.287   5.593   4.901  0.0657  0.0640 -0.1654
 3562TIP3    H132177   1.198   5.623   4.886 -0.3403 -1.1595 -0.3092
 3562TIP3    H232178   1.297   5.593   4.996 -0.7177 -1.4997 -0.0612
 3563TIP3   OH232179   1.433   1.613   2.136 -0.2536  0.2335 -0.7099
 3563TIP3    H132180   1.378   1.553   2.086 -1.5302 -0.4036  1.3972
 3563TIP3    H232181   1.375   1.688   2.154  0.1696  0.4249 -0.1477
 3564TIP3   OH232182   3.073   1.272   3.115 -0.8458 -0.4023  1.0687
 3564TIP3    H132183   3.122   1.234   3.188  0.6184  1.0060  0.8322
 3564TIP3    H232184   2.987   1.230   3.120 -0.0912 -1.8561  2.3451
 3565TIP3   OH232185   0.695   1.228  11.773 -0.1317  0.2319 -0.4257
 3565TIP3    H132186   0.608   1.268  11.776  0.2242  1.1881 -2.1548
 3565TIP3    H232187   0.750   1.285  11.826  0.1654  1.5912 -2.1285
 3566TIP3   OH232188   1.116   5.923  16.877 -0.1359 -0.3361  0.1583
 3566TIP3    H132189   1.129   5.891  16.966 -0.5813  1.1083  0.7750
 3566TIP3    H232190   1.052   5.863  16.838  0.5552 -1.3552  0.5880
 3567TIP3   OH232191   0.021   3.927  16.585 -0.0470  0.8339  0.3050
 3567TIP3    H132192   0.082   3.923  16.658  0.1910  0.2709  0.0833
 3567TIP3    H232193   0.057   3.994  16.526  1.2556 -0.6337 -0.6198
 3568TIP3   OH232194   4.067   1.025  14.390  0.2278 -0.0666 -0.3864
 3568TIP3    H132195   4.160   1.003  14.392  0.2363  0.0149  2.3841
 3568TIP3    H232196   4.022   0.944  14.415 -0.3199  0.3955  0.1474
 3569TIP3   OH232197   1.982   3.435   0.165 -0.9747 -0.4104 -0.1505
 3569TIP3    H132198   2.024   3.389   0.092 -0.2689 -0.2308  0.1397
 3569TIP3    H232199   1.892   3.402   0.165 -0.1761 -2.6409  0.7638
 3570TIP3   OH232200   2.494   0.133  14.023  0.1194  0.0867 -0.2285
 3570TIP3    H132201   2.539   0.071  14.081  0.0111 -0.9320 -1.2031
 3570TIP3    H232202   2.451   0.195  14.082 -1.0057 -1.6523  0.8068
 3571TIP3   OH232203   4.489   5.149   4.959 -0.2183  0.3301 -0.0845
 3571TIP3    H132204   4.444   5.202   5.025 -1.1202  0.5153 -0.8359
 3571TIP3    H232205   4.531   5.213   4.902 -2.7323  0.3617 -2.0099
 3572TIP3   OH232206   4.621   5.434   5.581 -0.0357 -0.2065 -0.5329
 3572TIP3    H132207   4.694   5.450   5.641 -1.8314 -1.4125  2.0893
 3572TIP3    H232208   4.602   5.341   5.592 -2.4119  0.2442 -0.5923
 3573TIP3   OH232209   0.934   3.985  16.371 -0.0138  0.6998 -0.1666
 3573TIP3    H132210   1.021   4.019  16.395 -0.3671  1.7343 -0.2945
 3573TIP3    H232211   0.948   3.942  16.287 -0.0954  3.2103 -1.5384
 3574TIP3   OH232212   3.033   6.180   6.151 -0.4557 -0.2065 -0.4874
 3574TIP3    H132213   3.062   6.093   6.124 -0.7514  0.0727 -1.6970
 3574TIP3    H232214   2.967   6.162   6.219  2.5035 -0.8479  2.3838
 3575TIP3   OH232215   4.354   1.780  12.194 -0.1265 -0.1498 -0.4560
 3575TIP3    H132216   4.443   1.805  12.220  0.0765 -2.6182  1.3453
 3575TIP3    H232217   4.300   1.852  12.226  0.9884  0.4001  0.2543
 3576TIP3   OH232218   2.418   1.051   0.029  0.1497 -0.2646  0.2755
 3576TIP3    H132219   2.387   0.972  -0.014 -0.9256  0.5145 -0.4140
 3576TIP3    H232220   2.476   1.092  -0.035 -0.6757  0.3873 -0.0800
 3577TIP3   OH232221   5.961   6.668  16.012  0.2145  0.4837  0.1095
 3577TIP3    H132222   6.029   6.605  15.986  2.7752  2.9116  0.6302
 3577TIP3    H232223   6.000   6.715  16.086 -1.1841  3.3410 -0.8888
 3578TIP3   OH232224   2.864   1.821   2.779 -0.4668  0.5405  0.2023
 3578TIP3    H132225   2.925   1.759   2.819 -0.8817 -1.1827 -1.8058
 3578TIP3    H232226   2.920   1.883   2.732 -0.2444 -1.9413 -2.9466
 3579TIP3   OH232227   5.051   6.423   3.874 -0.0963  0.8454  0.0582
 3579TIP3    H132228   4.963   6.451   3.849 -0.8523 -1.6718 -0.3171
 3579TIP3    H232229   5.093   6.400   3.791  0.6083  1.2262  0.3111
 3580TIP3   OH232230   3.735   0.335   3.454  0.1701 -0.3317 -0.7849
 3580TIP3    H132231   3.805   0.305   3.397  1.2179  0.2934  0.1537
 3580TIP3    H232232   3.760   0.305   3.541 -1.0363 -0.6279 -0.5244
 3581TIP3   OH232233   1.028   5.935  14.862 -0.0764  0.0139  0.1791
 3581TIP3    H132234   0.935   5.926  14.884  0.1489 -2.5070  0.1425
 3581TIP3    H232235   1.052   5.852  14.821  2.0829  0.8259 -0.2735
 3582TIP3   OH232236   6.308   1.852  12.387 -0.0492  0.3508 -0.4804
 3582TIP3    H132237   6.294   1.865  12.481  1.7711  1.0212 -0.2775
 3582TIP3    H232238   6.310   1.940  12.351 -0.1245  0.1189 -1.0567
 3583TIP3   OH232239   0.357   5.821  11.955  0.3025 -0.2551  0.3857
 3583TIP3    H132240   0.369   5.889  12.021 -0.6291  1.4544 -1.1744
 3583TIP3    H232241   0.434   5.828  11.899 -0.8044  0.9861 -1.0333
 3584TIP3   OH232242   1.222   6.458  14.427 -0.0328  0.4037 -0.0349
 3584TIP3    H132243   1.147   6.492  14.476  0.4727  0.0801  0.9719
 3584TIP3    H232244   1.223   6.364  14.447 -0.3722  0.0982 -1.3999
 3585TIP3   OH232245   2.728   6.646   4.987  0.3648 -0.1508  0.3073
 3585TIP3    H132246   2.706   6.591   4.912  0.7775  0.8401 -0.5665
 3585TIP3    H232247   2.802   6.699   4.957 -1.8391  2.9424  0.0772
 3586TIP3   OH232248   6.248   6.811   2.375 -0.4464  0.2360  0.4155
 3586TIP3    H132249   6.279   6.721   2.380 -1.8802 -0.3481 -0.7483
 3586TIP3    H232250   6.305   6.860   2.435 -0.4227 -1.6475  1.9755
 3587TIP3   OH232251   1.106   3.537   5.087  0.0962 -0.1079 -0.4095
 3587TIP3    H132252   1.174   3.539   5.154 -0.0460 -0.6358 -0.2500
 3587TIP3    H232253   1.135   3.469   5.026  0.4001  0.6084 -1.0656
 3588TIP3   OH232254   5.117   4.782  15.615  1.6131  0.2355 -0.6028
 3588TIP3    H132255   5.109   4.700  15.664  0.5507  1.0787  0.6736
 3588TIP3    H232256   5.027   4.807  15.595  1.8727  1.5867 -0.1350
 3589TIP3   OH232257   6.626   2.649   5.815 -0.3882  0.5458 -0.0693
 3589TIP3    H132258   6.538   2.681   5.796 -0.5602  2.0630  3.0865
 3589TIP3    H232259   6.614   2.580   5.880  0.7339  0.4104  0.0118
 3590TIP3   OH232260   1.763   6.378  12.641  0.2914 -0.2073  0.5713
 3590TIP3    H132261   1.714   6.296  12.641  0.2784 -0.2206 -1.0880
 3590TIP3    H232262   1.697   6.446  12.651 -0.0395 -0.2513 -1.1748
 3591TIP3   OH232263   3.002   4.037  15.495  0.4496 -0.3785 -0.3851
 3591TIP3    H132264   2.963   4.016  15.579 -0.0128  0.5164 -0.3642
 3591TIP3    H232265   2.952   3.986  15.431 -1.5705  1.6323 -0.4864
 3592TIP3   OH232266   2.749   2.172  12.679 -0.1936 -0.0539 -0.2042
 3592TIP3    H132267   2.839   2.188  12.708  0.3712  0.5121 -2.1870
 3592TIP3    H232268   2.695   2.196  12.755  1.2026  1.8465  0.2388
 3593TIP3   OH232269   0.375   4.342   0.188  0.2424 -0.1325  0.7044
 3593TIP3    H132270   0.350   4.253   0.164  2.2193 -0.2417 -1.0543
 3593TIP3    H232271   0.345   4.352   0.279 -1.6236 -1.9291  0.3101
 3594TIP3   OH232272   1.369   1.111   2.257  0.1689 -0.0269 -0.3105
 3594TIP3    H132273   1.298   1.176   2.253 -0.8635 -1.1739 -0.8255
 3594TIP3    H232274   1.437   1.154   2.309 -0.9701  1.0354  0.3477
 3595TIP3   OH232275   5.599   0.405   5.132 -0.0476  0.1963 -0.9189
 3595TIP3    H132276   5.586   0.427   5.040  0.0669  1.5631 -0.6105
 3595TIP3    H232277   5.686   0.439   5.153  0.4575 -1.2303 -0.6386
 3596TIP3   OH232278   5.052   3.051   2.469 -0.5213  0.2642 -0.4432
 3596TIP3    H132279   5.142   3.042   2.439 -0.2704 -0.2387  0.4381
 3596TIP3    H232280   5.057   3.113   2.542 -0.6211 -1.0664  0.7211
 3597TIP3   OH232281   2.448   6.717  13.680 -0.2209 -0.0662 -0.4112
 3597TIP3    H132282   2.534   6.746  13.710  0.0205 -3.0355  2.1528
 3597TIP3    H232283   2.466   6.636  13.632 -1.5620 -1.0328  0.6617
 3598TIP3   OH232284   0.827   6.775   6.662  0.0334  0.7772  0.1176
 3598TIP3    H132285   0.736   6.745   6.668  0.6982 -1.5078 -0.8746
 3598TIP3    H232286   0.823   6.848   6.600 -0.9435 -0.1759 -0.9766
 3599TIP3   OH232287   3.601   0.373   0.722  0.4797  0.5434  0.3952
 3599TIP3    H132288   3.678   0.318   0.737  0.4538  0.1589 -0.8810
 3599TIP3    H232289   3.544   0.356   0.797 -0.5237 -2.8203 -1.0658
 3600TIP3   OH232290   0.978   1.982   3.773 -0.6553 -0.2021  0.4350
 3600TIP3    H132291   1.068   1.972   3.745 -0.4712 -2.7786  1.7028
 3600TIP3    H232292   0.964   2.076   3.782  0.8959  0.3715 -2.8565
 3601TIP3   OH232293   4.489   6.110  10.684  0.1633  0.8714  0.4827
 3601TIP3    H132294   4.479   6.204  10.696 -0.9829  1.0633 -1.7355
 3601TIP3    H232295   4.567   6.101  10.628 -0.4231  0.5819 -0.2935
 3602TIP3   OH232296   2.754   4.868   5.536  0.3443  0.0895  0.1973
 3602TIP3    H132297   2.846   4.891   5.528  0.3179 -0.1573 -0.9142
 3602TIP3    H232298   2.753   4.774   5.556  0.3710  0.4438  1.9586
 3603TIP3   OH232299   5.958   6.793  11.654 -0.3963  0.0881 -0.4810
 3603TIP3    H132300   5.993   6.779  11.742  0.3712 -0.8495 -0.9317
 3603TIP3    H232301   5.882   6.735  11.649 -0.8473  0.6488 -0.2024
 3604TIP3   OH232302   5.331   1.790  12.484  0.1485 -0.6795 -0.0078
 3604TIP3    H132303   5.289   1.708  12.508  1.7998 -1.5006  0.1452
 3604TIP3    H232304   5.374   1.820  12.564 -0.5790  0.4271 -0.0201
 3605TIP3   OH232305   6.612   1.973  14.524 -0.3067  0.4049 -0.2231
 3605TIP3    H132306   6.631   2.027  14.601  1.3180 -0.7437  0.2131
 3605TIP3    H232307   6.577   1.891  14.561 -0.0728  0.0747 -0.7234
 3606TIP3   OH232308   0.274   5.674  12.763  0.1662 -0.7722 -0.7733
 3606TIP3    H132309   0.180   5.686  12.752  0.4434  0.6396 -1.6881
 3606TIP3    H232310   0.282   5.624  12.845 -1.2833  0.7828  0.3444
 3607TIP3   OH232311   0.257   0.001  16.571  0.5954  0.4159  0.1027
 3607TIP3    H132312   0.313   0.064  16.617  1.4875 -0.7303  0.6044
 3607TIP3    H232313   0.240  -0.068  16.636  0.3166 -0.2781 -0.7030
 3608TIP3   OH232314   5.363   3.830  14.678  0.1261 -0.1345  0.1259
 3608TIP3    H132315   5.388   3.847  14.587 -0.9890  1.2811  0.0624
 3608TIP3    H232316   5.312   3.749  14.674  0.5795 -0.3953 -0.4153
 3609TIP3   OH232317   3.674   5.103  15.206  0.1662 -0.0532  0.5549
 3609TIP3    H132318   3.630   5.076  15.125 -1.7666 -0.9785  1.8741
 3609TIP3    H232319   3.712   5.022  15.241  2.4645  0.6305 -0.2521
 3610TIP3   OH232320   5.653   6.787  12.522 -0.2851  0.1020 -0.2064
 3610TIP3    H132321   5.658   6.849  12.594 -0.4032 -0.6472  0.4459
 3610TIP3    H232322   5.622   6.839  12.448 -1.1662  0.6463  0.5389
 3611TIP3   OH232323   4.915   3.768  13.134  0.4339  0.0555 -0.0429
 3611TIP3    H132324   4.844   3.703  13.134 -0.9367  1.5356  0.4048
 3611TIP3    H232325   4.990   3.721  13.171 -0.9951 -0.8071  1.8706
 3612TIP3   OH232326   5.838   1.005  16.214  0.1457 -0.0511  1.3464
 3612TIP3    H132327   5.770   0.989  16.149 -0.6327  0.7928  1.9305
 3612TIP3    H232328   5.913   0.956  16.183 -0.3258  0.0551 -0.0040
 3613TIP3   OH232329   1.859   3.222  15.646 -0.3868 -0.2137 -0.1016
 3613TIP3    H132330   1.799   3.150  15.622 -1.6714  0.6724  0.3891
 3613TIP3    H232331   1.824   3.298  15.601 -1.3020  0.9219  2.4176
 3614TIP3   OH232332   3.526   3.767   2.389 -0.6448 -0.1518 -0.1146
 3614TIP3    H132333   3.604   3.730   2.349 -0.9704  1.5801 -2.4628
 3614TIP3    H232334   3.560   3.820   2.462  0.2271 -0.7588 -0.0677
 3615TIP3   OH232335   5.525   4.888   4.339 -0.1554 -0.1918 -0.2608
 3615TIP3    H132336   5.552   4.980   4.344  1.2456 -0.5330 -1.1703
 3615TIP3    H232337   5.550   4.851   4.424 -1.2616  0.4002  0.3322
 3616TIP3   OH232338   4.695   3.135   1.017 -0.0683  0.0287  0.1320
 3616TIP3    H132339   4.693   3.207   0.955  1.8905  1.0275  1.1708
 3616TIP3    H232340   4.654   3.062   0.971 -2.5064  1.8934 -0.7866
 3617TIP3   OH232341   6.459   6.247   4.630  0.2583 -0.2572  0.3470
 3617TIP3    H132342   6.498   6.181   4.572 -0.7840 -0.2445 -0.3674
 3617TIP3    H232343   6.513   6.325   4.617 -0.3269 -0.0857 -1.0339
 3618TIP3   OH232344   6.425   5.200  15.610 -0.5846 -0.4916 -0.2074
 3618TIP3    H132345   6.459   5.156  15.688  0.0273 -1.0660 -0.7976
 3618TIP3    H232346   6.334   5.220  15.632  0.0060  0.6876  1.2193
 3619TIP3   OH232347   6.189   5.181   0.470  0.4929  0.5495 -0.1090
 3619TIP3    H132348   6.213   5.216   0.556  1.3828  0.0592 -0.1574
 3619TIP3    H232349   6.237   5.236   0.407 -0.4183  1.1250 -0.3136
 3620TIP3   OH232350   3.831   4.182  11.924  0.1710  0.7031 -0.4044
 3620TIP3    H132351   3.738   4.192  11.942  0.4083 -0.1603  1.4232
 3620TIP3    H232352   3.861   4.114  11.985  2.2009  1.7308 -0.1784
 3621TIP3   OH232353   5.839   4.637  13.806 -0.3437  0.0178  0.5384
 3621TIP3    H132354   5.808   4.671  13.890  1.5644  0.0617  1.2446
 3621TIP3    H232355   5.924   4.597  13.826  1.0780  1.8036 -1.6965
 3622TIP3   OH232356   6.485   3.313  12.792  0.4493 -0.5394  0.6378
 3622TIP3    H132357   6.460   3.221  12.805 -0.1943 -1.0546 -3.4286
 3622TIP3    H232358   6.569   3.309  12.746  0.2138  0.9004  0.0538
 3623TIP3   OH232359   1.790   4.325   3.458 -0.0732  0.4560  0.6455
 3623TIP3    H132360   1.770   4.360   3.372  0.5975 -1.2429 -0.2270
 3623TIP3    H232361   1.843   4.393   3.500  1.3229  0.4516 -1.0593
 3624TIP3   OH232362   4.329   6.462  14.213  0.3064 -0.0772 -0.4906
 3624TIP3    H132363   4.417   6.450  14.250 -0.1805  1.0573  1.0732
 3624TIP3    H232364   4.344   6.504  14.128  1.3207 -0.5998 -0.5746
 3625TIP3   OH232365   6.297   2.967   2.015 -0.5344  0.2726  0.6804
 3625TIP3    H132366   6.219   2.915   1.991  0.8851  0.1121 -4.1308
 3625TIP3    H232367   6.348   2.909   2.071 -2.6898 -0.5304  1.8771
 3626TIP3   OH232368   0.692   6.013   5.415  0.5464 -0.2936 -0.1552
 3626TIP3    H132369   0.692   6.021   5.510  3.4088  0.6020 -0.1999
 3626TIP3    H232370   0.600   5.998   5.393 -0.2325 -0.0335  2.6902
 3627TIP3   OH232371   2.939   5.401  15.618  0.3180  0.7395  0.2522
 3627TIP3    H132372   3.022   5.354  15.621 -0.9984 -1.6864 -0.6888
 3627TIP3    H232373   2.913   5.410  15.710  1.3438  1.0514  0.5202
 3628TIP3   OH232374   3.122   3.161  14.729 -0.3792  0.1942 -0.2361
 3628TIP3    H132375   3.051   3.205  14.776 -1.5173 -0.8785 -0.9068
 3628TIP3    H232376   3.199   3.174  14.785 -0.9120  2.0854  0.0950
 3629TIP3   OH232377   4.979   0.105   4.767  0.0774  0.4831 -0.8667
 3629TIP3    H132378   4.975   0.127   4.674  0.6686  0.8225 -0.8128
 3629TIP3    H232379   5.055   0.153   4.800  0.2745 -0.1698 -0.3487
 3630TIP3   OH232380   1.307   3.982   1.353  0.0769 -0.6482 -0.0214
 3630TIP3    H132381   1.303   3.936   1.269  0.1788  0.0586 -0.4140
 3630TIP3    H232382   1.249   4.058   1.341  1.7835  0.6531 -0.1887
 3631TIP3   OH232383   2.415   4.566   0.319  0.3638  0.2602 -0.2464
 3631TIP3    H132384   2.413   4.529   0.231 -0.8520 -0.2817  0.0014
 3631TIP3    H232385   2.381   4.497   0.375 -0.6716  1.2760  0.3892
 3632TIP3   OH232386   5.526   2.399  15.512  0.6092 -0.3992 -0.0902
 3632TIP3    H132387   5.513   2.348  15.592 -0.1263 -0.7067 -0.3936
 3632TIP3    H232388   5.463   2.362  15.450 -1.0009  1.8206  0.1286
 3633TIP3   OH232389   4.961   0.828  15.879 -0.4583  0.0234 -0.4731
 3633TIP3    H132390   4.908   0.788  15.810  0.1632 -1.0597 -0.3340
 3633TIP3    H232391   4.897   0.862  15.942 -1.0058 -0.0072 -1.0087
 3634TIP3   OH232392   6.740   5.073  12.602 -0.5461  0.1421 -0.2969
 3634TIP3    H132393   6.773   5.057  12.513 -0.8769  2.5183 -0.8822
 3634TIP3    H232394   6.648   5.097  12.589 -1.0045 -0.9609  0.8370
 3635TIP3   OH232395   2.143   2.472  14.089 -0.5378 -0.0415 -0.1333
 3635TIP3    H132396   2.154   2.544  14.152 -0.7633 -0.6821  0.6388
 3635TIP3    H232397   2.134   2.394  14.143 -2.9359 -0.3258 -0.8711
 3636TIP3   OH232398   4.656   1.136  11.264  0.6288  0.7464  0.0067
 3636TIP3    H132399   4.726   1.077  11.233 -1.4900 -2.3576  0.9208
 3636TIP3    H232400   4.610   1.161  11.185  1.9604  1.7834 -0.4657
 3637TIP3   OH232401   3.747   1.129  12.899  0.6007 -0.9017  0.6971
 3637TIP3    H132402   3.772   1.048  12.854 -0.2120 -1.4719  1.2498
 3637TIP3    H232403   3.708   1.099  12.981 -1.8664 -0.0577 -0.1349
 3638TIP3   OH232404   1.464   6.165   3.491  0.2412  0.3714  0.1382
 3638TIP3    H132405   1.393   6.229   3.483 -0.4896 -0.4857 -0.3752
 3638TIP3    H232406   1.504   6.162   3.404 -0.5514 -0.7997 -0.1975
 3639TIP3   OH232407   4.584   4.161  13.020  0.5053  0.0177 -0.4060
 3639TIP3    H132408   4.563   4.250  12.991  1.3780 -0.3335 -2.1935
 3639TIP3    H232409   4.604   4.113  12.940  1.3782 -1.4409  0.6394
 3640TIP3   OH232410   5.147   1.172   5.245 -0.0066 -0.2882 -0.6381
 3640TIP3    H132411   5.167   1.129   5.162 -1.6562  0.2023 -1.3154
 3640TIP3    H232412   5.075   1.232   5.224 -0.6757 -0.4052  1.2119
 3641TIP3   OH232413   2.499   4.452   1.300 -0.2787 -0.4760 -0.3662
 3641TIP3    H132414   2.557   4.379   1.281 -0.3104 -0.1359 -1.8298
 3641TIP3    H232415   2.554   4.514   1.348 -0.0969 -1.1896  0.3667
 3642TIP3   OH232416   1.462   0.586  15.798 -0.1325  0.5083  0.1682
 3642TIP3    H132417   1.404   0.550  15.865 -0.0556 -0.8093 -0.4656
 3642TIP3    H232418   1.520   0.646  15.846 -0.8315  0.4622  1.0877
 3643TIP3   OH232419   6.785   0.122  16.758  0.4757 -0.2996 -0.2456
 3643TIP3    H132420   6.775   0.146  16.666  2.0403 -2.0434 -0.8833
 3643TIP3    H232421   6.816   0.202  16.800 -2.1232  1.0887 -0.8377
 3644TIP3   OH232422   1.855   2.798   3.921  0.4308  0.1957  0.1569
 3644TIP3    H132423   1.842   2.705   3.904  1.2056  0.2094 -0.5484
 3644TIP3    H232424   1.777   2.841   3.885 -1.7876 -0.5127  3.9379
 3645TIP3   OH232425   1.319   5.943  15.268 -0.2708  0.9696  0.2027
 3645TIP3    H132426   1.393   6.003  15.281 -1.0569  1.2147  4.0786
 3645TIP3    H232427   1.243   6.000  15.260 -0.2909  0.6514 -1.9849
 3646TIP3   OH232428   5.517   0.551  11.798  0.4147  0.2184 -0.0148
 3646TIP3    H132429   5.542   0.620  11.736 -0.6730  0.1439 -0.5564
 3646TIP3    H232430   5.511   0.472  11.744 -0.1114  0.0654  0.2677
 3647TIP3   OH232431   4.410   5.485   2.966  0.2809 -0.1798 -0.0484
 3647TIP3    H132432   4.408   5.397   2.928 -2.2614  0.0661 -0.5442
 3647TIP3    H232433   4.321   5.501   2.995  0.7817  2.1318  0.3281
 3648TIP3   OH232434   4.822   2.247  10.639 -0.3431  0.4166 -0.3903
 3648TIP3    H132435   4.860   2.314  10.582  0.3047 -1.2474 -1.9500
 3648TIP3    H232436   4.884   2.240  10.712 -0.4346  1.5220 -0.1932
 3649TIP3   OH232437   0.671   1.817  14.242 -0.0453 -0.3901 -0.2041
 3649TIP3    H132438   0.743   1.848  14.295  0.1659 -0.6226 -0.3526
 3649TIP3    H232439   0.660   1.725  14.267 -0.2696 -0.3646 -0.2017
 3650TIP3   OH232440   4.545   0.578   2.753  1.0599 -0.1248 -0.2923
 3650TIP3    H132441   4.557   0.622   2.838 -1.1514 -0.1728  0.0738
 3650TIP3    H232442   4.560   0.647   2.688 -2.2734  1.2313  0.2797
 3651TIP3   OH232443   6.014   4.073  10.356  0.2721 -0.1818  0.2958
 3651TIP3    H132444   6.065   4.060  10.276 -0.9439  1.3754 -0.7687
 3651TIP3    H232445   6.046   4.006  10.416  3.0077  0.2566 -0.6030
 3652TIP3   OH232446   5.766   0.462   5.675 -0.3778 -0.0033  0.0479
 3652TIP3    H132447   5.762   0.381   5.624 -1.7578 -0.1426  0.3728
 3652TIP3    H232448   5.681   0.467   5.719  0.8349  0.0226  2.4617
 3653TIP3   OH232449   6.077   1.584  12.796 -0.2689  0.6535  0.1618
 3653TIP3    H132450   6.084   1.513  12.732 -2.0689  0.2624  0.3626
 3653TIP3    H232451   5.990   1.621  12.781 -0.3807  1.1011  1.8016
 3654TIP3   OH232452   0.072   6.040  15.572  0.2785 -0.2416 -0.1394
 3654TIP3    H132453   0.050   5.957  15.529  1.5747 -0.6473 -0.0573
 3654TIP3    H232454   0.144   6.018  15.632 -0.7317  0.5510  1.3923
 3655TIP3   OH232455   4.951   3.196  13.010  0.1900 -0.5626 -0.2684
 3655TIP3    H132456   4.882   3.206  13.075  0.2937 -0.1549 -0.2233
 3655TIP3    H232457   5.006   3.126  13.045 -1.6932 -2.7730 -1.6051
 3656TIP3   OH232458   5.203   3.942   5.102  0.2376 -0.0173 -0.1864
 3656TIP3    H132459   5.224   3.970   5.191 -1.8279 -0.7969  0.5709
 3656TIP3    H232460   5.142   4.008   5.070 -2.0922 -1.8188  0.4217
 3657TIP3   OH232461   5.085   2.804  16.285  0.1014  0.0758  0.3242
 3657TIP3    H132462   5.147   2.737  16.256  0.0935  0.9111 -1.7542
 3657TIP3    H232463   5.004   2.784  16.237  0.4408  2.1904 -1.2230
 3658TIP3   OH232464   5.950   3.430  10.807  0.3016  0.2829  0.3398
 3658TIP3    H132465   5.997   3.405  10.727 -1.0665  0.7173 -0.6299
 3658TIP3    H232466   5.986   3.374  10.875 -0.3506 -2.0064 -1.1284
 3659TIP3   OH232467   5.813   6.384   0.573  0.2765  0.1705 -0.2132
 3659TIP3    H132468   5.869   6.388   0.495  0.9875 -0.3938  0.2618
 3659TIP3    H232469   5.849   6.312   0.625  0.3823  1.1634  1.0934
 3660TIP3   OH232470   4.851   0.381  14.138  0.6540  0.1601 -0.1372
 3660TIP3    H132471   4.780   0.317  14.140 -1.0092  1.9791  0.6493
 3660TIP3    H232472   4.880   0.383  14.046 -0.5111 -0.3756 -0.5129
 3661TIP3   OH232473   0.054   3.259   0.540  0.6153  0.0938 -0.3096
 3661TIP3    H132474   0.083   3.348   0.522  1.4116  0.4400  2.5209
 3661TIP3    H232475  -0.026   3.269   0.591  0.6872 -0.8022 -0.0016
 3662TIP3   OH232476   0.709   2.673   6.008  0.8122  0.4515 -0.2946
 3662TIP3    H132477   0.627   2.722   6.009 -0.2234 -1.2081 -0.8982
 3662TIP3    H232478   0.764   2.717   6.073 -0.3846  1.8609 -0.2023
 3663TIP3   OH232479   0.980   3.814   3.984  0.3223 -0.7260 -0.3869
 3663TIP3    H132480   0.921   3.752   4.027  2.0163 -0.5569  2.2958
 3663TIP3    H232481   0.956   3.899   4.021  0.2046 -0.2282 -1.5936
 3664TIP3   OH232482   0.783   2.569  16.566 -0.8652  0.4401  0.0693
 3664TIP3    H132483   0.826   2.485  16.552  0.8378  0.8292  2.5759
 3664TIP3    H232484   0.743   2.562  16.653  0.2609  2.5709  0.8040
 3665TIP3   OH232485   1.917   6.429   1.812  0.3006  0.1355 -0.4157
 3665TIP3    H132486   1.853   6.460   1.748  2.3781  1.5762 -1.8368
 3665TIP3    H232487   1.985   6.495   1.812  1.8247 -1.3880  1.0725
 3666TIP3   OH232488   0.259   5.090   5.207 -0.4627  0.1355  0.1808
 3666TIP3    H132489   0.262   5.001   5.240 -1.0523 -0.3968 -1.1671
 3666TIP3    H232490   0.225   5.082   5.118 -2.2597  1.8806  0.6699
 3667TIP3   OH232491   5.356   4.571   5.118  0.4018  0.1726  0.2146
 3667TIP3    H132492   5.397   4.622   5.049  0.5097 -0.1535  0.0348
 3667TIP3    H232493   5.379   4.480   5.098 -1.4225 -0.1447 -0.6141
 3668TIP3   OH232494   6.657   3.514  11.660  0.9077 -0.0070 -0.0557
 3668TIP3    H132495   6.678   3.589  11.716  0.4325 -0.0376  0.1691
 3668TIP3    H232496   6.607   3.552  11.587 -0.3259 -0.2549  0.6504
 3669TIP3   OH232497   5.264   4.905   1.324 -0.0066 -0.3457 -0.3060
 3669TIP3    H132498   5.217   4.975   1.369  2.0547  0.8098  0.0881
 3669TIP3    H232499   5.315   4.863   1.393  0.4274 -0.8636 -0.9410
 3670TIP3   OH232500   3.733   2.969   3.743 -0.0737  0.0982 -0.2714
 3670TIP3    H132501   3.673   2.899   3.769  0.6723 -0.2807  0.4292
 3670TIP3    H232502   3.775   2.936   3.663 -0.3229  0.1020 -0.4064
 3671TIP3   OH232503   2.728   0.451   3.047 -0.4407 -0.2551  0.2529
 3671TIP3    H132504   2.768   0.374   3.088 -0.6312 -0.6102 -0.2305
 3671TIP3    H232505   2.634   0.437   3.057 -0.5027 -0.5797 -0.7338
 3672TIP3   OH232506   2.384   5.827   3.224 -0.0035  0.2636  0.7885
 3672TIP3    H132507   2.460   5.776   3.195 -0.7184 -0.1281 -0.4488
 3672TIP3    H232508   2.379   5.810   3.318  1.3897  0.2288  0.8730
 3673TIP3   OH232509   5.496   6.522  17.264 -0.3490 -0.1813  0.1435
 3673TIP3    H132510   5.497   6.617  17.248  0.0639 -0.3515 -0.8396
 3673TIP3    H232511   5.481   6.483  17.178 -2.2627 -0.9563  0.7793
 3674TIP3   OH232512   1.157   4.576  11.694 -0.2002  0.2983  0.6334
 3674TIP3    H132513   1.073   4.531  11.678 -0.0710  0.0779  0.5712
 3674TIP3    H232514   1.222   4.506  11.692  0.0327  0.5276  0.3014
 3675TIP3   OH232515   3.827   2.859  14.805  0.3665 -0.1088 -0.8042
 3675TIP3    H132516   3.898   2.921  14.823  0.0589 -0.3078  1.1552
 3675TIP3    H232517   3.872   2.779  14.775  0.9162  0.0863 -0.5044
 3676TIP3   OH232518   2.077   6.313  12.043 -0.1481  0.1367  0.6125
 3676TIP3    H132519   2.063   6.293  12.136 -0.5123  0.4825  0.6319
 3676TIP3    H232520   1.989   6.328  12.008 -0.0621 -0.5421  0.0814
 3677TIP3   OH232521   6.167   2.283   1.730  0.5753  0.3485  0.0531
 3677TIP3    H132522   6.219   2.338   1.671 -0.0788  0.8659 -0.0401
 3677TIP3    H232523   6.134   2.213   1.673  1.1418  0.0343  0.1063
 3678TIP3   OH232524   2.647   1.387  12.890  0.7608 -0.0041  0.3817
 3678TIP3    H132525   2.626   1.479  12.871  0.6141 -0.4028 -1.4895
 3678TIP3    H232526   2.674   1.351  12.806 -0.2264 -1.9547  0.8754
 3679TIP3   OH232527   3.546   0.394  13.352 -0.1352  0.3935 -0.5503
 3679TIP3    H132528   3.491   0.337  13.405  0.4229  2.0234  1.8530
 3679TIP3    H232529   3.487   0.460  13.317  0.0950  1.5052  1.1346
 3680TIP3   OH232530   4.286   5.798  16.808 -0.0549  0.5600 -0.5984
 3680TIP3    H132531   4.360   5.837  16.855  0.5359 -0.2320 -0.8654
 3680TIP3    H232532   4.305   5.813  16.716  0.0399 -0.1132 -0.6915
 3681TIP3   OH232533   5.779   5.343  11.257  0.1762  0.5579  0.2402
 3681TIP3    H132534   5.811   5.312  11.341  2.0305  2.4396  0.2695
 3681TIP3    H232535   5.825   5.289  11.192 -0.0052  0.2242  0.3887
 3682TIP3   OH232536   2.120   4.718   2.766 -0.4017 -0.1671 -0.9865
 3682TIP3    H132537   2.163   4.637   2.795 -2.4124 -2.2480 -3.5749
 3682TIP3    H232538   2.079   4.753   2.845  0.8590 -1.4039  0.2630
 3683TIP3   OH232539   0.079   0.018   1.391 -0.1470  0.2058  0.4484
 3683TIP3    H132540   0.088  -0.028   1.307 -1.5202 -0.6590  0.7559
 3683TIP3    H232541   0.166   0.012   1.431  0.0487 -0.9716 -0.1191
 3684TIP3   OH232542   6.306   2.193   6.047  0.6200 -0.3411  0.0655
 3684TIP3    H132543   6.319   2.259   6.115  0.4392  1.9131 -2.0350
 3684TIP3    H232544   6.383   2.200   5.991  0.8791 -2.3446  0.1289
 3685TIP3   OH232545   3.436   1.274   5.028  0.4957  0.0291  0.0896
 3685TIP3    H132546   3.452   1.362   4.994  0.4695 -0.5425 -1.4238
 3685TIP3    H232547   3.377   1.234   4.965  0.0482 -0.8939  1.0655
 3686TIP3   OH232548   5.288   1.255  17.284 -0.0793  0.6684 -0.0994
 3686TIP3    H132549   5.215   1.250  17.345  1.0412 -2.6061  1.0415
 3686TIP3    H232550   5.249   1.237  17.198 -0.4538 -2.1871  0.6454
 3687TIP3   OH232551   1.143   6.272   4.445 -0.5028  0.4917 -0.3803
 3687TIP3    H132552   1.114   6.188   4.410 -0.5100  1.0312 -1.6907
 3687TIP3    H232553   1.203   6.306   4.379 -0.6376  1.5957  0.0602
 3688TIP3   OH232554   0.014   3.210   4.290 -0.0012  0.3601  0.1029
 3688TIP3    H132555  -0.033   3.170   4.218 -0.0753  1.1626 -0.2967
 3688TIP3    H232556  -0.012   3.160   4.367  0.2947 -0.6701 -0.4663
 3689TIP3   OH232557   4.548   4.644  15.339  0.1583  0.2331  0.1143
 3689TIP3    H132558   4.580   4.732  15.318 -0.9453  0.8191  0.8161
 3689TIP3    H232559   4.455   4.656  15.356  0.2201 -0.8831  1.3260
 3690TIP3   OH232560   1.445   4.220   0.125 -0.3971  0.2354 -0.5907
 3690TIP3    H132561   1.446   4.272   0.045  1.2792 -0.8037 -1.2658
 3690TIP3    H232562   1.532   4.235   0.164 -1.7285  1.9965  1.8800
 3691TIP3   OH232563   6.385   6.023  14.571  0.4983 -0.3868 -0.3520
 3691TIP3    H132564   6.402   6.007  14.664  0.6100 -1.6663 -0.5878
 3691TIP3    H232565   6.350   6.112  14.569 -2.6314 -1.5155  1.2880
 3692TIP3   OH232566   4.712   5.766  15.377  0.2386  0.0953 -0.0821
 3692TIP3    H132567   4.752   5.692  15.423  1.3696  1.4418  1.1714
 3692TIP3    H232568   4.687   5.826  15.446 -2.5133  0.0249 -0.9768
 3693TIP3   OH232569   4.073   3.905  11.751 -0.0429 -0.2730  0.0788
 3693TIP3    H132570   4.109   3.961  11.820  0.7799  1.0694 -1.4149
 3693TIP3    H232571   3.981   3.932  11.743 -0.3367 -0.9203  1.1056
 3694TIP3   OH232572   1.894   2.775  15.983  0.3067  0.1956  0.0457
 3694TIP3    H132573   1.918   2.742  16.070 -0.1660  2.0632  0.9065
 3694TIP3    H232574   1.978   2.799  15.943  0.3481  1.8335  1.0456
 3695TIP3   OH232575   1.558   6.723  16.265  0.1688 -0.1406 -0.9207
 3695TIP3    H132576   1.477   6.696  16.308  0.6198 -1.4043 -0.8463
 3695TIP3    H232577   1.590   6.644  16.222  2.0980 -0.0167  0.2330
 3696TIP3   OH232578   6.662   3.635   5.063  0.1523  0.6133 -0.1302
 3696TIP3    H132579   6.662   3.730   5.048  1.4058  0.7399  0.5515
 3696TIP3    H232580   6.751   3.616   5.093  0.1238 -0.9066 -0.9739
 3697TIP3   OH232581   2.165   6.080  11.920  0.1378  0.6852 -0.2820
 3697TIP3    H132582   2.086   6.034  11.947  0.5433  0.6733  0.9517
 3697TIP3    H232583   2.160   6.165  11.964  1.1218  0.4224  0.3679
 3698TIP3   OH232584   2.947   1.637   0.826 -0.2217 -0.4639  0.2014
 3698TIP3    H132585   2.855   1.618   0.844 -0.2584 -0.9275 -0.4498
 3698TIP3    H232586   2.970   1.705   0.889 -1.2887  0.3781 -0.3017
 3699TIP3   OH232587   1.614   0.959   3.962 -0.3689 -0.2782  0.1072
 3699TIP3    H132588   1.597   1.051   3.985  1.4852  0.1628 -0.2236
 3699TIP3    H232589   1.643   0.963   3.871 -2.7852 -1.4900 -0.7729
 3700TIP3   OH232590   0.605   5.723  12.145 -0.3136  0.1473 -0.1744
 3700TIP3    H132591   0.701   5.722  12.144 -0.2711 -0.5370  1.7736
 3700TIP3    H232592   0.579   5.721  12.053  1.5455  0.7474 -0.7243
 3701TIP3   OH232593   3.927   4.385  13.367 -0.6855  0.6375  0.1386
 3701TIP3    H132594   3.835   4.398  13.343 -1.3039 -2.0082  0.8615
 3701TIP3    H232595   3.925   4.313  13.431  1.9301  0.1213 -0.3041
 3702TIP3   OH232596   1.381   6.380   3.987  0.1591 -0.2318  0.2648
 3702TIP3    H132597   1.369   6.386   3.892  0.4113  1.9859  0.3499
 3702TIP3    H232598   1.457   6.435   4.005  0.0311 -0.5294  1.7665
 3703TIP3   OH232599   0.179   3.570   0.131  0.2841 -0.0161 -0.0659
 3703TIP3    H132600   0.207   3.661   0.146 -1.9465  0.7619 -0.5081
 3703TIP3    H232601   0.116   3.552   0.200  0.4058 -1.0952 -0.2313
 3704TIP3   OH232602   0.613   4.252   2.212 -0.0727  0.0680 -0.6630
 3704TIP3    H132603   0.677   4.205   2.265 -0.8964 -1.2657 -0.8515
 3704TIP3    H232604   0.651   4.339   2.201  0.5003  0.1152  1.4182
 3705TIP3   OH232605   3.315   0.035   2.993  0.0776 -0.2933 -0.5717
 3705TIP3    H132606   3.403   0.049   3.028  0.8457 -1.8461 -1.7758
 3705TIP3    H232607   3.317  -0.055   2.960 -1.9305 -0.3069 -0.7241
 3706TIP3   OH232608   3.203   4.085  16.921 -0.5441 -0.3983 -0.0144
 3706TIP3    H132609   3.136   4.084  16.852  0.6344 -0.6233 -1.1627
 3706TIP3    H232610   3.271   4.026  16.889 -1.1821 -2.6183  2.5585
 3707TIP3   OH232611   4.625   6.787   0.231 -0.6839 -0.1184  0.3873
 3707TIP3    H132612   4.713   6.773   0.194 -1.1142  1.5064 -1.3915
 3707TIP3    H232613   4.594   6.700   0.254  1.2775 -0.7522  0.7671
 3708TIP3   OH232614   6.620   0.815   0.460  0.1320  0.1893  0.4722
 3708TIP3    H132615   6.565   0.742   0.487  1.1371 -0.1734  1.5897
 3708TIP3    H232616   6.694   0.813   0.521  1.6916  0.2915 -1.3379
 3709TIP3   OH232617   3.994   1.557  14.101  0.0797  0.3853 -0.2579
 3709TIP3    H132618   4.000   1.514  14.186  0.4288  2.1531  0.6364
 3709TIP3    H232619   4.017   1.489  14.038  0.7968 -0.6831  1.1310
 3710TIP3   OH232620   6.082   6.379  16.566 -0.4549 -0.5117  0.0638
 3710TIP3    H132621   6.146   6.448  16.549  0.3329 -0.8672  1.4345
 3710TIP3    H232622   5.998   6.419  16.548  0.0686  0.4505 -0.2675
 3711TIP3   OH232623   0.298   1.733   6.328 -0.1323 -0.0928  0.0266
 3711TIP3    H132624   0.345   1.705   6.250  0.1331 -3.0739  1.1877
 3711TIP3    H232625   0.355   1.797   6.370  1.0335 -0.6307 -0.7245
 3712TIP3   OH232626   0.739   4.135  12.967 -0.1964 -0.1864  0.0729
 3712TIP3    H132627   0.776   4.049  12.988  0.1282  0.2811  1.4849
 3712TIP3    H232628   0.646   4.127  12.987 -0.1407 -0.1621  0.3371
 3713TIP3   OH232629   6.448   4.571   3.113  0.3781 -0.1685  0.6459
 3713TIP3    H132630   6.511   4.525   3.058 -1.2270 -1.6284 -0.0066
 3713TIP3    H232631   6.414   4.641   3.057 -0.0103 -0.6025  0.3322
 3714TIP3   OH232632   3.338   0.383   4.807  0.1773  0.3388  0.0455
 3714TIP3    H132633   3.371   0.465   4.843 -2.2293  1.1038  0.6405
 3714TIP3    H232634   3.282   0.347   4.877 -0.7121 -0.5881 -1.1153
 3715TIP3   OH232635   0.517   6.732   6.109  0.3541 -0.1602  0.1060
 3715TIP3    H132636   0.538   6.639   6.104  1.2868  0.0160  0.6036
 3715TIP3    H232637   0.473   6.751   6.026 -0.5689 -1.2085  0.3351
 3716TIP3   OH232638   2.737   5.173   5.242 -0.0356 -0.0897 -0.3764
 3716TIP3    H132639   2.694   5.214   5.167 -0.4909 -0.8031 -0.5078
 3716TIP3    H232640   2.747   5.244   5.306  0.2715  0.4978 -1.0695
 3717TIP3   OH232641   4.048   3.617  12.777 -0.3214 -0.4663 -0.3271
 3717TIP3    H132642   4.134   3.616  12.736 -0.1635  0.3091 -0.0292
 3717TIP3    H232643   4.031   3.710  12.794 -0.6203 -0.7263  0.8435
 3718TIP3   OH232644   5.556   6.095  16.581  0.1991  0.7641 -0.5927
 3718TIP3    H132645   5.485   6.038  16.613 -0.2230  1.1243 -0.8790
 3718TIP3    H232646   5.537   6.180  16.621  0.8340  0.7038 -0.1617
 3719TIP3   OH232647   3.763   1.171  16.126 -0.4163  0.0113  0.6558
 3719TIP3    H132648   3.796   1.204  16.210 -1.1040  1.8768  0.2120
 3719TIP3    H232649   3.760   1.248  16.070 -0.9809 -1.0381 -0.7738
 3720TIP3   OH232650   6.449   1.032   3.318 -0.6347  0.1827 -0.2236
 3720TIP3    H132651   6.470   0.972   3.390  2.3139  0.8332 -0.4736
 3720TIP3    H232652   6.474   0.983   3.239  1.2037  1.4341 -0.4620
 3721TIP3   OH232653   5.218   0.460   5.347  0.0777 -0.1334  0.0845
 3721TIP3    H132654   5.221   0.549   5.312 -1.4079  0.2796  0.9948
 3721TIP3    H232655   5.286   0.458   5.414 -0.6615  0.6856  0.8797
 3722TIP3   OH232656   4.303   3.921  13.205 -0.1189 -0.0544 -0.5498
 3722TIP3    H132657   4.391   3.883  13.205  0.2471  0.7887 -0.5357
 3722TIP3    H232658   4.318   4.015  13.200 -1.0768 -0.0185 -3.4482
 3723TIP3   OH232659   3.889   1.883  12.396  0.2001 -0.0489  0.1146
 3723TIP3    H132660   3.812   1.934  12.375  1.0434  1.6206  0.9702
 3723TIP3    H232661   3.921   1.920  12.479  0.7987 -1.9885  0.7842
 3724TIP3   OH232662   4.619   2.434  15.393 -0.0674 -0.4202 -0.1281
 3724TIP3    H132663   4.565   2.366  15.435  0.5122 -0.6353  0.2756
 3724TIP3    H232664   4.669   2.472  15.464 -1.0869  1.0996 -0.2016
 3725TIP3   OH232665   5.062   6.085   0.828  0.1706 -0.2605 -0.1261
 3725TIP3    H132666   5.058   5.990   0.816  2.6924 -0.5682  1.2124
 3725TIP3    H232667   4.991   6.104   0.890  1.0555 -1.5764  1.2997
 3726TIP3   OH232668   5.116   0.462   3.531 -0.0964  0.4975  0.2712
 3726TIP3    H132669   5.177   0.512   3.585  2.4601 -0.9954 -1.1236
 3726TIP3    H232670   5.144   0.480   3.441 -0.8611 -1.2759 -0.3429
 3727TIP3   OH232671   3.790   2.063  13.756  0.3738 -0.1920  0.0503
 3727TIP3    H132672   3.874   2.039  13.796  0.4523 -1.1441 -0.6783
 3727TIP3    H232673   3.745   1.980  13.741 -0.9285  0.3461  0.9124
 3728TIP3   OH232674   5.982   4.238   3.868 -0.0136 -0.3783  0.0091
 3728TIP3    H132675   5.947   4.276   3.948  0.6092 -0.9217  0.5446
 3728TIP3    H232676   5.969   4.305   3.801  1.3179  0.8990  1.0024
 3729TIP3   OH232677   3.819   5.585  10.467 -0.4306 -0.4035 -0.3825
 3729TIP3    H132678   3.724   5.591  10.465 -0.3779  1.2286  0.7914
 3729TIP3    H232679   3.839   5.547  10.553 -0.0370 -1.3889 -0.8997
 3730TIP3   OH232680   2.442   6.776   1.094 -0.7065  0.1228  0.2220
 3730TIP3    H132681   2.523   6.819   1.121  0.8315 -2.7662  0.2890
 3730TIP3    H232682   2.458   6.746   1.005 -0.7151 -2.7106  1.1180
 3731TIP3   OH232683   5.853   2.302  14.296 -0.0004 -0.6270  0.0777
 3731TIP3    H132684   5.805   2.248  14.358  1.2875 -1.1057  0.6685
 3731TIP3    H232685   5.945   2.279  14.309  0.3726 -0.0269 -1.3234
 3732TIP3   OH232686   4.309   1.768  15.109 -0.2173 -0.2075  0.3723
 3732TIP3    H132687   4.311   1.716  15.029  1.5778 -1.4016  1.1656
 3732TIP3    H232688   4.228   1.742  15.153 -0.1731 -1.0709 -0.0585
 3733TIP3   OH232689   0.447   0.643  14.076  0.1198 -0.2961  0.0620
 3733TIP3    H132690   0.494   0.624  14.157 -1.8132  0.4056  1.3928
 3733TIP3    H232691   0.467   0.735  14.058 -1.0690  0.1419  0.8897
 3734TIP3   OH232692   5.406   2.465   0.271 -0.3292 -0.7360 -0.7074
 3734TIP3    H132693   5.439   2.525   0.203 -2.8436  1.9644  0.3334
 3734TIP3    H232694   5.343   2.410   0.225  1.1774 -1.8760 -1.4435
 3735TIP3   OH232695   2.792   6.190  13.686  0.1460 -0.4535 -0.1025
 3735TIP3    H132696   2.801   6.137  13.766 -1.5219  0.2682  0.5783
 3735TIP3    H232697   2.698   6.189  13.667  0.5924 -1.1673 -2.4499
 3736TIP3   OH232698   0.552   5.515  16.522 -0.2092  0.1901 -0.0592
 3736TIP3    H132699   0.612   5.499  16.450 -0.7859 -1.6940 -0.1472
 3736TIP3    H232700   0.567   5.442  16.582 -1.3771  0.4876  0.6113
 3737TIP3   OH232701   6.126   1.570   1.231 -0.0263 -0.0139  0.3377
 3737TIP3    H132702   6.191   1.631   1.194  0.9614  0.1428  2.2725
 3737TIP3    H232703   6.051   1.577   1.173  1.7333 -0.3001 -2.0720
 3738TIP3   OH232704   0.594   6.031   4.615 -0.9163 -0.1628 -0.3514
 3738TIP3    H132705   0.516   6.030   4.671  0.1278  1.8460  1.2434
 3738TIP3    H232706   0.579   6.104   4.555 -0.0757  0.5475  0.2876
 3739TIP3   OH232707   3.512   4.510   3.094  0.0656 -0.3677  0.3652
 3739TIP3    H132708   3.565   4.473   3.024  0.6054 -0.5826  0.8878
 3739TIP3    H232709   3.563   4.584   3.127 -1.2141  1.1344 -0.9784
 3740TIP3   OH232710   4.451   1.888   3.920 -0.1788  0.6119 -0.4509
 3740TIP3    H132711   4.479   1.888   4.012  0.5700 -0.8648 -0.6657
 3740TIP3    H232712   4.427   1.979   3.903  0.8226  1.1527  0.8733
 3741TIP3   OH232713   2.118   1.608  11.824 -0.5642 -0.1588  0.1098
 3741TIP3    H132714   2.108   1.668  11.898  0.0427  0.1756 -0.0803
 3741TIP3    H232715   2.049   1.542  11.838 -0.4360 -0.1204  0.9878
 3742TIP3   OH232716   3.111   2.352  11.527  0.3419 -0.4287 -0.1051
 3742TIP3    H132717   3.177   2.296  11.570  0.4477 -0.9491 -0.9405
 3742TIP3    H232718   3.157   2.388  11.451 -0.0344  0.0162 -0.1197
 3743TIP3   OH232719   0.081   4.531   3.765  0.1433  0.0919 -0.5564
 3743TIP3    H132720   0.044   4.580   3.839 -1.1781  0.3528 -1.3905
 3743TIP3    H232721   0.058   4.440   3.783 -0.5893  0.2133 -0.9005
 3744TIP3   OH232722   2.040   6.699   5.355  0.1185 -0.1629 -0.5852
 3744TIP3    H132723   2.069   6.752   5.429  0.6120  1.6835 -2.0594
 3744TIP3    H232724   2.006   6.619   5.394 -0.5531  1.2130  1.7009
 3745TIP3   OH232725   0.758   4.754  11.275 -0.4050  0.6007 -0.0688
 3745TIP3    H132726   0.785   4.687  11.212  0.6191 -0.0565  1.0344
 3745TIP3    H232727   0.756   4.708  11.359 -1.2381  1.5901  0.4734
 3746TIP3   OH232728   0.563   2.408  11.225 -0.0347 -0.3969  0.1662
 3746TIP3    H132729   0.612   2.392  11.144 -1.7140 -0.1814 -0.9165
 3746TIP3    H232730   0.511   2.487  11.207  1.2786  0.9890  2.2573
 3747TIP3   OH232731   2.706   3.443  11.771  0.3393  0.5624  0.5466
 3747TIP3    H132732   2.730   3.387  11.844  1.8393  1.1098  0.4907
 3747TIP3    H232733   2.745   3.528  11.792 -0.3358  1.0764 -0.2514
 3748TIP3   OH232734   0.654   0.401   3.760 -0.2200  0.1262 -0.0405
 3748TIP3    H132735   0.677   0.386   3.668  1.9283  0.5441  0.4035
 3748TIP3    H232736   0.693   0.327   3.807  0.4534  0.9622  0.7595
 3749TIP3   OH232737   0.039   1.231   3.520 -0.4296  0.4040 -1.0319
 3749TIP3    H132738  -0.013   1.283   3.459  0.2763  0.4445 -1.6101
 3749TIP3    H232739   0.126   1.227   3.480  0.1434  0.7269  0.1554
 3750TIP3   OH232740   2.236   1.649   5.164 -0.2184  0.0597 -0.2587
 3750TIP3    H132741   2.225   1.623   5.072 -0.8637  0.9634 -0.4372
 3750TIP3    H232742   2.180   1.726   5.174 -1.2372 -0.8496  1.2451
 3751TIP3   OH232743   5.394   4.870   5.536  0.4484 -0.2419 -0.2037
 3751TIP3    H132744   5.382   4.939   5.471 -0.0818  0.8722  1.0424
 3751TIP3    H232745   5.367   4.790   5.492  1.7041  0.2447 -1.8917
 3752TIP3   OH232746   1.660   6.747  16.862 -0.2999 -0.6535 -0.5152
 3752TIP3    H132747   1.720   6.684  16.902 -0.3112 -0.8839 -0.8518
 3752TIP3    H232748   1.629   6.703  16.782 -0.2810 -0.2016 -0.7695
 3753TIP3   OH232749   6.011   3.256  15.744 -0.0833 -0.0538 -0.3178
 3753TIP3    H132750   6.036   3.349  15.744  0.5625 -0.2244  1.3790
 3753TIP3    H232751   5.932   3.253  15.798 -1.0205 -0.2796 -1.6543
 3754TIP3   OH232752   1.311   2.929  13.167 -0.4923 -0.1420  0.3611
 3754TIP3    H132753   1.263   2.922  13.084 -1.7638  0.2824  1.0455
 3754TIP3    H232754   1.270   3.003  13.212  0.7859  0.1942  0.9875
 3755TIP3   OH232755   0.869   5.532  16.396  0.4007 -0.0201  0.0531
 3755TIP3    H132756   0.827   5.580  16.468 -3.6791 -2.2366 -0.6689
 3755TIP3    H232757   0.828   5.569  16.317  2.7616  0.4376 -0.9786
 3756TIP3   OH232758   5.841   3.014   4.489 -0.2895  0.7841  0.4466
 3756TIP3    H132759   5.901   3.039   4.419 -1.5259 -0.2035 -1.0049
 3756TIP3    H232760   5.793   3.094   4.510  1.0940  1.4288  1.1910
 3757TIP3   OH232761   0.963   1.693  15.047  0.4871 -0.4875  0.3223
 3757TIP3    H132762   1.000   1.781  15.044 -0.4924 -0.1197 -1.1828
 3757TIP3    H232763   0.891   1.695  14.984 -0.1377 -2.0900  0.9737
 3758TIP3   OH232764   3.716   6.736   1.343 -0.4460  0.2967 -0.3920
 3758TIP3    H132765   3.627   6.708   1.322 -0.2445 -0.9484  0.3485
 3758TIP3    H232766   3.761   6.739   1.258 -1.7566  3.0989 -1.0509
 3759TIP3   OH232767   3.590   5.649   4.358  0.7334 -0.0008 -0.0876
 3759TIP3    H132768   3.498   5.666   4.339  0.8552  1.9351  0.9354
 3759TIP3    H232769   3.594   5.554   4.373 -1.4328  0.1611  1.7394
 3760TIP3   OH232770   5.038   5.604   5.815 -0.7309 -0.3013 -0.1364
 3760TIP3    H132771   5.129   5.583   5.838 -0.5171 -0.5067 -1.1713
 3760TIP3    H232772   5.010   5.666   5.882 -0.6013 -2.0738  1.6080
 3761TIP3   OH232773   2.913   6.685   1.505  0.1427 -0.5390  0.1859
 3761TIP3    H132774   3.001   6.713   1.479  0.1228  0.0911  0.7680
 3761TIP3    H232775   2.855   6.749   1.463 -0.1130 -1.5302 -1.0120
 3762TIP3   OH232776   0.596   2.347  13.704  0.0273  0.2066  0.2240
 3762TIP3    H132777   0.682   2.338  13.662 -0.7771  0.7453 -1.5871
 3762TIP3    H232778   0.591   2.272  13.763  1.3282 -0.4166 -0.4197
 3763TIP3   OH232779   2.984   6.732   3.525 -0.0280 -0.8333  0.4483
 3763TIP3    H132780   2.906   6.748   3.577  0.1142 -0.9422  0.6986
 3763TIP3    H232781   2.958   6.664   3.463 -0.9455  1.0772 -1.3303
 3764TIP3   OH232782   2.581   2.578  16.083  0.3461  0.2364 -0.0513
 3764TIP3    H132783   2.560   2.668  16.110 -1.5245  0.2365 -1.4259
 3764TIP3    H232784   2.654   2.553  16.140  2.1979  3.2940 -0.9266
 3765TIP3   OH232785   5.750   6.320  11.281  0.6047  0.5428 -0.4389
 3765TIP3    H132786   5.765   6.227  11.263 -0.8371  0.2815 -0.3721
 3765TIP3    H232787   5.700   6.351  11.205 -1.0402  0.6689  0.6700
 3766TIP3   OH232788   1.366   3.418  16.813  0.0012 -0.4077 -0.5692
 3766TIP3    H132789   1.417   3.381  16.885  0.1466 -1.5994 -1.2667
 3766TIP3    H232790   1.349   3.509  16.839  0.7587 -0.5908  0.5820
 3767TIP3   OH232791   6.659   1.769  14.328  0.3707  0.0084 -0.1300
 3767TIP3    H132792   6.638   1.832  14.398  0.6978 -0.0115 -0.0161
 3767TIP3    H232793   6.615   1.805  14.251  1.0923  0.7206 -0.2127
 3768TIP3   OH232794   2.622   4.970  16.149  0.2586 -0.1693  0.0661
 3768TIP3    H132795   2.627   5.063  16.129 -0.9546  0.1244  1.0897
 3768TIP3    H232796   2.610   4.927  16.064  0.3773  0.6348 -0.3566
 3769TIP3   OH232797   0.079   2.857   6.245 -0.1699  0.5037  0.7208
 3769TIP3    H132798   0.019   2.815   6.183  1.0853  2.9066 -2.2727
 3769TIP3    H232799   0.073   2.804   6.324 -3.5184 -1.3920 -0.7070
 3770TIP3   OH232800   6.239   3.325   1.587 -0.4802 -0.1363 -0.0449
 3770TIP3    H132801   6.289   3.243   1.593 -0.7839 -0.4401 -1.5459
 3770TIP3    H232802   6.284   3.384   1.647  0.0546 -1.2424  0.6686
 3771TIP3   OH232803   6.207   0.476   3.259  0.5053 -0.4244 -0.4165
 3771TIP3    H132804   6.196   0.443   3.170  1.5200 -1.2005 -0.2720
 3771TIP3    H232805   6.157   0.557   3.261 -1.7491 -1.7636 -0.9021
 3772TIP3   OH232806   3.058   1.497  14.108  0.0345  0.2763  0.0234
 3772TIP3    H132807   3.139   1.447  14.094 -0.7057 -1.0281  0.2979
 3772TIP3    H232808   3.029   1.520  14.020  0.6253  0.6183 -0.0838
 3773TIP3   OH232809   6.785   4.445   0.710  0.3020  0.2104  0.4176
 3773TIP3    H132810   6.790   4.369   0.767 -0.5168  0.6766  1.1315
 3773TIP3    H232811   6.873   4.481   0.708  0.7193 -0.8437 -0.0410
 3774TIP3   OH232812   5.195   3.755   0.401  0.3515 -0.4281 -0.1253
 3774TIP3    H132813   5.192   3.851   0.409  0.6202 -0.4838  0.6697
 3774TIP3    H232814   5.191   3.739   0.306  0.6090  0.3850 -0.2793
 3775TIP3   OH232815   2.893   5.373  12.440  0.1933  0.1488 -0.4851
 3775TIP3    H132816   2.979   5.330  12.444 -0.3549 -0.9715 -0.5539
 3775TIP3    H232817   2.897   5.441  12.507  0.5094 -1.0728  0.7579
 3776TIP3   OH232818   0.634   2.965  12.862 -0.7082 -0.3697  0.0898
 3776TIP3    H132819   0.601   2.889  12.911 -0.9027  0.2376  0.9179
 3776TIP3    H232820   0.572   3.035  12.883 -0.5753 -0.0027 -0.7389
 3777TIP3   OH232821   4.788   4.692   9.987 -0.0604  0.1101  0.3260
 3777TIP3    H132822   4.826   4.696  10.074 -0.6608 -2.0013  0.7198
 3777TIP3    H232823   4.694   4.685  10.002 -0.1168 -0.9506 -0.4548
 3778TIP3   OH232824   2.474   6.638   2.090  0.4309 -0.3993  0.4487
 3778TIP3    H132825   2.380   6.639   2.075  0.4109  1.3853  0.5549
 3778TIP3    H232826   2.491   6.714   2.146  1.7921 -1.3148  1.3233
 3779TIP3   OH232827   6.589   4.550  11.105 -0.1487 -0.2033  0.4539
 3779TIP3    H132828   6.556   4.492  11.174  1.2675 -0.2421  1.1172
 3779TIP3    H232829   6.684   4.539  11.108  0.1016  1.7597  0.2324
 3780TIP3   OH232830   3.618   3.770   5.312 -0.2692 -0.3118  0.1835
 3780TIP3    H132831   3.659   3.838   5.260 -2.0463 -0.0224 -0.8932
 3780TIP3    H232832   3.571   3.817   5.381 -2.4896 -0.3043 -1.2627
 3781TIP3   OH232833   5.247   3.117  11.391  0.3608 -0.7039  0.0251
 3781TIP3    H132834   5.334   3.156  11.403 -0.0878  0.3164 -0.0246
 3781TIP3    H232835   5.224   3.136  11.300  0.2368 -1.3075 -0.0748
 3782TIP3   OH232836   3.334   1.359  14.305 -0.4160 -0.4021 -0.2936
 3782TIP3    H132837   3.307   1.268  14.323 -1.6178 -0.1819 -0.9542
 3782TIP3    H232838   3.332   1.366  14.210  1.0614 -0.0952 -0.3006
 3783TIP3   OH232839   3.481   4.244   2.385  0.4061  0.5622 -0.2792
 3783TIP3    H132840   3.554   4.189   2.355 -0.2825 -0.5901  0.1233
 3783TIP3    H232841   3.403   4.192   2.366 -0.2964  1.6946 -0.4887
 3784TIP3   OH232842   1.179   2.108   2.554  0.4562  0.1862  0.1112
 3784TIP3    H132843   1.109   2.063   2.601  0.3530 -1.0340 -1.1861
 3784TIP3    H232844   1.220   2.163   2.620 -1.8354  1.0729  0.8631
 3785TIP3   OH232845   6.395   3.931  14.480 -0.5882  0.0729 -0.8447
 3785TIP3    H132846   6.461   3.994  14.452  0.0761  0.9020  2.3141
 3785TIP3    H232847   6.327   3.984  14.521 -0.6426 -1.1356  0.6904
 3786TIP3   OH232848   6.599   2.337  13.252  0.2659 -0.0015  0.2304
 3786TIP3    H132849   6.558   2.402  13.308  1.7044  1.2842 -0.1797
 3786TIP3    H232850   6.655   2.286  13.311 -1.5588 -1.4773  0.7107
 3787TIP3   OH232851   6.715   1.843   4.256  0.1576  0.2103 -0.1256
 3787TIP3    H132852   6.810   1.854   4.243  0.1959  0.2807  0.2261
 3787TIP3    H232853   6.676   1.878   4.176  0.4876 -0.8505 -0.7583
 3788TIP3   OH232854   3.143   2.136  17.228 -0.3402  0.9268 -0.1859
 3788TIP3    H132855   3.094   2.106  17.151 -0.2199  0.6178 -0.1437
 3788TIP3    H232856   3.149   2.231  17.217 -2.8475  1.2418  0.9134
 3789TIP3   OH232857   1.904   4.907   4.131 -0.6416  0.2506  0.0920
 3789TIP3    H132858   1.880   4.939   4.218 -0.9960  2.9816 -0.9465
 3789TIP3    H232859   1.829   4.857   4.102 -1.8704  2.0322  0.0921
 3790TIP3   OH232860   5.572   6.778   4.920  0.1414 -0.5442 -0.4478
 3790TIP3    H132861   5.523   6.748   4.997  3.5424  2.9282  3.4088
 3790TIP3    H232862   5.536   6.865   4.902 -0.1405 -1.0449 -2.4111
 3791TIP3   OH232863   2.499   4.660   5.547 -0.0869  0.0606 -0.4344
 3791TIP3    H132864   2.469   4.725   5.611 -1.2220  0.9937 -1.8797
 3791TIP3    H232865   2.499   4.706   5.464  2.1694 -0.9166 -1.0110
 3792TIP3   OH232866   3.695   3.354  11.450 -0.4337 -0.0863  0.6460
 3792TIP3    H132867   3.686   3.355  11.545 -1.2384 -0.6615  0.5754
 3792TIP3    H232868   3.711   3.262  11.428 -0.1873  0.0542  0.2288
 3793TIP3   OH232869   3.833   2.106  16.395 -0.2073  0.0542 -0.1651
 3793TIP3    H132870   3.749   2.139  16.363 -0.1320 -0.4531 -0.8933
 3793TIP3    H232871   3.822   2.011  16.400 -0.0685  0.0793  0.9027
 3794TIP3   OH232872   1.671   5.231   4.123 -0.0861  0.6083 -0.3133
 3794TIP3    H132873   1.589   5.248   4.168 -0.7417 -0.1836 -1.1851
 3794TIP3    H232874   1.661   5.273   4.038  0.6888  1.0983 -0.1747
 3795TIP3   OH232875   0.873   2.566   2.950 -0.0972  1.1445  0.4211
 3795TIP3    H132876   0.877   2.640   3.010 -0.7131  1.9542 -0.5370
 3795TIP3    H232877   0.807   2.590   2.885  0.4476  0.2142 -0.5014
 3796TIP3   OH232878   4.511   2.753  12.305  0.3200 -0.6810 -0.2392
 3796TIP3    H132879   4.515   2.846  12.326  0.6660 -0.7532  0.0103
 3796TIP3    H232880   4.461   2.749  12.223  1.6396 -0.1409 -1.0871
 3797TIP3   OH232881   4.314   2.595  11.595 -0.2249 -0.3966  0.3218
 3797TIP3    H132882   4.373   2.642  11.535 -0.2529 -0.7505  0.0151
 3797TIP3    H232883   4.291   2.515  11.548  2.1819 -2.1815  2.0197
 3798TIP3   OH232884   3.177   6.313   4.022 -0.0838  0.1278 -0.0089
 3798TIP3    H132885   3.163   6.219   4.008  0.1565  0.0995 -0.0632
 3798TIP3    H232886   3.228   6.341   3.946 -0.2875  0.3343 -0.0687
 3799TIP3   OH232887   1.510   2.581   5.632 -0.6535  0.5901 -0.0097
 3799TIP3    H132888   1.518   2.595   5.726 -2.3645  0.0115  0.2377
 3799TIP3    H232889   1.444   2.513   5.623 -1.8719  1.9427 -1.6917
 3800TIP3   OH232890   3.204   0.512   0.277 -0.5950 -0.8039 -0.3979
 3800TIP3    H132891   3.120   0.527   0.318  0.3484 -0.3121  1.3834
 3800TIP3    H232892   3.251   0.595   0.286  1.7781 -2.3964  2.7021
 3801TIP3   OH232893   5.854   6.432  12.967 -0.0533  0.5119 -0.0044
 3801TIP3    H132894   5.844   6.524  12.991  0.6908  0.1344  1.7835
 3801TIP3    H232895   5.931   6.430  12.909 -1.4202  1.3109 -1.9133
 3802TIP3   OH232896   1.227   1.236   6.326  0.1122 -0.1312  0.2698
 3802TIP3    H132897   1.314   1.211   6.356 -0.0845 -0.5536  0.5060
 3802TIP3    H232898   1.180   1.262   6.406  0.1298  0.4317  0.1001
 3803TIP3   OH232899   5.892   0.312  11.260 -0.0833  0.8551 -0.3920
 3803TIP3    H132900   5.986   0.333  11.257  0.1072  0.0699 -0.0246
 3803TIP3    H232901   5.876   0.287  11.351  0.0946 -2.3975 -1.1934
 3804TIP3   OH232902   3.630   5.052  11.442 -0.0159  0.3759  0.3584
 3804TIP3    H132903   3.703   5.018  11.390 -1.4916 -1.8885 -0.2723
 3804TIP3    H232904   3.666   5.057  11.531  1.0798 -0.2341 -0.0313
 3805TIP3   OH232905   6.520   6.587  13.325  0.5434  1.0360 -0.3185
 3805TIP3    H132906   6.536   6.509  13.377 -1.5343  0.1445 -0.9523
 3805TIP3    H232907   6.571   6.574  13.245  0.3622  0.4217 -0.3344
 3806TIP3   OH232908   6.687   6.495  13.113  0.4856  0.1001 -0.3034
 3806TIP3    H132909   6.659   6.406  13.132 -0.0994  0.5110  0.8025
 3806TIP3    H232910   6.776   6.501  13.149  0.1844  0.2348  0.4177
 3807TIP3   OH232911   5.795   5.185   6.170  0.2786 -0.2342 -0.0780
 3807TIP3    H132912   5.715   5.212   6.125  0.4074 -1.3061 -0.9703
 3807TIP3    H232913   5.769   5.177   6.262  0.0170  1.9699  0.0808
 3808TIP3   OH232914   5.260   4.842  11.179  0.0380 -0.6739 -0.3948
 3808TIP3    H132915   5.222   4.930  11.177  0.0111 -0.6768 -0.0468
 3808TIP3    H232916   5.269   4.818  11.087 -2.6017 -1.4306 -0.4891
 3809TIP3   OH232917   6.323   3.268  13.303 -0.0169  0.2203 -0.2750
 3809TIP3    H132918   6.311   3.347  13.356  0.0499  0.2545 -0.3103
 3809TIP3    H232919   6.236   3.228  13.299 -0.0413  0.2692 -0.2203
 3810TIP3   OH232920   5.361   2.201  16.403  0.0039  0.1519  0.1498
 3810TIP3    H132921   5.436   2.200  16.343  1.3032  0.6097  1.7310
 3810TIP3    H232922   5.328   2.111  16.402  0.8264 -0.1532 -0.2458
 3811TIP3   OH232923   6.426   2.329   3.572 -0.1420  0.2669  0.2221
 3811TIP3    H132924   6.398   2.241   3.548 -0.9616  0.4164  0.5846
 3811TIP3    H232925   6.409   2.382   3.494  2.4386 -0.3124 -0.7609
 3812TIP3   OH232926   4.178   5.661   6.308  0.4152 -0.5961  0.0644
 3812TIP3    H132927   4.137   5.746   6.294  0.7695 -0.3348  0.5806
 3812TIP3    H232928   4.118   5.614   6.366 -0.9882 -1.6303 -2.1770
 3813TIP3   OH232929   2.412   3.577   0.093  0.2045 -0.5953  0.2106
 3813TIP3    H132930   2.329   3.623   0.076  0.5112 -0.2686 -0.4402
 3813TIP3    H232931   2.433   3.599   0.184  0.0524  0.0920  0.0869
 3814TIP3   OH232932   1.061   2.697  14.988  0.0519  0.5188  0.5681
 3814TIP3    H132933   0.978   2.671  14.948 -0.9100  2.2730  1.3880
 3814TIP3    H232934   1.072   2.637  15.062 -0.5523  0.4005  0.5634
 3815TIP3   OH232935   5.434   6.713  10.397 -0.3286 -0.4612 -0.0164
 3815TIP3    H132936   5.360   6.652  10.395 -1.9024  1.4387 -1.4531
 3815TIP3    H232937   5.408   6.780  10.460  1.4617 -1.3101  1.6702
 3816TIP3   OH232938   0.930   4.894  14.957  0.3424  0.1504 -0.3893
 3816TIP3    H132939   0.986   4.855  14.889  1.3456  1.4458 -0.3228
 3816TIP3    H232940   0.843   4.897  14.917  0.5342 -0.8431 -0.9156
 3817TIP3   OH232941   0.467   5.809   0.944 -0.4034  0.5242  0.4348
 3817TIP3    H132942   0.372   5.800   0.945 -0.3042 -0.4466  0.9461
 3817TIP3    H232943   0.497   5.755   1.016  0.6921 -0.8719 -1.0514
 3818TIP3   OH232944   3.007   0.565   3.174  0.5163  0.3177 -0.4068
 3818TIP3    H132945   2.945   0.493   3.171  2.2692 -1.2073 -0.7484
 3818TIP3    H232946   2.970   0.631   3.116 -1.2270 -0.1838  0.1068
 3819TIP3   OH232947   1.908   1.244   2.297  0.8314  0.2967  0.3381
 3819TIP3    H132948   1.948   1.264   2.213  0.8520 -1.0720  0.0125
 3819TIP3    H232949   1.942   1.157   2.320 -0.5094 -0.0826  0.9365
 3820TIP3   OH232950   6.068   0.199   6.222  0.1345 -0.4700  0.0049
 3820TIP3    H132951   6.009   0.169   6.291  1.9384  0.1652  1.8966
 3820TIP3    H232952   6.034   0.159   6.142 -1.8545 -1.4541  1.2932
 3821TIP3   OH232953   1.237   5.309  15.702 -0.1573 -0.4317 -0.3157
 3821TIP3    H132954   1.152   5.272  15.678 -0.6490  1.3280 -1.3297
 3821TIP3    H232955   1.228   5.332  15.795 -0.2177 -1.7495  0.0247
 3822TIP3   OH232956   0.855   3.894  13.956  0.2081  0.1162  0.2084
 3822TIP3    H132957   0.781   3.939  13.996 -0.2696 -1.2797  0.8942
 3822TIP3    H232958   0.874   3.946  13.877 -0.6106  1.2582  0.7436
 3823TIP3   OH232959   2.901   6.796  13.867  0.4426 -0.1931 -0.4701
 3823TIP3    H132960   2.994   6.786  13.850  0.9158  1.1030  1.2137
 3823TIP3    H232961   2.877   6.717  13.916  0.7716 -0.2947 -0.4722
 3824TIP3   OH232962   6.282   0.852  15.853  0.3136 -0.1684  0.2949
 3824TIP3    H132963   6.274   0.762  15.883  2.6048  0.1696  2.0804
 3824TIP3    H232964   6.246   0.904  15.924  0.0059  0.3721 -0.2524
 3825TIP3   OH232965   6.819   0.774  11.916 -1.1604  0.0755  0.0219
 3825TIP3    H132966   6.844   0.829  11.842 -1.0104 -0.1591 -0.1028
 3825TIP3    H232967   6.727   0.795  11.931 -1.4689 -0.6329 -0.8899
 3826TIP3   OH232968   3.775   2.677  14.296 -0.3074 -0.7387 -0.1158
 3826TIP3    H132969   3.812   2.714  14.216  2.7219 -2.1477  0.5920
 3826TIP3    H232970   3.850   2.649  14.348 -2.2053 -0.0894  3.1573
 3827TIP3   OH232971   6.739   6.640  15.143 -0.3675 -0.1405  0.1601
 3827TIP3    H132972   6.783   6.654  15.226  0.3364 -0.4895 -0.1495
 3827TIP3    H232973   6.745   6.546  15.128 -0.8483 -0.1340 -0.0871
 3828TIP3   OH232974   6.516   0.817  15.474  0.0568  0.0098 -0.1222
 3828TIP3    H132975   6.471   0.760  15.536 -1.5061  0.8217 -0.4847
 3828TIP3    H232976   6.520   0.902  15.518  0.4019  0.1805 -0.4821
 3829TIP3   OH232977   1.433   0.555  11.708 -0.7238  0.3984  0.2664
 3829TIP3    H132978   1.449   0.468  11.746  2.1059  0.3822 -0.8722
 3829TIP3    H232979   1.437   0.615  11.782  0.3743 -0.1097  0.6171
 3830TIP3   OH232980   2.746   3.714   2.092  0.1896  0.5298 -0.0535
 3830TIP3    H132981   2.658   3.752   2.089  0.3541  0.9116 -0.1161
 3830TIP3    H232982   2.769   3.699   2.000  0.1639  0.3716 -0.0338
 3831TIP3   OH232983   5.657   4.214   2.651  0.0859 -0.4302  0.1474
 3831TIP3    H132984   5.679   4.146   2.714  0.1832 -0.6357 -0.1078
 3831TIP3    H232985   5.740   4.259   2.634  0.3649 -1.3455 -0.9823
 3832TIP3   OH232986   1.406   1.520   0.992 -0.6222  0.2697  0.2942
 3832TIP3    H132987   1.328   1.571   0.971 -0.0691  0.8251 -0.4512
 3832TIP3    H232988   1.372   1.440   1.031 -1.5538  0.6229  0.2360
 3833TIP3   OH232989   6.659   5.697  14.098 -0.0572 -0.0365  0.1588
 3833TIP3    H132990   6.660   5.601  14.098 -0.3790 -0.0572 -1.1848
 3833TIP3    H232991   6.746   5.722  14.067  0.5138  0.1432  1.8507
 3834TIP3   OH232992   1.075   0.475   4.388 -0.3951 -0.1175 -0.5736
 3834TIP3    H132993   1.089   0.569   4.397 -2.4831  0.1819 -0.0587
 3834TIP3    H232994   1.075   0.459   4.293  1.3687  0.1581 -0.6217
 3835TIP3   OH232995   5.527   2.982  17.285  0.6872 -0.7128 -0.1195
 3835TIP3    H132996   5.549   2.921  17.215 -1.1192 -1.5103 -0.0376
 3835TIP3    H232997   5.455   3.035  17.250  1.3786  0.5043  0.2742
 3836TIP3   OH232998   3.136   2.405  17.172  0.2737 -0.2151  0.5025
 3836TIP3    H132999   3.188   2.464  17.226  0.1003  1.8848 -1.5848
 3836TIP3    H233000   3.050   2.446  17.167 -0.6008 -1.9262  1.0762
 3837TIP3   OH233001   1.828   3.942  12.452  0.0088 -0.4938 -0.6461
 3837TIP3    H133002   1.825   3.883  12.527  1.1374  2.3213  1.7161
 3837TIP3    H233003   1.740   3.937  12.414 -1.2757 -0.3382  2.1961
 3838TIP3   OH233004   0.116   3.861   6.635 -0.0714  1.3311 -0.5631
 3838TIP3    H133005   0.180   3.827   6.698  0.3729 -0.6109 -2.0035
 3838TIP3    H233006   0.039   3.807   6.647 -0.3783  1.6878 -0.9139
 3839TIP3   OH233007   5.050   6.651  12.482  0.3501 -0.3446 -0.1448
 3839TIP3    H133008   5.143   6.675  12.471 -0.0761  0.9104 -1.2272
 3839TIP3    H233009   5.052   6.561  12.514  1.9362 -0.7146 -1.2060
 3840TIP3   OH233010   0.451   3.907  15.630 -0.0408 -0.1518 -0.0833
 3840TIP3    H133011   0.378   3.874  15.578 -0.1491  0.7414 -0.5081
 3840TIP3    H233012   0.413   3.973  15.688  0.2061 -0.6170  0.6215
 3841TIP3   OH233013   1.149   4.475  17.164  0.3807 -0.3181  0.3690
 3841TIP3    H133014   1.190   4.394  17.136  1.2027  0.5743 -1.1048
 3841TIP3    H233015   1.201   4.505  17.238  2.1029  0.5149 -1.1350
 3842TIP3   OH233016   5.927   4.132   0.206  0.0415  0.1260  0.4940
 3842TIP3    H133017   5.861   4.085   0.258  1.2923 -1.4871  0.6593
 3842TIP3    H233018   5.876   4.175   0.137 -1.5707  1.7183  2.6045
 3843TIP3   OH233019   1.424   6.456  11.686 -0.0263 -0.4189 -0.3861
 3843TIP3    H133020   1.365   6.380  11.685  1.4134 -1.5626 -0.7452
 3843TIP3    H233021   1.381   6.521  11.631  0.4008 -2.2817 -2.9806
 3844TIP3   OH233022   0.478   5.345  16.932 -0.0290  0.4420 -0.2402
 3844TIP3    H133023   0.411   5.314  16.992 -0.6532  0.8429 -0.7278
 3844TIP3    H233024   0.503   5.431  16.966  1.7269 -0.5634  1.1250
 3845TIP3   OH233025   2.924   5.434  17.108 -0.4598  0.0957 -0.2106
 3845TIP3    H133026   2.915   5.339  17.103  1.0431 -0.0536 -0.3028
 3845TIP3    H233027   2.923   5.453  17.202 -0.9183  0.0155 -0.1960
 3846TIP3   OH233028   0.926   1.915  16.932  0.0252  0.0877 -0.0611
 3846TIP3    H133029   0.885   1.831  16.910 -3.6942  1.4373  1.2742
 3846TIP3    H233030   0.958   1.949  16.848  0.2947 -1.9813 -0.8279
 3847TIP3   OH233031   1.776   0.683  14.449  0.4175 -0.4173 -0.6060
 3847TIP3    H133032   1.776   0.772  14.483 -0.6115 -0.6760  0.0965
 3847TIP3    H233033   1.859   0.645  14.479 -0.5038 -0.6783  1.7321
 3848TIP3   OH233034   4.637   4.532   4.262  0.0845 -0.2131  0.0961
 3848TIP3    H133035   4.544   4.516   4.251  0.1039 -0.1518 -0.1599
 3848TIP3    H233036   4.660   4.488   4.344  0.1294 -1.4266 -0.5549
 3849TIP3   OH233037   2.609   3.023  15.501  1.0775 -0.1905  0.4830
 3849TIP3    H133038   2.613   2.945  15.445 -1.0407  0.6375 -0.8846
 3849TIP3    H233039   2.612   3.097  15.440 -2.0473  0.7207  1.3743
 3850TIP3   OH233040   0.419   6.452  11.663 -0.7228 -0.1056  0.2556
 3850TIP3    H133041   0.498   6.416  11.702 -1.8114 -1.0204  1.6924
 3850TIP3    H233042   0.422   6.424  11.572  1.3198  1.1176 -0.0743
 3851TIP3   OH233043   2.057   0.885  13.232  0.3158 -0.2390 -0.5033
 3851TIP3    H133044   1.997   0.813  13.215  0.9121 -0.7927 -0.2645
 3851TIP3    H233045   2.093   0.868  13.319  0.6511  0.2075 -0.5470
 3852TIP3   OH233046   3.891   3.787  17.150  0.3819  0.3088  0.2288
 3852TIP3    H133047   3.828   3.809  17.082  0.8289  0.0043 -0.2831
 3852TIP3    H233048   3.884   3.859  17.213 -0.0911  0.5465 -0.0928
 3853TIP3   OH233049   3.752   0.209   5.592  0.1675  0.2286 -0.7767
 3853TIP3    H133050   3.788   0.121   5.598  1.5581  0.7203 -1.6208
 3853TIP3    H233051   3.782   0.242   5.507 -0.1788  1.5815 -0.3972
 3854TIP3   OH233052   0.669   4.884   2.811  0.0560 -0.2336 -0.3915
 3854TIP3    H133053   0.654   4.915   2.901 -0.2714  1.9621 -1.1711
 3854TIP3    H233054   0.582   4.887   2.771  0.3806 -0.1215 -1.0935
 3855TIP3   OH233055   1.020   4.744  15.951 -0.5533 -0.1590 -0.5940
 3855TIP3    H133056   1.008   4.652  15.977  2.0585 -0.0251  1.2738
 3855TIP3    H233057   1.086   4.741  15.883  0.8429  0.4694  0.7157
 3856TIP3   OH233058   3.531   0.305   0.982 -0.3976 -0.1512 -0.5661
 3856TIP3    H133059   3.462   0.369   0.995  0.0411  0.2958 -0.4624
 3856TIP3    H233060   3.493   0.223   1.013 -0.8297  0.1169 -0.3804
 3857TIP3   OH233061   6.295   5.068   5.556  0.2201  0.6035 -0.2706
 3857TIP3    H133062   6.347   5.110   5.487 -0.2231 -1.1393 -1.6859
 3857TIP3    H233063   6.248   5.141   5.598  1.9442  1.9057 -0.5481
 3858TIP3   OH233064   1.491   4.502   3.856 -0.0976  0.4967  0.6152
 3858TIP3    H133065   1.531   4.589   3.857  1.3023 -0.1167 -0.6944
 3858TIP3    H233066   1.397   4.518   3.863 -0.1469  2.3114 -3.2744
 3859TIP3   OH233067   2.915   3.243  14.899 -0.1148  0.2703  0.0623
 3859TIP3    H133068   2.825   3.216  14.881  0.3341 -0.6020 -0.8963
 3859TIP3    H233069   2.906   3.327  14.943 -1.3504  0.8389 -1.2418
 3860TIP3   OH233070   3.133   5.077  14.403  0.3276 -0.0614  0.1885
 3860TIP3    H133071   3.179   4.996  14.424  2.4880  1.5356  1.8735
 3860TIP3    H233072   3.199   5.133  14.363 -1.2878  0.6704 -1.5501
 3861TIP3   OH233073   0.965   2.440  16.378  0.2991  0.0112 -0.3927
 3861TIP3    H133074   1.005   2.493  16.309  1.8555  0.8153  1.0589
 3861TIP3    H233075   1.040   2.399  16.423 -0.6070  0.1572  1.3096
 3862TIP3   OH233076   0.579   0.482   1.545  0.3756  0.2160 -0.0020
 3862TIP3    H133077   0.572   0.387   1.547 -0.4623  0.2278 -1.4769
 3862TIP3    H233078   0.652   0.499   1.486 -0.0782  0.5058 -0.4824
 3863TIP3   OH233079   0.656   2.981   5.754 -0.3668 -0.2069  0.6159
 3863TIP3    H133080   0.621   3.065   5.725  1.1774 -0.0995 -1.0378
 3863TIP3    H233081   0.580   2.923   5.755 -1.4368  1.1760  1.7230
 3864TIP3   OH233082   2.392   2.596   2.086  0.4377 -0.0601  0.0956
 3864TIP3    H133083   2.309   2.559   2.055  0.4800  0.4348 -0.6233
 3864TIP3    H233084   2.379   2.691   2.080  1.1919  0.0203 -0.3903
 3865TIP3   OH233085   2.616   1.770  11.627  0.0413 -0.1018  0.2422
 3865TIP3    H133086   2.651   1.856  11.603  0.9856 -0.5886 -0.1636
 3865TIP3    H233087   2.663   1.709  11.570  1.2232 -1.1292  2.2881
 3866TIP3   OH233088   4.470   5.732   0.421  0.2195  0.2840  0.2983
 3866TIP3    H133089   4.513   5.648   0.409  0.8389  0.5047  0.9417
 3866TIP3    H233090   4.493   5.759   0.510 -1.9766 -0.0035  0.9936
 3867TIP3   OH233091   0.483   5.888  15.012  0.2033 -0.1076  0.2298
 3867TIP3    H133092   0.448   5.879  15.101 -0.8106  1.0697 -0.0332
 3867TIP3    H233093   0.468   5.980  14.990  0.7554 -0.3118 -1.0324
 3868TIP3   OH233094   5.622   0.321  13.303 -0.2796 -0.5072 -0.1200
 3868TIP3    H133095   5.550   0.366  13.260 -0.8374 -1.6677 -0.4300
 3868TIP3    H233096   5.635   0.368  13.385  0.5862  1.5336 -1.4011
 3869TIP3   OH233097   4.258   0.504  14.725 -0.0448 -0.5255  0.3256
 3869TIP3    H133098   4.235   0.597  14.726  1.4389 -0.1345 -0.2828
 3869TIP3    H233099   4.269   0.481  14.818 -1.6209 -0.4287  0.5551
 3870TIP3   OH233100   5.317   4.121  14.718 -0.0689 -0.3733  0.0833
 3870TIP3    H133101   5.244   4.133  14.657  1.0246  0.1004 -1.1631
 3870TIP3    H233102   5.355   4.036  14.694  0.5941 -0.0148 -0.1565
 3871TIP3   OH233103   4.080   1.689   2.929  0.1163 -0.2613  0.2005
 3871TIP3    H133104   4.021   1.763   2.912 -2.8354 -2.4705  0.6077
 3871TIP3    H233105   4.137   1.720   3.000 -1.4600  1.4060  0.7679
 3872TIP3   OH233106   2.317   5.691  14.500  0.8526 -0.0971  0.2824
 3872TIP3    H133107   2.365   5.732  14.572 -0.9724  0.7405  1.0511
 3872TIP3    H233108   2.269   5.619  14.540  0.5191 -0.1726 -0.2466
 3873TIP3   OH233109   4.779   3.199  10.051 -0.1594  0.4458 -0.2390
 3873TIP3    H133110   4.745   3.286  10.071 -0.0479  0.1902  1.1123
 3873TIP3    H233111   4.874   3.207  10.064  0.0636  0.5742 -1.8216
 3874TIP3   OH233112   1.587   1.365   4.700 -0.6175  0.2743 -0.7226
 3874TIP3    H133113   1.528   1.292   4.681 -0.8842  0.3155 -0.0518
 3874TIP3    H233114   1.570   1.387   4.792 -0.0300  0.7160 -0.7169
 3875TIP3   OH233115   0.109   6.257   0.475 -0.3249 -0.0735 -0.4172
 3875TIP3    H133116   0.036   6.316   0.455 -0.6932 -0.7712 -1.1625
 3875TIP3    H233117   0.155   6.299   0.548 -0.4136  1.2846 -1.1351
 3876TIP3   OH233118   6.396   3.709   2.020  0.2690 -0.6150 -0.3238
 3876TIP3    H133119   6.486   3.689   1.992  0.5769  1.8547 -1.2094
 3876TIP3    H233120   6.406   3.747   2.107  0.1940  0.7348 -0.8991
 3877TIP3   OH233121   1.882   0.424   1.871 -0.9407  0.0803 -0.2368
 3877TIP3    H133122   1.896   0.415   1.966  0.7566  0.5713 -0.4158
 3877TIP3    H233123   1.790   0.449   1.863 -0.7089  1.6111  1.3969
 3878TIP3   OH233124   0.175   3.123  10.991 -0.0896 -0.2558  0.1944
 3878TIP3    H133125   0.207   3.071  11.065 -1.4434 -1.5234 -0.0786
 3878TIP3    H233126   0.083   3.097  10.981 -0.1007  0.3417 -1.5420
 3879TIP3   OH233127   0.449   1.304  12.118 -0.5651 -0.0723  0.2726
 3879TIP3    H133128   0.445   1.210  12.135  0.4832 -0.3356 -0.8416
 3879TIP3    H233129   0.542   1.324  12.112 -0.7870  0.9476  0.0266
 3880TIP3   OH233130   2.750   3.797   0.155 -0.0685 -0.0169 -0.5727
 3880TIP3    H133131   2.699   3.809   0.074 -1.0565 -1.5176 -0.1829
 3880TIP3    H233132   2.826   3.746   0.128 -1.9422 -3.1892 -0.0225
 3881TIP3   OH233133   5.320   5.176  12.072 -0.2820 -0.0400  0.9230
 3881TIP3    H133134   5.299   5.083  12.079  1.1783 -0.5455 -0.9259
 3881TIP3    H233135   5.252   5.212  12.015  0.3225 -0.4076 -0.0385
 3882TIP3   OH233136   0.482   0.514  14.382 -0.3071 -0.2575  0.6079
 3882TIP3    H133137   0.537   0.449  14.426  0.0109 -0.1751  0.3343
 3882TIP3    H233138   0.526   0.597  14.398  1.2056 -0.4967 -1.9907
 3883TIP3   OH233139   2.473   3.019   4.240  0.5655  0.0947 -0.1884
 3883TIP3    H133140   2.496   3.088   4.179  1.4257  0.7137  0.8129
 3883TIP3    H233141   2.428   3.064   4.312 -1.6285 -0.7929 -0.9720
 3884TIP3   OH233142   0.375   1.009  15.909  0.2436 -0.0678 -0.0935
 3884TIP3    H133143   0.388   0.936  15.970  1.4928  0.3916  0.2029
 3884TIP3    H233144   0.435   1.077  15.940 -0.3387  0.7939 -0.8406
 3885TIP3   OH233145   0.767   3.907  15.311  0.1917 -0.3695 -0.4418
 3885TIP3    H133146   0.745   3.968  15.381  0.6569  1.2475 -1.6651
 3885TIP3    H233147   0.683   3.871  15.282 -0.1116 -0.1042  0.1028
 3886TIP3   OH233148   2.012   2.385   4.511 -0.1615 -0.3839 -0.1385
 3886TIP3    H133149   2.063   2.365   4.433  1.4115  0.7995  0.5653
 3886TIP3    H233150   2.008   2.302   4.559 -2.0561 -1.3900 -1.9665
 3887TIP3   OH233151   4.012   2.719   4.738 -0.4086 -0.0902 -0.5400
 3887TIP3    H133152   4.008   2.815   4.747  0.2010 -0.1534  0.4193
 3887TIP3    H233153   3.988   2.686   4.824  1.2122 -0.7726 -0.3461
 3888TIP3   OH233154   3.570   3.634   1.889 -0.1625  0.3410  0.7388
 3888TIP3    H133155   3.631   3.601   1.823  0.7488  0.3919  1.5464
 3888TIP3    H233156   3.616   3.623   1.972 -0.8391  1.3597  1.2601
 3889TIP3   OH233157   0.583   0.459   0.222 -0.0916 -0.2697  0.1896
 3889TIP3    H133158   0.600   0.375   0.178  0.8002 -0.3723  0.7134
 3889TIP3    H233159   0.650   0.463   0.291 -2.5149 -0.9125  2.6667
 3890TIP3   OH233160   4.520   5.514  12.888  0.3859 -0.5057 -0.5139
 3890TIP3    H133161   4.546   5.489  12.977 -1.8960  0.1649  0.3758
 3890TIP3    H233162   4.545   5.606  12.880  1.3150 -0.7898 -0.8434
 3891TIP3   OH233163   0.935   5.994   1.608  0.3941  0.2139 -0.4987
 3891TIP3    H133164   0.942   6.089   1.600  1.3027  0.0542 -1.7982
 3891TIP3    H233165   0.909   5.965   1.520 -0.3293 -0.6991  0.0123
 3892TIP3   OH233166   5.763   1.842   4.826 -0.0534  0.0874 -0.0949
 3892TIP3    H133167   5.778   1.893   4.747  0.6514  0.7219  0.4415
 3892TIP3    H233168   5.669   1.823   4.824 -0.4427  1.8584 -0.0542
 3893TIP3   OH233169   4.027   6.060  12.472  0.3690 -0.5028 -0.5759
 3893TIP3    H133170   3.975   6.129  12.432  3.1173  1.5581 -0.7053
 3893TIP3    H233171   4.042   6.089  12.561  1.8746 -0.7565 -0.7456
 3894TIP3   OH233172   5.395   6.081   1.317 -0.2973 -0.3610  0.1633
 3894TIP3    H133173   5.489   6.065   1.315 -0.0295  1.2046 -0.6917
 3894TIP3    H233174   5.376   6.101   1.409  0.5540  1.2214  0.0129
 3895TIP3   OH233175   0.194   0.107  12.670  0.0698  0.4717 -0.1921
 3895TIP3    H133176   0.160   0.035  12.616  1.5867  0.7849 -1.6281
 3895TIP3    H233177   0.204   0.180  12.609  1.8158  0.8424  0.5067
 3896TIP3   OH233178   1.095   0.822   3.495 -0.2701 -0.3986 -0.0062
 3896TIP3    H133179   1.017   0.875   3.514 -0.5624 -1.0315  0.5644
 3896TIP3    H233180   1.149   0.879   3.439 -1.4978 -0.2496 -1.0727
 3897TIP3   OH233181   6.019   2.114  12.421 -0.0438 -0.5716 -0.0668
 3897TIP3    H133182   6.048   2.030  12.457  0.4618 -0.4270 -0.1314
 3897TIP3    H233183   6.094   2.145  12.371 -0.0518  0.1583  0.3714
 3898TIP3   OH233184   6.198   3.948  12.047  0.0155 -0.2436 -0.0009
 3898TIP3    H133185   6.125   4.009  12.054  1.1292  1.2061 -0.7452
 3898TIP3    H233186   6.197   3.919  11.955  0.9711  0.5656 -0.2795
 3899TIP3   OH233187   0.927   4.492   4.958 -0.2630  0.4850  0.1579
 3899TIP3    H133188   1.013   4.531   4.976  0.1995 -0.4094 -0.0687
 3899TIP3    H233189   0.934   4.402   4.991 -0.5486 -0.1020 -1.3083
 3900TIP3   OH233190   3.926   1.889   6.065  0.5372  0.4978  0.0358
 3900TIP3    H133191   3.931   1.795   6.082  0.4670  0.6684  1.0593
 3900TIP3    H233192   3.986   1.904   5.992  0.0974 -0.4287 -0.5231
 3901TIP3   OH233193   5.211   2.414   4.040 -0.3178  0.3517  0.3486
 3901TIP3    H133194   5.183   2.492   3.991 -0.0414  0.2026 -0.0558
 3901TIP3    H233195   5.245   2.448   4.122  1.4962  0.8233 -0.5621
 3902TIP3   OH233196   1.392   2.795  14.268 -0.6818  0.0577 -0.0208
 3902TIP3    H133197   1.469   2.803  14.325 -0.7550 -0.8856  0.2209
 3902TIP3    H233198   1.327   2.853  14.307 -0.9822 -1.1357  1.2890
 3903TIP3   OH233199   0.587   6.372   2.446 -0.2529  0.6203  0.3921
 3903TIP3    H133200   0.576   6.278   2.436 -2.5301  0.9364 -0.6049
 3903TIP3    H233201   0.497   6.407   2.442  0.5946  2.8713  0.0631
 3904TIP3   OH233202   0.727   4.860   1.868 -0.0553  0.0347  0.1219
 3904TIP3    H133203   0.793   4.928   1.854 -0.3698  0.5728  1.1458
 3904TIP3    H233204   0.669   4.897   1.935 -0.8803 -0.7887 -0.1256
 3905TIP3   OH233205   2.569   3.347   3.946 -0.6731 -0.0359 -0.4777
 3905TIP3    H133206   2.520   3.265   3.944  0.0051 -0.4803  0.8509
 3905TIP3    H233207   2.566   3.379   3.855  0.5720 -2.4206 -1.3825
 3906TIP3   OH233208   5.719   0.181  11.803 -0.5010  1.1511 -0.2216
 3906TIP3    H133209   5.804   0.184  11.847 -0.0628  0.6289 -1.0202
 3906TIP3    H233210   5.732   0.233  11.723 -0.3908 -0.4400 -1.2556
 3907TIP3   OH233211   5.874   3.869  16.391  0.0489  0.0506 -0.2790
 3907TIP3    H133212   5.801   3.831  16.343  0.8124 -0.6837 -0.8851
 3907TIP3    H233213   5.893   3.805  16.460  0.5106 -0.0700 -0.5124
 3908TIP3   OH233214   4.607   6.215   3.576 -0.4107 -0.3297  0.0360
 3908TIP3    H133215   4.669   6.287   3.584 -2.7516  1.7185 -0.0171
 3908TIP3    H233216   4.592   6.186   3.666 -0.9720  0.5616  0.2356
 3909TIP3   OH233217   1.372   6.616   5.005  0.3529  0.3820  0.1117
 3909TIP3    H133218   1.421   6.534   5.015  0.1953  0.0643 -1.5764
 3909TIP3    H233219   1.431   6.683   5.039  1.8154 -0.0372 -1.5606
 3910TIP3   OH233220   1.422   1.380   6.662 -0.1012  0.5605  0.1880
 3910TIP3    H133221   1.498   1.362   6.606 -0.5141  0.4323 -0.3450
 3910TIP3    H233222   1.437   1.329   6.741  0.6144  0.9369  0.2978
 3911TIP3   OH233223   2.561   3.619   3.011 -0.2047  0.4093 -0.2830
 3911TIP3    H133224   2.574   3.642   3.103 -3.1361 -0.2826  0.3712
 3911TIP3    H233225   2.643   3.577   2.985 -0.1286 -1.4824  2.7027
 3912TIP3   OH233226   2.279   5.437  16.540  0.0223 -0.1308  0.1057
 3912TIP3    H133227   2.274   5.443  16.635 -0.3152  0.1698  0.0688
 3912TIP3    H233228   2.348   5.373  16.523 -0.2817 -0.5855  0.5624
 3913TIP3   OH233229   5.976   0.321   3.930 -0.5887 -0.0955  0.2494
 3913TIP3    H133230   5.908   0.309   3.864 -0.2094  0.9608 -0.3387
 3913TIP3    H233231   6.014   0.407   3.911  0.2058 -0.2199  1.2158
 3914TIP3   OH233232   2.087   2.093   4.624 -0.5631  0.0796 -0.4527
 3914TIP3    H133233   1.995   2.079   4.602 -0.6433  0.5470 -0.4215
 3914TIP3    H233234   2.113   2.013   4.670 -0.9955  0.0085 -0.3295
 3915TIP3   OH233235   6.273   1.367   1.900 -0.1936  0.1319 -0.1434
 3915TIP3    H133236   6.280   1.345   1.993 -0.1673 -0.3693 -0.2622
 3915TIP3    H233237   6.207   1.308   1.866  1.3943 -1.2482 -0.9125
 3916TIP3   OH233238   1.431   1.226   3.836  0.4735 -0.0004 -0.1222
 3916TIP3    H133239   1.471   1.312   3.823  0.0290  0.0289 -1.3350
 3916TIP3    H233240   1.442   1.181   3.752  0.5630 -1.0663  0.4538
 3917TIP3   OH233241   1.772   5.801   3.718  0.3123  0.3589 -0.9040
 3917TIP3    H133242   1.776   5.790   3.813 -0.9008 -0.2895 -0.9299
 3917TIP3    H233243   1.856   5.842   3.696  1.5008 -1.4294  0.1807
 3918TIP3   OH233244   6.270   6.225   3.791  0.5089  0.7176  0.4339
 3918TIP3    H133245   6.219   6.144   3.790  2.2267 -0.3843  0.2685
 3918TIP3    H233246   6.247   6.269   3.709  0.3797 -0.1369  0.0039
 3919TIP3   OH233247   4.185   0.681   2.888 -0.6608  0.3985 -0.1743
 3919TIP3    H133248   4.133   0.756   2.860  1.1049  2.1320  1.0726
 3919TIP3    H233249   4.265   0.719   2.925 -0.2585 -2.0349  1.6227
 3920TIP3   OH233250   5.491   6.454   3.023 -0.0385  0.1776  0.0446
 3920TIP3    H133251   5.478   6.433   2.930 -1.8649  0.9216  0.1162
 3920TIP3    H233252   5.557   6.523   3.023  2.0030 -1.7037 -0.5099
 3921TIP3   OH233253   2.970   3.746   5.352  0.8723 -0.2423 -0.1628
 3921TIP3    H133254   3.017   3.787   5.280  1.7478 -0.6179  0.1900
 3921TIP3    H233255   2.880   3.738   5.321  1.3194 -0.7025 -1.3483
 3922TIP3   OH233256   4.384   3.617  13.524 -0.2660 -0.4474 -0.1730
 3922TIP3    H133257   4.436   3.668  13.461 -2.3592  0.9308 -0.8499
 3922TIP3    H233258   4.333   3.557  13.470  0.0759 -1.2962  0.4339
 3923TIP3   OH233259   4.087   1.759  12.904  0.1239 -0.4053 -0.5098
 3923TIP3    H133260   4.019   1.695  12.882 -1.5257  0.7052  1.2159
 3923TIP3    H233261   4.161   1.736  12.847 -1.6445 -1.7022 -2.3633
 3924TIP3   OH233262   5.908   2.387   6.305 -0.4689  0.0042 -0.3574
 3924TIP3    H133263   5.862   2.394   6.389 -1.3902 -0.2892 -0.8340
 3924TIP3    H233264   6.000   2.383   6.329 -0.8830 -3.4609  0.8455
 3925TIP3   OH233265   3.333   5.629  15.316  0.2613 -0.0675 -0.2617
 3925TIP3    H133266   3.330   5.541  15.279 -4.0866 -0.8554  1.5770
 3925TIP3    H233267   3.280   5.682  15.257  0.3688  0.5955  0.2305
 3926TIP3   OH233268   4.049   5.696   4.339 -0.4546 -0.0196 -0.3191
 3926TIP3    H133269   3.967   5.744   4.351  1.1170  2.3600  1.4669
 3926TIP3    H233270   4.052   5.634   4.412  0.4470  1.6093  1.0628
 3927TIP3   OH233271   4.645   1.130   4.141 -0.4456  0.6030  0.3084
 3927TIP3    H133272   4.688   1.052   4.106  0.8745  1.5526 -0.2170
 3927TIP3    H233273   4.591   1.163   4.069  0.2027  1.0467  0.0214
 3928TIP3   OH233274   0.854   1.631   1.154  0.2686 -0.1221 -0.4346
 3928TIP3    H133275   0.935   1.609   1.200  0.2795  1.6086  0.4012
 3928TIP3    H233276   0.794   1.661   1.223  0.4022  2.8369 -1.5324
 3929TIP3   OH233277   4.573   0.346  13.040 -0.0781 -0.1901 -0.2027
 3929TIP3    H133278   4.653   0.392  13.065 -0.5213  1.3304 -1.4949
 3929TIP3    H233279   4.502   0.402  13.072 -0.6338 -1.7658  1.3541
 3930TIP3   OH233280   1.935   2.384   2.493  0.2608 -0.0954 -0.3875
 3930TIP3    H133281   1.869   2.396   2.425  0.8418 -2.1933 -1.3680
 3930TIP3    H233282   1.980   2.469   2.499 -1.0031  0.6421 -1.3206
 3931TIP3   OH233283   1.155   4.818  14.450 -0.7941 -0.1749 -0.5896
 3931TIP3    H133284   1.164   4.890  14.388  0.2997  0.5471  0.3857
 3931TIP3    H233285   1.083   4.844  14.507 -0.6453 -0.0267 -0.4692
 3932TIP3   OH233286   2.341   4.484  14.319 -0.2903 -0.6565 -0.3208
 3932TIP3    H133287   2.404   4.504  14.250 -0.1761 -1.4679 -0.4559
 3932TIP3    H233288   2.270   4.547  14.306  0.0548 -0.3560 -0.7450
 3933TIP3   OH233289   4.545   5.349   2.182 -0.4004 -0.3943 -0.3324
 3933TIP3    H133290   4.629   5.368   2.223 -1.5456  1.7411  1.1584
 3933TIP3    H233291   4.559   5.364   2.088  1.0249 -0.6378 -0.1568
 3934TIP3   OH233292   0.450   5.295  14.198  0.3454  1.1332 -0.2828
 3934TIP3    H133293   0.356   5.308  14.185  0.5504  3.0129 -0.0736
 3934TIP3    H233294   0.491   5.353  14.134  1.3642  0.4932 -0.2175
 3935TIP3   OH233295   4.688   6.674   2.080  0.4706  0.0058 -0.3041
 3935TIP3    H133296   4.696   6.762   2.115 -0.4768 -0.1410  0.3049
 3935TIP3    H233297   4.595   6.654   2.086  0.8510 -1.5667  0.9007
 3936TIP3   OH233298   0.808   6.205  12.386 -1.0183 -0.3200 -0.4255
 3936TIP3    H133299   0.771   6.216  12.298 -1.1169 -1.7176 -0.5635
 3936TIP3    H233300   0.814   6.111  12.398  2.1800 -0.1814 -0.2925
 3937TIP3   OH233301   2.658   0.174   2.842  0.1767 -0.7275 -0.0902
 3937TIP3    H133302   2.602   0.119   2.897  0.7536 -0.7422  0.4831
 3937TIP3    H233303   2.624   0.263   2.854 -0.2010 -0.8398 -0.3314
 3938TIP3   OH233304   2.632   1.857   2.347  0.2547 -0.0349  0.0313
 3938TIP3    H133305   2.621   1.772   2.389 -1.6927  0.6123  0.8773
 3938TIP3    H233306   2.545   1.881   2.316  1.0029  1.1107 -1.2683
 3939TIP3   OH233307   5.746   3.094   5.927 -0.0217  0.6215  0.0575
 3939TIP3    H133308   5.703   3.090   5.842  1.2192 -2.3305 -0.5183
 3939TIP3    H233309   5.832   3.133   5.908  0.3792 -0.3292 -0.1389
 3940TIP3   OH233310   0.475   5.626  13.455  0.6566  0.0323 -0.1432
 3940TIP3    H133311   0.497   5.541  13.494  0.2250 -0.6168 -1.2761
 3940TIP3    H233312   0.456   5.683  13.529  3.0894 -0.2408  0.7432
 3941TIP3   OH233313   3.352   2.511  14.311 -0.2405 -0.0925  0.2842
 3941TIP3    H133314   3.350   2.590  14.258  0.6472  0.1935  0.6625
 3941TIP3    H233315   3.442   2.478  14.303 -0.3483 -0.5532  0.8630
 3942TIP3   OH233316   0.723   1.356  12.165 -0.1904  0.3133 -0.0888
 3942TIP3    H133317   0.806   1.392  12.134 -0.6110  0.7233 -0.7376
 3942TIP3    H233318   0.744   1.318  12.251  1.3626 -2.3018 -1.5743
 3943TIP3   OH233319   2.684   0.188   4.042 -0.2117 -0.2324  0.7153
 3943TIP3    H133320   2.637   0.249   4.100 -0.2254  1.3467 -0.9120
 3943TIP3    H233321   2.774   0.219   4.043 -0.6356  1.2337 -1.8613
 3944TIP3   OH233322   4.412   2.615  12.554 -0.2906 -0.3729  0.0778
 3944TIP3    H133323   4.449   2.665  12.627 -2.9648  0.4596  0.9370
 3944TIP3    H233324   4.438   2.664  12.476 -1.8574  1.7499  0.8389
 3945TIP3   OH233325   1.714   6.685  12.868 -0.2997  0.0192 -0.0605
 3945TIP3    H133326   1.677   6.677  12.780 -0.0953 -2.2031  0.0265
 3945TIP3    H233327   1.640   6.675  12.927 -0.2629  0.3426  0.0430
 3946TIP3   OH233328   6.814   1.219  13.203 -0.1978  0.1793  0.4757
 3946TIP3    H133329   6.773   1.143  13.161 -0.6269  1.9216 -2.4071
 3946TIP3    H233330   6.741   1.281  13.216  0.5116  0.9706  0.7296
 3947TIP3   OH233331   0.582   4.482   3.898  0.1043 -1.0140 -0.4779
 3947TIP3    H133332   0.589   4.469   3.804  1.5016 -1.7291 -0.2787
 3947TIP3    H233333   0.502   4.533   3.909  1.2034  1.1603 -2.2394
 3948TIP3   OH233334   4.489   1.231  11.532  0.6899  0.3544 -0.6948
 3948TIP3    H133335   4.458   1.195  11.449 -0.8833 -0.6757  0.3087
 3948TIP3    H233336   4.432   1.192  11.598  3.4096 -0.7456  1.1247
 3949TIP3   OH233337   1.297   0.214   5.121 -0.1790 -0.6407 -0.3617
 3949TIP3    H133338   1.277   0.286   5.181  0.0802 -1.5118  0.8001
 3949TIP3    H233339   1.355   0.252   5.055 -1.0867  0.5189 -0.5012
 3950TIP3   OH233340   5.453   5.864  14.304  0.0316 -0.7910  0.6679
 3950TIP3    H133341   5.371   5.889  14.261  0.6232  0.8008  0.4177
 3950TIP3    H233342   5.442   5.891  14.395  1.5895  2.7174 -0.1151
 3951TIP3   OH233343   4.236   3.580  12.539  0.0962 -0.2987 -0.5038
 3951TIP3    H133344   4.254   3.561  12.447  0.1703 -0.0131 -0.5474
 3951TIP3    H233345   4.254   3.497  12.584  0.8338 -0.2153 -0.6424
 3952TIP3   OH233346   3.316   6.573  14.835  0.4536 -0.4490 -0.0363
 3952TIP3    H133347   3.358   6.658  14.821 -1.0802  0.6202  1.4793
 3952TIP3    H233348   3.241   6.573  14.775  0.6051 -0.8460 -0.2246
 3953TIP3   OH233349   2.620   3.315   5.006 -0.0017  0.2718 -0.3527
 3953TIP3    H133350   2.687   3.366   4.960  1.7099 -1.5460  0.0178
 3953TIP3    H233351   2.579   3.262   4.939  0.6935 -0.4766 -0.1868
 3954TIP3   OH233352   5.614   1.999   3.632  0.7165 -0.1815  0.1394
 3954TIP3    H133353   5.639   2.052   3.556  2.0083 -1.1018 -0.0900
 3954TIP3    H233354   5.678   2.022   3.699 -0.1327  0.2697  0.7993
 3955TIP3   OH233355   5.459   3.014   3.276  0.4092  0.0395 -0.2146
 3955TIP3    H133356   5.492   2.930   3.308  0.1257  0.1244  0.3060
 3955TIP3    H233357   5.413   3.052   3.351  0.4100  0.5936 -0.4928
 3956TIP3   OH233358   4.260   2.211   0.151  0.0147  0.3145 -0.3790
 3956TIP3    H133359   4.351   2.231   0.171  0.4271 -1.0425 -0.8651
 3956TIP3    H233360   4.257   2.116   0.141 -1.7188  0.1952  0.9682
 3957TIP3   OH233361   3.967   3.173   0.191 -0.6134 -0.3608 -0.5999
 3957TIP3    H133362   4.022   3.119   0.248 -0.4558  0.4981  0.0857
 3957TIP3    H233363   3.905   3.112   0.152 -1.1485 -0.8740  1.0026
 3958TIP3   OH233364   1.349   3.361  11.564  0.0134  0.4428 -0.1441
 3958TIP3    H133365   1.274   3.383  11.621 -0.9394 -1.5615 -0.5788
 3958TIP3    H233366   1.310   3.345  11.478  0.8715 -1.1291 -0.2520
 3959TIP3   OH233367   5.024   5.103   0.980  0.5054 -0.4432  0.1813
 3959TIP3    H133368   5.118   5.093   0.996  0.6857 -0.4671 -0.8625
 3959TIP3    H233369   5.002   5.031   0.920 -0.4317 -1.1815  1.3564
 3960TIP3   OH233370   3.278   2.917  16.075  0.6146 -0.0422  0.1138
 3960TIP3    H133371   3.219   2.906  16.150  1.9212  1.8675  1.4707
 3960TIP3    H233372   3.354   2.863  16.097  0.3152 -0.7915 -0.6441
 3961TIP3   OH233373   6.449   1.587  11.924 -0.2115  0.1507  0.1973
 3961TIP3    H133374   6.531   1.538  11.926  0.2265  0.8259 -0.8828
 3961TIP3    H233375   6.428   1.596  11.831 -1.4004  0.1716  0.4543
 3962TIP3   OH233376   3.359   4.406   1.037  0.0568 -0.0185  0.0194
 3962TIP3    H133377   3.284   4.363   1.078 -1.3560  2.2834 -0.0580
 3962TIP3    H233378   3.333   4.415   0.945 -0.4235  2.5043  0.3683
 3963TIP3   OH233379   0.496   1.346  12.572  0.8564  0.4292 -0.3268
 3963TIP3    H133380   0.449   1.329  12.653  0.5077  1.4382 -0.3029
 3963TIP3    H233381   0.586   1.318  12.589  0.7479  0.4877  0.3575
 3964TIP3   OH233382   4.778   4.067  11.377 -0.5912 -0.1825  0.1758
 3964TIP3    H133383   4.803   4.010  11.305 -1.8664  0.4617 -0.8117
 3964TIP3    H233384   4.836   4.043  11.449  0.1121 -1.4357 -0.7968
 3965TIP3   OH233385   5.999   0.902   5.337  0.0556 -0.3808  0.6806
 3965TIP3    H133386   6.020   0.995   5.341 -1.4906  0.0157  0.0721
 3965TIP3    H233387   5.903   0.899   5.336  0.0869 -1.9690  0.5462
 3966TIP3   OH233388   4.121   4.908   2.293 -0.4282  0.1004 -0.2038
 3966TIP3    H133389   4.201   4.959   2.303 -0.4148  0.4424 -1.9170
 3966TIP3    H233390   4.136   4.855   2.214 -1.4397 -0.6858  0.1145
 3967TIP3   OH233391   1.842   1.326   2.890 -0.1952  0.4852  0.6816
 3967TIP3    H133392   1.845   1.409   2.842  1.6380 -1.0949 -2.0177
 3967TIP3    H233393   1.757   1.289   2.869  0.5210 -0.1072 -1.2138
 3968TIP3   OH233394   4.319   3.527   0.732  0.2536 -0.2035 -0.2805
 3968TIP3    H133395   4.265   3.520   0.653  0.5590 -0.5182 -0.4609
 3968TIP3    H233396   4.388   3.589   0.709 -2.2929  3.3788  1.2316
 3969TIP3   OH233397   0.800   3.301   3.423 -0.5613 -0.0472 -0.1986
 3969TIP3    H133398   0.783   3.215   3.460 -0.4706  0.9535  2.2848
 3969TIP3    H233399   0.718   3.349   3.435  0.5559  1.4335  2.1357
 3970TIP3   OH233400   4.436   6.597   3.002  0.2757 -0.0302 -0.1040
 3970TIP3    H133401   4.385   6.645   2.937  0.2916  2.0016  1.3246
 3970TIP3    H233402   4.508   6.558   2.953  0.2527  1.4321 -1.3193
 3971TIP3   OH233403   1.108   0.266  11.517 -0.9852 -0.2386  0.2894
 3971TIP3    H133404   1.157   0.218  11.451 -2.7576 -1.6650 -0.0418
 3971TIP3    H233405   1.101   0.205  11.591  0.6250  1.1863  1.6596
 3972TIP3   OH233406   4.423   2.755  17.224 -0.2121 -0.0610 -0.7128
 3972TIP3    H133407   4.356   2.814  17.258  2.1215  1.2785  1.7230
 3972TIP3    H233408   4.397   2.668  17.256 -0.4280  0.5475  0.7909
 3973TIP3   OH233409   5.089   2.058  16.200 -0.2417 -0.2060  0.2263
 3973TIP3    H133410   5.058   2.051  16.290 -0.0293 -2.3066  0.1542
 3973TIP3    H233411   5.023   2.112  16.156 -1.8799 -1.5806  0.9524
 3974TIP3   OH233412   4.730   2.890   5.088  0.2089  0.4779 -0.1562
 3974TIP3    H133413   4.702   2.862   5.001 -3.4922  0.6573  0.9256
 3974TIP3    H233414   4.718   2.812   5.143 -1.5746  1.5801  1.0397
 3975TIP3   OH233415   2.762   2.148   1.525  0.2505  0.3253  0.3905
 3975TIP3    H133416   2.778   2.223   1.582 -1.9623  0.8614  0.3383
 3975TIP3    H233417   2.704   2.182   1.457  0.8930 -0.9300 -0.8072
 3976TIP3   OH233418   6.414   6.746  11.487  0.5239 -0.0888 -0.2961
 3976TIP3    H133419   6.393   6.826  11.535  1.2936  1.1204 -1.9206
 3976TIP3    H233420   6.359   6.678  11.528  0.5491  1.0516  1.7105
 3977TIP3   OH233421   3.536   2.093   6.350 -0.1254  0.1207  0.3994
 3977TIP3    H133422   3.469   2.025   6.342 -1.0239  0.8931  1.1181
 3977TIP3    H233423   3.619   2.048   6.337 -0.6455 -1.3182  1.8671
 3978TIP3   OH233424   5.838   6.612  13.963 -0.0823  0.4924  0.6694
 3978TIP3    H133425   5.771   6.626  13.896  0.8250 -2.0345 -0.8365
 3978TIP3    H233426   5.915   6.659  13.930  0.1649 -0.1972  0.2585
 3979TIP3   OH233427   0.385   6.308   2.753  0.4166  0.1934 -0.3318
 3979TIP3    H133428   0.303   6.350   2.728  0.3306 -0.1577 -0.6499
 3979TIP3    H233429   0.443   6.381   2.775 -0.8889  0.3426  2.7941
 3980TIP3   OH233430   2.632   0.229   3.710  0.2407  0.0215  0.2377
 3980TIP3    H133431   2.618   0.169   3.783  0.6599 -0.8370 -0.3783
 3980TIP3    H233432   2.589   0.310   3.737  0.5494 -0.2205  1.5196
 3981TIP3   OH233433   4.082   6.306  14.211 -0.2551  0.1399 -0.2903
 3981TIP3    H133434   4.089   6.256  14.293 -0.8309 -1.7685 -1.3600
 3981TIP3    H233435   4.165   6.353  14.204  0.3980 -0.8562  0.6560
 3982TIP3   OH233436   6.499   2.627   0.896 -0.0489 -1.0001  0.3062
 3982TIP3    H133437   6.474   2.666   0.812 -2.9535 -0.0813  1.5524
 3982TIP3    H233438   6.493   2.533   0.881 -1.6826 -0.8308 -0.2203
 3983TIP3   OH233439   5.506   2.063   5.515 -0.5008  1.0666  0.0396
 3983TIP3    H133440   5.579   2.016   5.556 -1.4572 -0.0392  0.4841
 3983TIP3    H233441   5.534   2.076   5.424  0.1816  0.5052  0.1635
 3984TIP3   OH233442   5.774   2.827   0.251  0.0501 -0.5372  0.3086
 3984TIP3    H133443   5.791   2.740   0.216 -1.8807 -0.4578 -0.8941
 3984TIP3    H233444   5.749   2.812   0.342 -0.3703 -1.2418  0.0767
 3985TIP3   OH233445   6.329   5.586   4.270  0.3793 -0.0033 -0.4244
 3985TIP3    H133446   6.248   5.539   4.249 -0.2059  1.4578 -1.4951
 3985TIP3    H233447   6.343   5.568   4.363 -1.8712  0.7090  0.0970
 3986TIP3   OH233448   5.691   0.921  15.963  0.2209  0.5097  0.1810
 3986TIP3    H133449   5.659   0.982  15.896  0.3233  0.5305  0.1517
 3986TIP3    H233450   5.643   0.840  15.946  1.1164  0.1544 -0.6631
 3987TIP3   OH233451   6.325   3.517  11.990 -0.5330  0.2454  0.0963
 3987TIP3    H133452   6.237   3.544  12.018 -0.2612 -0.5788  1.8689
 3987TIP3    H233453   6.311   3.469  11.909 -1.7166  0.1964  0.3210
 3988TIP3   OH233454   2.598   1.167   4.832 -0.1872 -0.1267 -0.3636
 3988TIP3    H133455   2.575   1.259   4.819 -1.2748 -0.1031  1.5322
 3988TIP3    H233456   2.516   1.120   4.817 -0.5500 -0.4232  2.4391
 3989TIP3   OH233457   0.150   0.376   4.801 -0.3121 -0.3881  0.3721
 3989TIP3    H133458   0.130   0.385   4.894 -0.8544  1.3789  0.1149
 3989TIP3    H233459   0.064   0.378   4.758 -0.0218 -0.4979 -0.2129
 3990TIP3   OH233460   6.437   1.969   5.871 -0.6123 -0.0269 -0.5813
 3990TIP3    H133461   6.382   2.041   5.901 -0.8091 -0.6557  0.6135
 3990TIP3    H233462   6.442   1.979   5.776 -1.9578  0.6190 -0.5814
 3991TIP3   OH233463   3.572   1.120   1.520 -0.0441 -0.5267  0.3362
 3991TIP3    H133464   3.609   1.032   1.509  0.7512  0.0486 -1.9296
 3991TIP3    H233465   3.486   1.116   1.478  0.4061  0.0238 -0.6620
 3992TIP3   OH233466   0.774   2.768   1.196  0.0666  0.2159  0.3512
 3992TIP3    H133467   0.762   2.698   1.132  1.4870 -1.7737  2.1786
 3992TIP3    H233468   0.693   2.769   1.246 -0.5090  0.8525 -0.5770
 3993TIP3   OH233469   1.106   3.464   3.976  0.0601  0.4338 -0.1235
 3993TIP3    H133470   1.108   3.390   3.915 -1.6468  0.1473  0.1580
 3993TIP3    H233471   1.066   3.535   3.927 -0.6825  0.4066  0.4435
 3994TIP3   OH233472   5.131   3.145   4.418 -0.6481 -0.2879 -0.0411
 3994TIP3    H133473   5.056   3.191   4.381 -0.3050  0.3266  0.0155
 3994TIP3    H233474   5.119   3.151   4.512 -0.6556 -0.4057 -0.0343
 3995TIP3   OH233475   6.086   2.771   2.075  0.0895 -0.0116 -0.7302
 3995TIP3    H133476   6.111   2.747   2.164 -0.1009  1.3633 -0.2876
 3995TIP3    H233477   6.011   2.716   2.055 -0.4741  0.3496  0.3402
 3996TIP3   OH233478   4.292   2.577   4.803 -0.4990  0.1723  0.2848
 3996TIP3    H133479   4.349   2.539   4.736 -1.7983 -0.9570 -0.2104
 3996TIP3    H233480   4.312   2.671   4.802  2.1124 -0.3411  0.8891
 3997TIP3   OH233481   6.118   5.192   4.081 -0.1599 -0.4697 -0.1359
 3997TIP3    H133482   6.132   5.240   4.163 -1.4699 -0.5612  0.1390
 3997TIP3    H233483   6.043   5.235   4.041  0.8402 -0.0406 -1.5860
 3998TIP3   OH233484   4.405   0.374  15.601 -0.4595 -0.0404  0.0866
 3998TIP3    H133485   4.465   0.307  15.568 -0.3176 -0.4607  1.1631
 3998TIP3    H233486   4.319   0.333  15.599 -0.0061 -1.4062  3.5617
 3999TIP3   OH233487   0.316   1.482  14.356  0.1199 -0.0128 -0.4792
 3999TIP3    H133488   0.334   1.564  14.310 -0.7359 -0.1717 -1.0953
 3999TIP3    H233489   0.228   1.492  14.391  0.1569 -0.5170 -0.2335
 4000TIP3   OH233490   0.358   6.221  15.652 -0.2047 -0.8449  0.0758
 4000TIP3    H133491   0.303   6.295  15.626  0.7040 -0.3250 -0.4391
 4000TIP3    H233492   0.322   6.192  15.735 -1.1599 -0.4271 -0.1798
 4001TIP3   OH233493   6.009   6.264   4.223  0.3406  0.3746  0.0830
 4001TIP3    H133494   6.101   6.249   4.244  1.4799  0.9440 -4.0043
 4001TIP3    H233495   5.986   6.190   4.166 -1.9647 -0.1403  1.6321
 4002TIP3   OH233496   5.559   1.646   4.202  0.2397 -0.8421  0.1444
 4002TIP3    H133497   5.521   1.577   4.257  0.9636 -1.6886 -0.3900
 4002TIP3    H233498   5.654   1.631   4.208  0.4982  1.1180  1.3254
 4003TIP3   OH233499   4.288   2.164   3.104  0.7867  0.7509  0.5471
 4003TIP3    H133500   4.236   2.180   3.182  0.1182  2.0267 -0.1340
 4003TIP3    H233501   4.355   2.101   3.131  0.9748  1.6910  2.3067
 4004TIP3   OH233502   5.380   0.776  12.640  0.1936 -0.0912  0.3866
 4004TIP3    H133503   5.295   0.731  12.636 -0.2940  0.8964 -0.7418
 4004TIP3    H233504   5.421   0.743  12.721  0.3833 -3.4523 -0.9847
 4005TIP3   OH233505   1.190   6.809  15.430 -0.4574 -0.0855  0.1346
 4005TIP3    H133506   1.249   6.855  15.490  0.6038 -0.1865 -0.8047
 4005TIP3    H233507   1.223   6.719  15.429 -0.1272  0.0393 -0.9990
 4006TIP3   OH233508   4.050   0.904   2.798 -0.6785  0.3525 -0.2277
 4006TIP3    H133509   4.054   0.997   2.777 -0.9507  0.1984 -0.9933
 4006TIP3    H233510   3.994   0.866   2.730 -0.7235 -0.3407  0.1816
 4007TIP3   OH233511   2.754   3.682   5.185 -0.8409 -0.0154  0.0509
 4007TIP3    H133512   2.733   3.676   5.092  0.8533 -3.6043 -0.1848
 4007TIP3    H233513   2.670   3.674   5.230 -1.4533 -0.3742 -1.1379
 4008TIP3   OH233514   4.315   6.074   4.090  0.8231 -0.2550  0.1244
 4008TIP3    H133515   4.329   6.105   4.001 -0.5233  0.9773  0.3189
 4008TIP3    H233516   4.269   6.146   4.134  2.3777 -0.4257  2.1118
 4009TIP3   OH233517   0.960   4.854   4.151 -0.3375 -0.0431  0.3797
 4009TIP3    H133518   0.990   4.910   4.079 -0.7467  0.9925  0.9883
 4009TIP3    H233519   0.867   4.841   4.134 -1.0298  2.2630  1.9834
 4010TIP3   OH233520   0.368   1.634  11.706 -0.1016  0.1512 -0.1734
 4010TIP3    H133521   0.321   1.570  11.759  3.2214 -2.0689  0.2292
 4010TIP3    H233522   0.370   1.713  11.761  0.5903 -1.1609  1.7641
 4011TIP3   OH233523   2.957   0.128   5.577 -0.7751  0.2906 -0.0585
 4011TIP3    H133524   2.973   0.176   5.497 -0.1120  0.2164  0.0288
 4011TIP3    H233525   3.019   0.165   5.640  0.3893 -1.3126 -0.2474
 4012TIP3   OH233526   2.457   5.023   1.197  0.0448 -0.1493  0.0786
 4012TIP3    H133527   2.469   5.024   1.102  2.2406  2.0812  0.3289
 4012TIP3    H233528   2.513   4.953   1.228 -1.6085 -1.6983 -0.3378
 4013TIP3   OH233529   1.713   1.531  11.109  0.3873  0.2814 -0.3742
 4013TIP3    H133530   1.767   1.596  11.064  0.2077  0.7446  0.0871
 4013TIP3    H233531   1.643   1.511  11.046 -0.5026  1.7677  0.1432
 4014TIP3   OH233532   4.906   3.439  13.479  0.3517 -0.2649 -0.3499
 4014TIP3    H133533   4.874   3.519  13.437  0.2470  0.5378  1.2122
 4014TIP3    H233534   4.831   3.407  13.530  1.5156  0.7998  2.1258
 4015TIP3   OH233535   2.914   5.706   3.169 -0.0228  0.1244  0.0572
 4015TIP3    H133536   3.009   5.709   3.179  0.0449  1.3631 -0.8553
 4015TIP3    H233537   2.896   5.616   3.141  0.9186 -0.0121 -0.1194
 4016TIP3   OH233538   6.522   4.644  16.982  0.6613 -0.3548 -0.1373
 4016TIP3    H133539   6.432   4.611  16.987  1.3300 -2.1006  0.9859
 4016TIP3    H233540   6.557   4.607  16.900  0.1535  0.8855 -0.9227
 4017TIP3   OH233541   6.173   4.129   0.610 -0.2643 -0.0728 -0.5244
 4017TIP3    H133542   6.228   4.204   0.633  0.9958 -1.3110  0.6800
 4017TIP3    H233543   6.194   4.111   0.518  2.6992 -1.5637  0.3753
 4018TIP3   OH233544   1.550   4.396  16.243 -0.4632 -0.3626  0.0683
 4018TIP3    H133545   1.491   4.468  16.265  0.4478  0.6438 -0.7075
 4018TIP3    H233546   1.574   4.358  16.327  2.0603  2.6903  0.8392
 4019TIP3   OH233547   5.899   6.705  15.735 -0.1827 -0.1838  0.1888
 4019TIP3    H133548   5.967   6.771  15.718  0.6854 -0.9647  0.5513
 4019TIP3    H233549   5.885   6.710  15.830  0.5561 -1.1435  0.3595
 4020TIP3   OH233550   2.112   4.720   0.125  0.3168 -0.1366  0.0958
 4020TIP3    H133551   2.057   4.672   0.187  0.6282  0.6750  1.0262
 4020TIP3    H233552   2.120   4.662   0.049 -1.4905 -0.4058  0.1070
 4021TIP3   OH233553   6.313   1.490  14.975 -0.2396  0.2816 -0.2239
 4021TIP3    H133554   6.317   1.554  14.904  0.7662  0.5697  0.0962
 4021TIP3    H233555   6.221   1.462  14.976 -0.7013  1.7531 -0.3210
 4022TIP3   OH233556   2.674   5.937  10.804 -0.1093  0.1498  0.7503
 4022TIP3    H133557   2.689   5.921  10.897  0.0792  0.9278  0.8561
 4022TIP3    H233558   2.609   6.008  10.802 -1.3421 -0.9594  0.2942
 4023TIP3   OH233559   1.328   4.159   2.544  0.1292  0.4019  0.1670
 4023TIP3    H133560   1.355   4.220   2.476  1.0306 -0.6292 -0.4013
 4023TIP3    H233561   1.410   4.130   2.585 -0.2329 -1.0488 -0.1113
 4024TIP3   OH233562   1.882   6.374  13.982 -0.1547 -0.3140  0.2087
 4024TIP3    H133563   1.796   6.413  13.996 -0.2855 -0.9520  1.2700
 4024TIP3    H233564   1.864   6.284  13.958  0.2340 -0.7756  1.6015
 4025TIP3   OH233565   2.105   2.979   3.220  0.0662 -0.5844 -0.4323
 4025TIP3    H133566   2.103   3.036   3.296 -0.9604 -1.0013 -0.1420
 4025TIP3    H233567   2.156   2.902   3.248  0.7784 -0.1768 -0.5798
 4026TIP3   OH233568   3.858   2.811  16.246 -0.1533 -0.5856 -0.3784
 4026TIP3    H133569   3.832   2.871  16.176 -1.5779 -0.7403  0.0006
 4026TIP3    H233570   3.827   2.726  16.217 -0.1247 -0.7650  0.1198
 4027TIP3   OH233571   3.089   2.467   4.360 -0.2205 -0.0596  0.2116
 4027TIP3    H133572   2.994   2.450   4.358  0.0631 -1.6266 -0.0955
 4027TIP3    H233573   3.128   2.384   4.387  1.2428 -0.1596 -2.0872
 4028TIP3   OH233574   6.606   4.095  12.031  0.1463  0.0724  0.7907
 4028TIP3    H133575   6.547   4.150  11.979  0.8416  0.6063  0.5492
 4028TIP3    H233576   6.550   4.028  12.069 -0.4848  0.1142 -0.0625
 4029TIP3   OH233577   4.111   6.222   6.632  0.1509 -0.0200  0.4725
 4029TIP3    H133578   4.059   6.209   6.553  1.1040 -0.1307 -0.1549
 4029TIP3    H233579   4.083   6.152   6.692 -0.9607  0.4026  0.4362
 4030TIP3   OH233580   1.467   3.504  11.235 -0.4394 -0.5144  0.3738
 4030TIP3    H133581   1.391   3.536  11.284 -1.6635 -0.4874 -1.5195
 4030TIP3    H233582   1.483   3.572  11.169  1.8548 -0.0334  1.3506
 4031TIP3   OH233583   3.334   0.046  12.885 -0.2467  0.1731 -0.3912
 4031TIP3    H133584   3.356   0.097  12.963 -0.6075 -0.1151 -0.1032
 4031TIP3    H233585   3.403   0.069  12.822  0.1301  0.2871  0.0591
 4032TIP3   OH233586   3.651   3.531   3.980  0.3879 -0.6232 -0.2022
 4032TIP3    H133587   3.639   3.581   4.061 -0.9042 -2.3832  0.7411
 4032TIP3    H233588   3.692   3.592   3.919 -0.8555  1.4699  1.0190
 4033TIP3   OH233589   0.234   6.040  15.110 -0.1536  0.0582  0.7448
 4033TIP3    H133590   0.290   6.111  15.142 -0.2184 -0.4099  1.9065
 4033TIP3    H233591   0.151   6.051  15.156 -0.8510  0.4330 -0.5804
 4034TIP3   OH233592   4.248   0.717  16.856 -0.1935 -0.2668  0.1193
 4034TIP3    H133593   4.191   0.734  16.781  1.1233  0.0431 -0.8294
 4034TIP3    H233594   4.253   0.801  16.902 -1.7180 -0.6787  1.0783
 4035TIP3   OH233595   1.333   0.349   3.622  0.1468 -0.7568 -0.2762
 4035TIP3    H133596   1.246   0.338   3.661  0.0181  0.7933 -0.0886
 4035TIP3    H233597   1.329   0.299   3.540 -1.8488  1.5191 -1.6452
 4036TIP3   OH233598   2.819   4.020   4.920 -0.1773 -0.3184  0.2724
 4036TIP3    H133599   2.781   4.021   5.008  1.8456  0.1091  1.1490
 4036TIP3    H233600   2.792   3.936   4.883 -2.4168  0.1805  0.6650
 4037TIP3   OH233601   0.644   0.760   0.869  0.8031 -0.1038 -0.6566
 4037TIP3    H133602   0.571   0.817   0.888  1.8153  0.5998  1.2287
 4037TIP3    H233603   0.624   0.678   0.914  0.6785 -0.2997 -1.0565
 4038TIP3   OH233604   0.247   3.954   2.470  0.2921 -0.1292 -0.1110
 4038TIP3    H133605   0.187   3.880   2.461  0.4161 -0.2869  0.3396
 4038TIP3    H233606   0.313   3.939   2.402  1.2915 -1.3731  1.0935
 4039TIP3   OH233607   3.760   2.267   0.623  0.2888 -0.3127 -0.9310
 4039TIP3    H133608   3.698   2.322   0.574 -0.0870  0.5793  0.5064
 4039TIP3    H233609   3.845   2.286   0.584  0.4730  2.8307  0.7916
 4040TIP3   OH233610   5.936   0.090   4.634 -0.0834 -0.4231  0.5885
 4040TIP3    H133611   5.845   0.120   4.626  0.6053  1.2361 -1.3319
 4040TIP3    H233612   5.935   0.002   4.598 -0.7062  0.0442 -0.5459
 4041TIP3   OH233613   1.292   2.974  15.803 -0.0947  0.2769  0.1023
 4041TIP3    H133614   1.206   2.933  15.795 -0.2419  0.7913 -0.9942
 4041TIP3    H233615   1.288   3.023  15.886 -0.0373 -1.6053  1.2516
 4042TIP3   OH233616   2.854   3.463   4.378  0.0770  0.0322 -0.3288
 4042TIP3    H133617   2.847   3.439   4.470 -0.3280 -0.1288 -0.4034
 4042TIP3    H233618   2.948   3.456   4.359  0.1627  0.0803  0.0740
 4043TIP3   OH233619   3.677   1.715   1.178 -0.2226 -0.7569 -1.0719
 4043TIP3    H133620   3.742   1.785   1.182 -1.2972  0.3014 -1.5457
 4043TIP3    H233621   3.727   1.634   1.187  1.0079  0.0899 -0.1670
 4044TIP3   OH233622   2.308   3.833  13.170 -0.4395  0.0108  0.1876
 4044TIP3    H133623   2.305   3.861  13.262  1.5264 -1.0068  0.5752
 4044TIP3    H233624   2.216   3.818  13.147 -1.0283  1.1664  1.7000
 4045TIP3   OH233625   5.036   2.658  15.205  0.0647  0.1862 -0.0527
 4045TIP3    H133626   4.981   2.683  15.279 -0.2465  0.9021 -0.5214
 4045TIP3    H233627   5.069   2.571  15.228 -3.0582 -1.2524 -0.7754
 4046TIP3   OH233628   5.280   1.026   0.460  0.1676  0.3997  0.3734
 4046TIP3    H133629   5.215   1.008   0.393  3.0531 -2.2886 -1.8651
 4046TIP3    H233630   5.264   0.961   0.528  2.6897 -2.7390 -1.8903
 4047TIP3   OH233631   1.817   4.529  13.162  0.3387 -0.0261  0.0187
 4047TIP3    H133632   1.905   4.518  13.126  1.6489 -0.0547  3.0995
 4047TIP3    H233633   1.795   4.621  13.143  1.2931  0.1763 -0.1455
 4048TIP3   OH233634   6.773   3.037   0.355 -0.4080 -0.3518  0.0117
 4048TIP3    H133635   6.738   2.962   0.403  0.6675 -1.0035 -0.2115
 4048TIP3    H233636   6.815   3.091   0.422 -0.0983 -0.5711 -0.0083
 4049TIP3   OH233637   1.661   1.766   0.776 -0.4213 -0.1334  0.2391
 4049TIP3    H133638   1.737   1.754   0.718 -1.3840  1.9232 -1.5368
 4049TIP3    H233639   1.641   1.678   0.808  1.7084 -0.9486 -0.5429
 4050TIP3   OH233640   2.752   5.512   5.666  0.3251  0.0776 -0.1178
 4050TIP3    H133641   2.709   5.529   5.749 -0.2026 -0.5243 -0.2653
 4050TIP3    H233642   2.795   5.595   5.643 -1.2535  0.8653 -0.2675
 4051TIP3   OH233643   2.260   0.008  11.270 -0.6218 -0.2809 -0.3207
 4051TIP3    H133644   2.317  -0.030  11.337 -0.3775  3.1547  1.5318
 4051TIP3    H233645   2.317   0.064  11.218 -1.9711  2.1644  0.7338
 4052TIP3   OH233646   5.836   2.001   0.308  0.1452 -0.1634  0.8083
 4052TIP3    H133647   5.839   2.039   0.395  0.9355  0.2586  0.6060
 4052TIP3    H233648   5.747   1.967   0.299 -0.1153  0.3145  1.5487
 4053TIP3   OH233649   1.898   3.073   0.332 -0.0884 -0.1476 -0.1198
 4053TIP3    H133650   1.844   3.151   0.321 -0.1831 -0.2252 -0.2096
 4053TIP3    H233651   1.904   3.061   0.427 -0.5687 -0.3715 -0.1169
 4054TIP3   OH233652   0.594   4.834  10.908  0.0665  0.2858  0.1168
 4054TIP3    H133653   0.642   4.753  10.892  0.3562  0.5502 -0.3857
 4054TIP3    H233654   0.660   4.894  10.945 -0.6230 -0.3619  2.4912
 4055TIP3   OH233655   4.646   4.086   0.978  0.8276  0.4374 -0.4290
 4055TIP3    H133656   4.564   4.037   0.981 -1.2705  3.7705 -0.1258
 4055TIP3    H233657   4.697   4.052   1.051 -1.1670 -0.2518  0.6871
 4056TIP3   OH233658   1.299   6.653  11.565 -0.7179 -0.4107  0.4955
 4056TIP3    H133659   1.269   6.725  11.620  0.2715  0.2736  0.1525
 4056TIP3    H233660   1.270   6.678  11.476 -0.4236 -0.4707  0.3842
 4057TIP3   OH233661   3.363   0.109   4.064 -0.2222  0.0349 -0.0176
 4057TIP3    H133662   3.442   0.137   4.110  0.0644 -0.2270 -0.3440
 4057TIP3    H233663   3.366   0.013   4.065 -0.2217  0.0235 -0.5559
 4058TIP3   OH233664   3.841   4.132  13.838 -0.4357  0.2367 -0.7715
 4058TIP3    H133665   3.869   4.097  13.922 -0.2779 -0.0163 -0.9316
 4058TIP3    H233666   3.917   4.182  13.806 -0.1791 -0.4000 -1.1759
 4059TIP3   OH233667   0.960   5.516   5.904 -0.9415 -0.1718 -0.6065
 4059TIP3    H133668   0.910   5.504   5.984 -0.9212 -0.3648 -0.6240
 4059TIP3    H233669   0.954   5.610   5.886  2.7968  0.6841  2.0983
 4060TIP3   OH233670   5.957   4.418   2.372 -0.0716  0.5681 -0.0061
 4060TIP3    H133671   5.950   4.429   2.277  1.2670  0.3820 -0.1248
 4060TIP3    H233672   5.943   4.324   2.385 -2.0322  0.8607  0.1548
 4061TIP3   OH233673   2.341   3.148   4.458 -0.2225  0.8952 -0.6728
 4061TIP3    H133674   2.370   3.239   4.465  1.4358  0.8961 -5.4003
 4061TIP3    H233675   2.249   3.154   4.432 -0.1897  1.2020 -0.7150
 4062TIP3   OH233676   2.961   3.253   1.436  0.0270  0.0110 -0.0299
 4062TIP3    H133677   3.054   3.272   1.423  0.1310 -0.5880 -0.2049
 4062TIP3    H233678   2.961   3.177   1.495 -0.3960  1.3798  1.7622
 4063TIP3   OH233679   2.966   0.440  17.113 -0.5094  0.3269 -0.0977
 4063TIP3    H133680   3.043   0.448  17.056  2.3580 -1.9715  3.2216
 4063TIP3    H233681   2.918   0.365  17.078  1.5109 -1.4007  0.7090
 4064TIP3   OH233682   6.100   3.192   1.330  0.1828  0.4682  0.0743
 4064TIP3    H133683   6.102   3.188   1.234  2.3730 -2.7393  0.1932
 4064TIP3    H233684   6.020   3.145   1.354  0.4286 -0.0357 -0.1038
 4065TIP3   OH233685   2.106   4.184   0.599  0.0056 -0.1554  0.2303
 4065TIP3    H133686   2.060   4.106   0.630  1.7727 -0.2514  2.7198
 4065TIP3    H233687   2.046   4.256   0.618 -0.7934 -0.6761 -0.2503
 4066TIP3   OH233688   0.151   4.213   1.098 -0.3037  0.4582  0.2293
 4066TIP3    H133689   0.154   4.251   1.185  1.4652 -0.6117  0.6458
 4066TIP3    H233690   0.108   4.280   1.044 -0.1516  1.6891  1.6150
 4067TIP3   OH233691   4.371   2.906   1.211 -0.0471 -0.1139  0.3803
 4067TIP3    H133692   4.389   2.855   1.290 -0.6080 -2.4038 -0.9197
 4067TIP3    H233693   4.450   2.959   1.199  0.0475  0.2613  2.4387
 4068TIP3   OH233694   4.726   0.599  15.744  0.2007 -0.1138  0.4422
 4068TIP3    H133695   4.630   0.594  15.751  0.2389  0.9577  2.3507
 4068TIP3    H233696   4.757   0.519  15.785  0.1088 -1.4582 -2.0316
 4069TIP3   OH233697   4.935   6.546   2.127 -0.2823 -0.5219  1.1558
 4069TIP3    H133698   4.904   6.470   2.177 -2.1926 -0.7518 -0.2864
 4069TIP3    H233699   4.858   6.602   2.119  0.3025  0.0864 -0.4420
 4070TIP3   OH233700   4.865   3.726   1.355  0.6054  0.3258  0.4235
 4070TIP3    H133701   4.936   3.672   1.318 -0.0535 -0.7125  0.6681
 4070TIP3    H233702   4.785   3.677   1.336 -0.0193  1.2794  0.5514
 4071TIP3   OH233703   3.184   1.783  15.828  0.4948 -0.6545  0.1301
 4071TIP3    H133704   3.214   1.699  15.862  3.5605  0.1506 -0.4790
 4071TIP3    H233705   3.235   1.849  15.875  0.6538  0.7199 -1.8663
 4072TIP3   OH233706   3.814   0.994  13.501 -0.5756  0.1828 -0.8267
 4072TIP3    H133707   3.822   0.899  13.510 -1.4710  0.1374 -0.4040
 4072TIP3    H233708   3.886   1.030  13.552 -0.8125 -0.2476 -0.1940
 4073TIP3   OH233709   5.081   1.281  12.434 -0.6182  0.2822  0.0242
 4073TIP3    H133710   5.051   1.192  12.452  0.6005 -0.2087 -0.2787
 4073TIP3    H233711   5.097   1.282  12.339 -2.2844  1.3512 -0.2601
 4074TIP3   OH233712   4.685   1.515   6.215  0.4191 -0.2117 -0.2840
 4074TIP3    H133713   4.629   1.528   6.138 -1.0199 -1.6005  0.4971
 4074TIP3    H233714   4.690   1.420   6.225 -0.0240 -0.0414  1.7753
 4075TIP3   OH233715   6.772   6.272  15.599  0.4216 -0.1587  0.1443
 4075TIP3    H133716   6.818   6.188  15.594  0.2126 -0.1620 -2.2425
 4075TIP3    H233717   6.838   6.336  15.573 -0.0009  0.2059 -0.0279
 4076TIP3   OH233718   6.757   4.173  16.315  0.5143 -0.0569 -0.0973
 4076TIP3    H133719   6.666   4.147  16.301  0.5255 -0.7501  1.0203
 4076TIP3    H233720   6.776   4.235  16.244 -0.3137 -1.1560 -1.2983
 4077TIP3   OH233721   1.162   0.385  12.752  0.3546  0.5862  0.4166
 4077TIP3    H133722   1.116   0.314  12.797 -0.4944  0.3932 -0.7343
 4077TIP3    H233723   1.255   0.364  12.764  0.1337  0.0733  1.3206
 4078TIP3   OH233724   2.058   1.676   6.524  0.1161 -0.0670 -0.4053
 4078TIP3    H133725   1.986   1.640   6.472  2.1152 -2.9215 -1.3252
 4078TIP3    H233726   2.129   1.612   6.514  2.1274  1.6917  2.0555
 4079TIP3   OH233727   6.779   2.633  16.825  0.1966  0.2102  0.3165
 4079TIP3    H133728   6.768   2.664  16.915  0.8103 -0.6682  0.7049
 4079TIP3    H233729   6.861   2.584  16.827  0.1686  0.1216 -0.7081
 4080TIP3   OH233730   3.242   5.783   2.263  0.2119 -0.1690  0.4202
 4080TIP3    H133731   3.215   5.763   2.353  1.4881 -0.2617  0.7852
 4080TIP3    H233732   3.163   5.821   2.223 -0.4145 -0.2644  1.5225
 4081TIP3   OH233733   5.423   1.077  12.895  0.0998  0.3413  0.6676
 4081TIP3    H133734   5.493   1.022  12.860  0.1457  0.1945  0.9873
 4081TIP3    H233735   5.395   1.033  12.975  0.5374  1.0894  1.2342
 4082TIP3   OH233736   3.094   2.175  16.189 -0.2783 -0.5242 -0.3954
 4082TIP3    H133737   3.016   2.222  16.159  1.2145  1.2429 -1.6065
 4082TIP3    H233738   3.161   2.197  16.125  0.9193 -3.0004 -0.0429
 4083TIP3   OH233739   0.598   3.273  12.397  0.1864  0.1567  0.0139
 4083TIP3    H133740   0.637   3.361  12.402  0.6485 -0.0499  0.1261
 4083TIP3    H233741   0.649   3.228  12.330  1.0547 -0.5557  1.1223
 4084TIP3   OH233742   4.550   0.506  13.675  0.0521 -0.5323 -0.0660
 4084TIP3    H133743   4.500   0.576  13.719  1.7353  1.5278 -1.3336
 4084TIP3    H233744   4.563   0.440  13.743  0.7905  1.6265  1.9666
 4085TIP3   OH233745   2.577   0.173   2.581  0.2200  0.4489  0.2236
 4085TIP3    H133746   2.515   0.101   2.576 -0.0332  0.5182  1.8496
 4085TIP3    H233747   2.609   0.171   2.672  1.3702  1.4107 -0.1405
 4086TIP3   OH233748   3.352   1.688   3.870 -0.1770  0.0312 -0.2909
 4086TIP3    H133749   3.401   1.690   3.788  0.5536  0.5304  0.1476
 4086TIP3    H233750   3.416   1.657   3.934 -1.0992 -1.5899 -0.1481
 4087TIP3   OH233751   5.916   2.487   5.366 -0.2533 -0.3048  0.7711
 4087TIP3    H133752   5.840   2.509   5.312  0.1191 -1.3330 -0.1997
 4087TIP3    H233753   5.969   2.567   5.367 -1.3307  0.4057  1.4355
 4088TIP3   OH233754   0.806   3.190  14.735 -0.3475 -0.3910  0.2464
 4088TIP3    H133755   0.849   3.131  14.798 -1.7991  0.0788  1.7198
 4088TIP3    H233756   0.715   3.195  14.765 -0.9287  0.3155 -1.5697
 4089TIP3   OH233757   4.305   5.936   1.128  0.0193  0.5522  0.5764
 4089TIP3    H133758   4.233   5.995   1.107 -0.3722 -0.1149  0.0310
 4089TIP3    H233759   4.264   5.861   1.171 -0.0996 -1.5231 -2.9726
 4090TIP3   OH233760   2.543   5.899  14.963 -0.0585 -0.0086  0.2719
 4090TIP3    H133761   2.536   5.823  15.021 -1.1964  0.5180  0.8513
 4090TIP3    H233762   2.634   5.928  14.972  0.4313 -1.4294 -0.1207
 4091TIP3   OH233763   6.809   0.712  16.072  0.6577  0.2157 -0.1900
 4091TIP3    H133764   6.895   0.722  16.113  0.5135 -2.2022  0.7826
 4091TIP3    H233765   6.784   0.621  16.091 -1.4599  0.4495 -1.7144
 4092TIP3   OH233766   2.356   0.169  13.619  0.2195  0.2573 -0.6967
 4092TIP3    H133767   2.401   0.215  13.690 -1.8349 -1.7518  1.9688
 4092TIP3    H233768   2.352   0.078  13.647 -2.1918 -0.2783 -2.5791
 4093TIP3   OH233769   2.317   5.772  16.594  0.1026 -0.4885  0.2719
 4093TIP3    H133770   2.366   5.706  16.642  0.8498 -0.4428 -0.4450
 4093TIP3    H233771   2.260   5.811  16.661  2.0118  0.4194  1.4136
 4094TIP3   OH233772   5.852   6.566  11.027  0.1559 -0.6112 -0.0908
 4094TIP3    H133773   5.855   6.590  10.934  0.7016 -1.2616 -0.2514
 4094TIP3    H233774   5.771   6.515  11.036  1.5300 -3.0376 -0.8588
 4095TIP3   OH233775   0.004   6.723  12.810 -0.1076 -0.2887 -0.0678
 4095TIP3    H133776   0.091   6.728  12.770  0.0373  1.2641  0.4113
 4095TIP3    H233777   0.021   6.721  12.904 -0.6382  2.3948  0.1200
 4096TIP3   OH233778   1.223   0.557  14.523 -0.0468 -0.7609  0.1855
 4096TIP3    H133779   1.263   0.514  14.448 -0.1036 -0.8409  0.1999
 4096TIP3    H233780   1.246   0.649  14.514 -0.1578 -0.7525  0.0038
 4097TIP3   OH233781   0.758   2.531  11.010 -0.5046 -0.8818  0.2431
 4097TIP3    H133782   0.815   2.574  10.947 -0.8342 -0.8733 -0.0556
 4097TIP3    H233783   0.727   2.453  10.964 -0.3316 -1.1503  0.5880
 4098TIP3   OH233784   1.293   3.372   2.161  0.5043 -0.0547 -0.0191
 4098TIP3    H133785   1.220   3.377   2.222  1.4630 -0.4127  1.1796
 4098TIP3    H233786   1.264   3.311   2.093 -0.0902 -0.6532  0.7679
 4099TIP3   OH233787   2.014   3.437  11.409 -0.3000  0.4285 -0.4726
 4099TIP3    H133788   2.061   3.519  11.424 -0.8856  0.5379  0.8533
 4099TIP3    H233789   2.082   3.371  11.404  0.0225  0.5760  1.5181
 4100TIP3   OH233790   2.902   1.646   0.384 -0.3382 -0.1907  0.0058
 4100TIP3    H133791   2.832   1.593   0.421 -0.8836  2.2379  2.6508
 4100TIP3    H233792   2.946   1.685   0.460  1.6769  1.0887 -1.7403
 4101TIP3   OH233793   0.968   2.658  12.463 -0.1566 -0.4195  0.2185
 4101TIP3    H133794   1.024   2.604  12.408 -1.4119  0.4354 -1.9987
 4101TIP3    H233795   1.028   2.713  12.514  1.0290 -0.7956 -0.7662
 4102TIP3   OH233796   4.078   2.449  17.085 -0.0042 -0.4289  0.4974
 4102TIP3    H133797   4.022   2.371  17.088 -0.2789 -0.3886 -1.9629
 4102TIP3    H233798   4.031   2.514  17.137 -0.2464 -1.6075  1.7745
 4103TIP3   OH233799   6.625   1.972   6.086 -0.6338 -0.1293  0.5009
 4103TIP3    H133800   6.598   1.934   6.002 -0.2975 -0.3799  0.5067
 4103TIP3    H233801   6.649   1.897   6.140 -1.7087 -0.0332  1.1345
 4104TIP3   OH233802   0.200   4.832  15.273  0.4446  0.4287  0.2554
 4104TIP3    H133803   0.108   4.812  15.289  0.5946 -1.0427 -0.6278
 4104TIP3    H233804   0.220   4.904  15.333 -1.4709  1.2658 -0.0956
 4105TIP3   OH233805   6.501   0.533  15.565  0.1462  0.8854  0.0831
 4105TIP3    H133806   6.426   0.527  15.507  1.0104  0.2904 -0.9876
 4105TIP3    H233807   6.476   0.483  15.642  0.0854 -0.7453 -0.9781
 4106TIP3   OH233808   0.383   4.425  17.223  0.3865 -0.0682 -0.1494
 4106TIP3    H133809   0.446   4.367  17.180  0.5325 -1.0864  1.3816
 4106TIP3    H233810   0.387   4.400  17.315 -1.0383  1.0051  0.2213
 4107TIP3   OH233811   4.500   0.886  16.694 -0.4687 -0.1341 -0.0835
 4107TIP3    H133812   4.447   0.927  16.627 -2.1766  0.5674  1.6446
 4107TIP3    H233813   4.479   0.792  16.688 -0.8273 -0.0359 -0.3525
 4108TIP3   OH233814   0.717   6.482   1.552  0.0699  0.2235 -0.3144
 4108TIP3    H133815   0.626   6.478   1.582  0.1975 -1.0856 -0.0697
 4108TIP3    H233816   0.713   6.465   1.458  0.0176  0.6606 -0.3920
 4109TIP3   OH233817   3.151   6.186   0.209  0.1350 -0.2018  0.3041
 4109TIP3    H133818   3.175   6.100   0.175 -0.1022  0.1672 -0.8232
 4109TIP3    H233819   3.227   6.214   0.261  1.1866 -0.0574 -1.2987
 4110TIP3   OH233820   4.906   5.982   2.056  0.3264  0.1247  0.5122
 4110TIP3    H133821   4.903   5.916   1.987  0.5867  0.1920  0.4332
 4110TIP3    H233822   4.866   6.060   2.018 -0.9140 -0.2895  0.9496
 4111TIP3   OH233823   3.413   1.214   3.148  0.4556  0.0466 -0.1509
 4111TIP3    H133824   3.359   1.190   3.072  2.4115 -2.6838 -0.7386
 4111TIP3    H233825   3.357   1.197   3.224  0.0157 -1.5678 -0.8100
 4112TIP3   OH233826   6.360   1.286  13.821 -0.0627 -0.1841 -0.6019
 4112TIP3    H133827   6.370   1.334  13.739 -1.4496 -0.6929 -1.0917
 4112TIP3    H233828   6.315   1.348  13.879 -0.1311 -0.2251 -0.6115
 4113TIP3   OH233829   6.711   5.829  11.402  0.0990 -0.1326 -0.0756
 4113TIP3    H133830   6.706   5.898  11.468 -3.7818 -1.4045  1.1130
 4113TIP3    H233831   6.739   5.751  11.450  1.8432 -0.0109 -0.8773
 4114TIP3   OH233832   6.366   0.255  15.100 -0.7916 -0.8861 -0.2355
 4114TIP3    H133833   6.398   0.326  15.156  0.8154 -0.1970 -1.9572
 4114TIP3    H233834   6.422   0.180  15.123  1.4090  0.0018 -2.4124
 4115TIP3   OH233835   1.885   4.362   3.084 -0.0808  0.5093  0.0181
 4115TIP3    H133836   1.820   4.422   3.120  1.0006  0.2725  2.4563
 4115TIP3    H233837   1.834   4.299   3.034 -1.6271  1.0122  0.9231
 4116TIP3   OH233838   3.425   0.861  16.603  0.6614 -0.0027 -0.7575
 4116TIP3    H133839   3.411   0.771  16.632  1.5043  0.3932  0.9584
 4116TIP3    H233840   3.336   0.894  16.586  0.0553 -0.0577  2.0797
 4117TIP3   OH233841   4.516   3.145   1.557  0.3571  0.2364 -0.2860
 4117TIP3    H133842   4.583   3.084   1.588  0.8570  0.8527 -0.1579
 4117TIP3    H233843   4.537   3.160   1.465  0.9009  1.1069 -0.0165
 4118TIP3   OH233844   5.931   5.256   5.938 -0.1783  0.1556  0.3836
 4118TIP3    H133845   5.874   5.231   5.865  0.9514  0.2019 -0.5210
 4118TIP3    H233846   5.906   5.197   6.009 -0.8814 -0.2782 -0.2109
 4119TIP3   OH233847   0.439   1.747   3.324 -0.4671 -0.0790  0.4068
 4119TIP3    H133848   0.407   1.827   3.283  1.2116 -0.1865 -1.1831
 4119TIP3    H233849   0.475   1.695   3.252 -0.3934 -1.7266  1.5811
 4120TIP3   OH233850   1.060   4.727   3.765  0.0358  0.2178 -0.2292
 4120TIP3    H133851   0.983   4.782   3.751  0.3307  0.0871 -2.4661
 4120TIP3    H233852   1.037   4.642   3.728  0.2597 -0.6762  1.5824
 4121TIP3   OH233853   2.045   3.592  17.110  0.1346  0.1658  0.4439
 4121TIP3    H133854   2.135   3.575  17.140 -0.0706  0.7398  1.4159
 4121TIP3    H233855   2.019   3.671  17.158 -0.3530  0.8849 -0.9528
 4122TIP3   OH233856   0.013   3.761  12.639 -0.2366  0.4997 -0.3682
 4122TIP3    H133857   0.094   3.786  12.594 -0.6569 -0.1870 -1.5126
 4122TIP3    H233858   0.037   3.681  12.687 -0.1055  0.5750 -0.3063
 4123TIP3   OH233859   3.185   0.383  15.613 -0.0272  0.3817  0.9334
 4123TIP3    H133860   3.159   0.292  15.621  1.7534 -0.3842 -1.3375
 4123TIP3    H233861   3.276   0.385  15.644  0.1424  1.2521  0.4213
 4124TIP3   OH233862   2.798   0.130  11.037 -0.2083 -0.0072 -0.1320
 4124TIP3    H133863   2.767   0.187  10.967  2.1818  1.0337 -0.4091
 4124TIP3    H233864   2.809   0.044  10.996  0.6490  0.4717 -0.9151
 4125TIP3   OH233865   2.825   3.837   0.916  0.1791 -0.2286  0.1683
 4125TIP3    H133866   2.730   3.845   0.913  0.1521 -0.1445  1.0233
 4125TIP3    H233867   2.845   3.829   1.010  1.1053  0.9793  0.0808
 4126TIP3   OH233868   4.741   2.546   3.397 -0.2602 -0.1755 -0.3128
 4126TIP3    H133869   4.806   2.489   3.356  0.4329  0.3753  0.0109
 4126TIP3    H233870   4.788   2.627   3.416 -0.9370  0.0896  0.2795
 4127TIP3   OH233871   0.720   2.818  13.382  0.4623  0.0849  0.6008
 4127TIP3    H133872   0.803   2.837  13.426 -0.1509  3.2503  0.4753
 4127TIP3    H233873   0.668   2.772  13.448  2.0948 -1.5249  0.8318
 4128TIP3   OH233874   6.609   1.219  16.693 -0.3957 -0.3868  0.1388
 4128TIP3    H133875   6.662   1.278  16.641  0.9105 -2.6838 -1.1836
 4128TIP3    H233876   6.519   1.246  16.675  0.2106  2.4553  1.1144
 4129TIP3   OH233877   0.042   2.551  13.401 -0.4420  0.0659  0.1005
 4129TIP3    H133878   0.062   2.620  13.338  1.7249  0.0607  0.7340
 4129TIP3    H233879   0.061   2.590  13.486  0.6651 -1.2156  0.4704
 4130TIP3   OH233880   0.913   3.572   4.638  0.3172  0.0456 -0.1204
 4130TIP3    H133881   1.008   3.563   4.632  0.3843  0.6391  0.0758
 4130TIP3    H233882   0.899   3.659   4.674 -0.2618 -0.5149  1.0386
 4131TIP3   OH233883   6.047   3.673  11.007 -0.1703 -0.0637  0.3872
 4131TIP3    H133884   6.039   3.740  10.940  0.0987  0.6596  1.0759
 4131TIP3    H233885   5.957   3.644  11.022 -0.2008 -0.4931 -0.5303
 4132TIP3   OH233886   2.674   5.695   4.017  0.6924 -0.0717  0.6404
 4132TIP3    H133887   2.687   5.686   3.923  2.2004  0.6232  0.7637
 4132TIP3    H233888   2.583   5.668   4.032 -0.2640  1.9736 -1.3148
 4133TIP3   OH233889   2.087   2.970  16.526  0.2322  0.5569 -0.2203
 4133TIP3    H133890   2.040   2.897  16.568  1.0120 -0.4982 -1.1367
 4133TIP3    H233891   2.029   2.999  16.456  0.7819 -0.5545 -1.1671
 4134TIP3   OH233892   6.621   0.252   3.257  0.0527 -0.4823 -0.4655
 4134TIP3    H133893   6.693   0.312   3.235 -0.1346 -1.4181 -3.9005
 4134TIP3    H233894   6.561   0.258   3.183 -2.6245 -0.9813  1.5854
 4135TIP3   OH233895   3.743   1.295   5.526 -0.4962 -0.2152 -0.4536
 4135TIP3    H133896   3.669   1.356   5.531 -0.2375  0.0611 -0.0146
 4135TIP3    H233897   3.704   1.214   5.491 -0.9953 -0.0603 -0.2706
 4136TIP3   OH233898   3.568   6.070  13.462  0.1999  0.0553  0.9634
 4136TIP3    H133899   3.645   6.014  13.448  0.0806  0.1902 -0.2782
 4136TIP3    H233900   3.506   6.014  13.509  0.1075 -0.8490 -0.2082
 4137TIP3   OH233901   0.313   0.139  15.360 -0.5342 -0.0046 -0.4232
 4137TIP3    H133902   0.350   0.151  15.447 -0.7085 -2.6522  0.0623
 4137TIP3    H233903   0.378   0.176  15.301  0.7232 -0.3980  0.6853
 4138TIP3   OH233904   0.489   2.108  14.689  0.2283  0.5375 -0.0621
 4138TIP3    H133905   0.402   2.113  14.727  0.3911 -0.6911  0.5190
 4138TIP3    H233906   0.514   2.015  14.698  0.8419  0.5007 -1.9116
 4139TIP3   OH233907   6.685   6.505  15.811  0.6022  0.2598 -0.0201
 4139TIP3    H133908   6.684   6.417  15.848 -1.5468 -0.1266 -0.9450
 4139TIP3    H233909   6.608   6.548  15.849  0.2730  0.9433 -1.4355
 4140TIP3   OH233910   2.839   3.978   3.032  0.1388  0.0420 -0.5885
 4140TIP3    H133911   2.886   3.909   2.984 -1.8562 -0.2441 -2.2073
 4140TIP3    H233912   2.825   4.047   2.967 -2.1588 -0.1274 -0.3258
 4141TIP3   OH233913   4.116   6.234  11.222 -0.1103 -0.1569 -0.1250
 4141TIP3    H133914   4.022   6.255  11.225 -0.4224 -1.1874 -1.8354
 4141TIP3    H233915   4.137   6.233  11.128  1.6746  0.2869  0.2581
 4142TIP3   OH233916   1.724   1.896  14.264  0.8316  0.0342 -0.1203
 4142TIP3    H133917   1.740   1.986  14.292  1.4071 -0.2055  0.3283
 4142TIP3    H233918   1.643   1.871  14.308  0.1258  0.6679 -1.0363
 4143TIP3   OH233919   3.069   0.963   3.533 -0.2916 -0.1324 -0.0938
 4143TIP3    H133920   3.137   1.019   3.495 -0.2198 -0.1525  0.0050
 4143TIP3    H233921   3.111   0.923   3.610  0.3710 -2.0533 -1.4146
 4144TIP3   OH233922   0.160   4.229  13.434  0.0083  0.2169 -0.2061
 4144TIP3    H133923   0.084   4.248  13.379 -1.3930  0.0175  1.6095
 4144TIP3    H233924   0.182   4.313  13.473 -1.4124 -0.3401  1.8791
 4145TIP3   OH233925   4.874   0.779   5.212 -0.5571  0.0402  0.4421
 4145TIP3    H133926   4.804   0.730   5.254 -1.0510  0.5608  0.2290
 4145TIP3    H233927   4.893   0.851   5.272 -0.2817 -0.0404  0.4513
 4146TIP3   OH233928   0.563   5.281   2.344  0.6311 -0.5103  0.1257
 4146TIP3    H133929   0.558   5.327   2.428  1.7727 -0.2667  0.0648
 4146TIP3    H233930   0.569   5.351   2.279 -0.2711 -0.6995 -0.1636
 4147TIP3   OH233931   5.878   0.227  14.125  0.1048 -0.2543 -0.1615
 4147TIP3    H133932   5.928   0.240  14.044  1.0475 -1.8855  0.1392
 4147TIP3    H233933   5.911   0.295  14.185  1.0642 -0.5314 -0.3788
 4148TIP3   OH233934   6.378   0.003   3.606  0.3922 -0.1340  0.8746
 4148TIP3    H133935   6.427  -0.058   3.550  2.5460  1.2130  1.2361
 4148TIP3    H233936   6.365  -0.046   3.688  2.4100 -0.0535  1.2910
 4149TIP3   OH233937   6.455   0.468  13.099  0.1608  0.4692 -0.0858
 4149TIP3    H133938   6.453   0.373  13.094  0.4124  0.4525  0.1140
 4149TIP3    H233939   6.471   0.487  13.191 -0.8352  0.7230  0.0396
 4150TIP3   OH233940   3.631   0.756   5.122 -0.0583 -0.3785  1.0700
 4150TIP3    H133941   3.614   0.802   5.204  1.7676  1.5143  0.4302
 4150TIP3    H233942   3.616   0.822   5.054 -0.0457 -1.4893 -0.0302
 4151TIP3   OH233943   4.296   6.655   4.158 -0.2836 -0.6374  0.3031
 4151TIP3    H133944   4.351   6.686   4.230  0.7471  0.6422 -0.9913
 4151TIP3    H233945   4.279   6.734   4.106 -0.8083 -1.5892 -0.9970
 4152TIP3   OH233946   5.955   6.539   0.890 -0.2726 -0.3283 -0.0369
 4152TIP3    H133947   6.013   6.597   0.939 -0.2997  0.2571 -0.7104
 4152TIP3    H233948   5.946   6.579   0.804 -2.1236 -0.1188  0.2458
 4153TIP3   OH233949   0.148   5.022  15.897 -0.7620 -0.1294  0.0121
 4153TIP3    H133950   0.190   5.092  15.947  0.2576 -0.7603  0.0673
 4153TIP3    H233951   0.077   4.992  15.952 -0.2276 -0.1893  0.6721
 4154TIP3   OH233952   0.714   1.895  13.645 -0.1995 -0.1275  0.3615
 4154TIP3    H133953   0.651   1.944  13.698 -2.2842 -0.0148 -2.0775
 4154TIP3    H233954   0.750   1.961  13.585 -0.4486 -0.8931 -0.6392
 4155TIP3   OH233955   5.567   5.868  17.211 -0.1640  0.0820  0.9449
 4155TIP3    H133956   5.521   5.796  17.253 -2.1750  0.2027 -0.9880
 4155TIP3    H233957   5.513   5.945  17.230  0.6693  0.6836  0.9082
 4156TIP3   OH233958   3.057   5.952  14.640  0.1786  0.5569  0.6577
 4156TIP3    H133959   3.032   6.003  14.717  1.1079  0.7707  0.8267
 4156TIP3    H233960   3.133   5.999  14.605 -0.2723  0.4867 -0.4110
 4157TIP3   OH233961   1.394   2.959   0.815 -0.3242 -0.6844  0.3100
 4157TIP3    H133962   1.332   2.967   0.887  1.1695  0.6033  1.4799
 4157TIP3    H233963   1.423   3.048   0.798  1.4593 -1.3074  0.0083
 4158TIP3   OH233964   6.068   1.980   1.933 -0.2946  0.1849  0.2432
 4158TIP3    H133965   6.021   2.021   1.860  1.8994 -0.0243 -1.3197
 4158TIP3    H233966   6.099   2.054   1.985 -1.9354  0.3326  1.0429
 4159TIP3   OH233967   5.254   1.918  14.609  0.3237  0.5836 -0.0473
 4159TIP3    H133968   5.318   1.875  14.666 -0.7706  0.6673  1.2917
 4159TIP3    H233969   5.305   1.951  14.535  1.4768 -1.3372 -0.1434
 4160TIP3   OH233970   3.312   4.715  11.079 -0.1331  0.4676 -0.0232
 4160TIP3    H133971   3.406   4.709  11.096 -0.5677  1.2217  2.9126
 4160TIP3    H233972   3.293   4.809  11.080 -0.8772  0.3332 -0.8346
 4161TIP3   OH233973   5.395   4.894  12.233 -0.0905  0.4875  0.2773
 4161TIP3    H133974   5.344   4.921  12.309 -0.9444 -1.1290  0.3089
 4161TIP3    H233975   5.481   4.871  12.268 -0.9875 -1.8706  1.0557
 4162TIP3   OH233976   0.040   5.347  15.471  0.1247 -0.0008  0.3743
 4162TIP3    H133977   0.003   5.378  15.554  0.4545  2.0674 -0.2139
 4162TIP3    H233978  -0.032   5.357  15.408  0.0254 -1.1102  0.3033
 4163TIP3   OH233979   6.430   1.054  16.344 -0.7477  0.2037  0.2633
 4163TIP3    H133980   6.489   1.108  16.291  1.7364 -3.0003 -0.3897
 4163TIP3    H233981   6.352   1.044  16.289 -0.4308  1.4067 -0.4391
 4164TIP3   OH233982   0.281   5.823   0.528  0.0392  0.2970 -0.4491
 4164TIP3    H133983   0.290   5.757   0.460  0.5511  0.1201 -0.2104
 4164TIP3    H233984   0.284   5.907   0.481 -2.2582  0.1389 -0.9443
 4165TIP3   OH233985   5.669   3.552  14.217 -0.1607 -0.0075  0.0973
 4165TIP3    H133986   5.645   3.593  14.134 -2.1664  0.1870  0.7484
 4165TIP3    H233987   5.626   3.466  14.215  1.9740 -1.1056 -0.1884
 4166TIP3   OH233988   4.236   5.679  15.421  0.1571 -0.2360  0.1745
 4166TIP3    H133989   4.183   5.605  15.389  0.0347 -0.6730  1.3541
 4166TIP3    H233990   4.321   5.667  15.379 -0.3880 -0.0840 -0.9734
 4167TIP3   OH233991   3.801   4.652   4.494  0.1062 -0.2449 -0.4067
 4167TIP3    H133992   3.818   4.673   4.402 -1.0893  0.2006 -0.5327
 4167TIP3    H233993   3.886   4.623   4.528  0.7131  0.2558 -1.4701
 4168TIP3   OH233994   1.802   1.397   3.458 -0.3451  0.0760 -0.1239
 4168TIP3    H133995   1.847   1.481   3.463  1.5242 -0.8592 -0.7724
 4168TIP3    H233996   1.837   1.355   3.380 -0.4810 -1.7427  0.7666
 4169TIP3   OH233997   6.430   0.857   2.355  0.2378  0.1608 -0.0242
 4169TIP3    H133998   6.504   0.825   2.406  0.2869  0.1129 -0.1260
 4169TIP3    H233999   6.359   0.796   2.375  0.0847  0.4938  0.4598
 4170TIP3   OH234000   3.509   5.368   3.246  0.3424  0.3960  0.1108
 4170TIP3    H134001   3.503   5.461   3.265  1.3779  0.6583 -0.7870
 4170TIP3    H234002   3.603   5.349   3.250  0.2924 -0.2238 -1.4738
 4171TIP3   OH234003   4.530   6.608  13.314  0.5742  0.6597 -0.3884
 4171TIP3    H134004   4.568   6.548  13.249  0.1643 -0.5003  0.4211
 4171TIP3    H234005   4.496   6.681  13.262 -2.4614 -1.6484 -1.8041
 4172TIP3   OH234006   6.694   0.954  16.117 -0.1220  0.1534 -0.0602
 4172TIP3    H134007   6.728   0.870  16.085 -0.3344 -0.2433  0.7323
 4172TIP3    H234008   6.769   0.995  16.161 -0.0869  0.2586 -0.2202
 4173TIP3   OH234009   0.778   0.748   3.845  0.2722 -0.5370 -0.6963
 4173TIP3    H134010   0.711   0.806   3.808  0.6931  0.0501 -0.5379
 4173TIP3    H234011   0.729   0.690   3.904 -0.2264 -0.6998 -1.2580
 4174TIP3   OH234012   1.532   3.598   0.560  0.4374 -0.6787 -0.6159
 4174TIP3    H134013   1.500   3.508   0.560  1.0435 -0.9061 -1.7526
 4174TIP3    H234014   1.609   3.596   0.504  1.7073  0.1187  1.0497
 4175TIP3   OH234015   5.697   1.339   3.771  0.2520 -1.1047  0.0432
 4175TIP3    H134016   5.707   1.432   3.791  0.4385 -1.0223 -0.4140
 4175TIP3    H234017   5.787   1.306   3.769  0.1142 -1.6018  1.6121
 4176TIP3   OH234018   0.013   1.974   1.038 -0.1094  0.0777 -0.0626
 4176TIP3    H134019  -0.043   2.034   1.087 -0.8933 -1.7728  1.3891
 4176TIP3    H234020   0.073   1.939   1.103  2.1742  1.3333 -1.4305
 4177TIP3   OH234021   0.500   5.517  14.767 -0.1589  0.1396  0.5429
 4177TIP3    H134022   0.442   5.465  14.712  0.3660 -0.1568  0.2657
 4177TIP3    H234023   0.448   5.594  14.790  0.2666  1.2867 -2.0502
 4178TIP3   OH234024   3.813   3.488   6.141  0.4242  0.2693 -0.2375
 4178TIP3    H134025   3.888   3.434   6.118  0.9810  1.5095 -1.4743
 4178TIP3    H234026   3.842   3.540   6.216 -0.5584 -2.0409  1.7972
 4179TIP3   OH234027   6.302   1.796   1.866 -0.5523 -0.9369 -0.2073
 4179TIP3    H134028   6.216   1.835   1.883 -0.4058 -0.7496  0.1174
 4179TIP3    H234029   6.359   1.870   1.847 -0.4421 -1.0542 -0.3362
 4180TIP3   OH234030   2.187   2.501  16.275  0.3347 -0.1472 -0.2190
 4180TIP3    H134031   2.210   2.587  16.312  3.0405 -0.8983 -0.1160
 4180TIP3    H234032   2.215   2.506  16.184 -1.3644 -0.2455 -0.7692
 4181TIP3   OH234033   1.107   0.139  16.291 -0.4087 -0.4910  0.1089
 4181TIP3    H134034   1.167   0.122  16.363 -0.0279  0.4428  0.0218
 4181TIP3    H234035   1.023   0.155  16.334 -0.4706 -1.2059  0.2620
 4182TIP3   OH234036   1.223   5.620  12.655 -0.6933 -0.8424  0.0548
 4182TIP3    H134037   1.309   5.589  12.680  0.2008  0.4714 -1.2930
 4182TIP3    H234038   1.220   5.610  12.559 -0.9624  1.6675 -0.2403
 4183TIP3   OH234039   4.712   0.339  16.000  1.1966 -0.1211 -0.1319
 4183TIP3    H134040   4.649   0.393  16.048  1.5417  0.6558 -0.5392
 4183TIP3    H234041   4.796   0.356  16.043  2.0026  2.6770 -2.6463
 4184TIP3   OH234042   4.001   4.271  14.238  0.8708  0.5768  0.0898
 4184TIP3    H134043   3.950   4.274  14.318 -0.0797  0.6759 -0.5088
 4184TIP3    H234044   4.090   4.254  14.267  0.5563  0.7285  1.1712
 4185TIP3   OH234045   6.655   1.690   5.973 -0.2077  0.2310 -0.6088
 4185TIP3    H134046   6.710   1.616   5.998 -2.3847 -1.2840 -0.2143
 4185TIP3    H234047   6.583   1.651   5.923 -0.1961  2.3425 -2.3567
 4186TIP3   OH234048   6.072   0.957  13.359 -0.0914  0.4574  0.2627
 4186TIP3    H134049   6.124   0.888  13.317  0.3435  0.5892  0.5886
 4186TIP3    H234050   6.102   0.958  13.449  1.5746  2.6847 -0.2760
 4187TIP3   OH234051   4.130   1.885   3.563 -0.5203  0.1533 -0.6048
 4187TIP3    H134052   4.147   1.855   3.652 -1.1810 -0.8191 -0.7983
 4187TIP3    H234053   4.211   1.867   3.516  0.8648  3.2903  0.4435
 4188TIP3   OH234054   3.582   0.503   1.307 -0.1467 -0.5395 -0.5291
 4188TIP3    H134055   3.587   0.519   1.401 -1.0332 -1.0370 -0.3966
 4188TIP3    H234056   3.494   0.533   1.282  0.7824  1.4714 -1.5648
 4189TIP3   OH234057   4.542   4.397  12.892 -0.2018  0.7232  0.6973
 4189TIP3    H134058   4.607   4.465  12.912  2.9728 -1.8328 -0.4357
 4189TIP3    H234059   4.505   4.424  12.808  0.7739  1.2413  0.4232
 4190TIP3   OH234060   2.927   0.759  15.255  0.4659 -0.6238  0.2912
 4190TIP3    H134061   2.863   0.688  15.261  0.3983 -0.5775  0.1175
 4190TIP3    H234062   2.938   0.775  15.162  1.1664 -1.0172  0.3029
 4191TIP3   OH234063   0.037   2.731   3.261  0.1101 -0.5569 -0.6545
 4191TIP3    H134064   0.039   2.666   3.190 -2.4964 -2.3166  0.7821
 4191TIP3    H234065  -0.030   2.698   3.321  0.0687  2.5225  1.0829
 4192TIP3   OH234066   6.025   1.084   0.432 -0.3554  0.6088 -0.0342
 4192TIP3    H134067   5.969   1.008   0.419 -0.0525  0.3048  0.4028
 4192TIP3    H234068   6.113   1.048   0.443 -0.3305  0.9560  0.9851
 4193TIP3   OH234069   2.818   4.341  12.447 -0.7446  0.2056 -0.0909
 4193TIP3    H134070   2.732   4.379  12.428 -0.2263  0.5606 -1.8641
 4193TIP3    H234071   2.865   4.345  12.363  1.2315  0.6127  0.9973
 4194TIP3   OH234072   3.562   6.791  13.391  1.1762  0.3027  0.3703
 4194TIP3    H134073   3.496   6.740  13.344 -0.8952  3.3322 -0.1743
 4194TIP3    H234074   3.638   6.733  13.396 -1.0490 -2.8006 -0.1745
 4195TIP3   OH234075   5.334   4.485  13.698 -0.5279 -0.0539  0.3727
 4195TIP3    H134076   5.320   4.579  13.712 -0.1753  0.2602 -1.2718
 4195TIP3    H234077   5.365   4.479  13.607 -0.0210 -1.7080  0.6451
 4196TIP3   OH234078   0.081   1.523  12.739 -0.5112  0.2786  0.3989
 4196TIP3    H134079   0.083   1.619  12.734 -0.6392  0.2331 -0.5616
 4196TIP3    H234080   0.027   1.496  12.665  1.1154 -0.6158 -0.5009
 4197TIP3   OH234081   0.879   2.640  16.979 -0.1083  0.1947  0.7454
 4197TIP3    H134082   0.926   2.671  17.057  2.3337  0.1745 -0.6447
 4197TIP3    H234083   0.943   2.651  16.908 -1.6190 -1.5847 -0.9214
 4198TIP3   OH234084   6.186   5.728  13.691 -0.2125 -0.1177 -0.3417
 4198TIP3    H134085   6.147   5.699  13.609  1.9272  0.3010 -1.5355
 4198TIP3    H234086   6.136   5.807  13.715 -3.2098 -2.2370  0.6873
 4199TIP3   OH234087   6.287   1.317  16.219 -0.6511 -0.0777 -0.4943
 4199TIP3    H134088   6.213   1.378  16.215 -0.3170  0.3310 -0.4356
 4199TIP3    H234089   6.334   1.342  16.298 -0.5988 -0.5138 -0.3876
 4200TIP3   OH234090   1.998   0.083   0.115 -0.0957  0.0243 -0.0680
 4200TIP3    H134091   1.941   0.155   0.141  0.5133  0.6303 -0.3929
 4200TIP3    H234092   2.070   0.085   0.178 -0.2994 -0.5757  0.1867
 4201TIP3   OH234093   4.480   4.694  12.909 -0.7844  1.4103 -0.5066
 4201TIP3    H134094   4.543   4.679  12.980 -0.0491  3.7624 -0.6213
 4201TIP3    H234095   4.400   4.652  12.939  0.8739 -1.9323 -0.4934
 4202TIP3   OH234096   3.489   1.391   5.296  0.0493  0.1226 -0.1434
 4202TIP3    H134097   3.452   1.366   5.211  0.9095  0.0828 -0.5158
 4202TIP3    H234098   3.433   1.463   5.327  0.5122  1.0317 -1.3629
 4203TIP3   OH234099   3.468   3.531   5.954 -0.1236  0.1035 -0.6859
 4203TIP3    H134100   3.534   3.476   5.912 -1.0626 -3.4053  2.1745
 4203TIP3    H234101   3.518   3.601   5.996  1.5168 -0.7577 -1.1417
 4204TIP3   OH234102   5.524   0.286  15.264 -0.6220  0.2650  0.1617
 4204TIP3    H134103   5.557   0.197  15.272 -1.0661  0.0903  0.0253
 4204TIP3    H234104   5.441   0.286  15.311  0.3064  1.0983  1.8450
 4205TIP3   OH234105   5.512   6.370   1.456  0.1753  0.3789 -0.2943
 4205TIP3    H134106   5.445   6.356   1.524 -0.0974  3.0197  0.0200
 4205TIP3    H234107   5.595   6.357   1.501 -0.0516  0.0085  0.0240
 4206TIP3   OH234108   5.078   3.067  16.270  0.0536  0.0360  0.3067
 4206TIP3    H134109   5.092   3.076  16.176 -2.2314  0.2712 -0.0255
 4206TIP3    H234110   5.061   2.974  16.283 -1.6881  0.3340  0.1936
 4207TIP3   OH234111   3.487   6.157   1.455 -0.1447  0.2920 -0.3445
 4207TIP3    H134112   3.549   6.088   1.431 -0.0497  0.4504 -0.5592
 4207TIP3    H234113   3.406   6.132   1.410 -0.3744 -0.1666  0.3195
 4208TIP3   OH234114   2.120   6.516  15.944 -0.4608  0.0532 -0.1345
 4208TIP3    H134115   2.176   6.438  15.948  1.0422  0.9736 -2.1659
 4208TIP3    H234116   2.107   6.540  16.035  1.4031 -0.9416  0.4305
 4209TIP3   OH234117   6.376   1.152   2.390  0.2871  0.1880 -0.1322
 4209TIP3    H134118   6.291   1.155   2.435  0.6096  0.2387  0.4919
 4209TIP3    H234119   6.393   1.059   2.377 -0.0722  0.1965 -0.6591
 4210TIP3   OH234120   0.096   1.172   4.413 -0.6544 -0.3343 -0.1229
 4210TIP3    H134121   0.124   1.146   4.501  0.3603 -0.2807 -0.4167
 4210TIP3    H234122   0.100   1.268   4.415 -1.5273 -0.2994  0.0531
 4211TIP3   OH234123   6.095   6.358  10.624 -0.3044 -0.1804 -0.1483
 4211TIP3    H134124   6.187   6.385  10.631 -0.5402  0.6911 -0.2786
 4211TIP3    H234125   6.064   6.356  10.715 -0.1370 -0.5464 -0.0990
 4212TIP3   OH234126   1.505   4.794  12.192  0.4279 -0.9617 -0.2315
 4212TIP3    H134127   1.415   4.761  12.202 -0.3610  1.2929  0.4028
 4212TIP3    H234128   1.556   4.744  12.256 -1.0796  0.2144  1.9825
 4213TIP3   OH234129   5.282   2.233  12.357  0.0871  0.7399 -0.1705
 4213TIP3    H134130   5.350   2.289  12.393 -0.3480  2.0372 -1.3223
 4213TIP3    H234131   5.329   2.157  12.323  0.8175  1.0058  0.2520
 4214TIP3   OH234132   3.114   2.941   5.139 -0.3418 -0.8016  0.0495
 4214TIP3    H134133   3.041   3.000   5.122  0.7015  0.7812  0.8989
 4214TIP3    H234134   3.147   2.968   5.225  0.7205 -2.0342  0.0518
 4215TIP3   OH234135   1.972   0.980   2.294 -0.1210 -0.2361  0.1622
 4215TIP3    H134136   2.057   0.967   2.336 -0.1332 -0.0749  0.2333
 4215TIP3    H234137   1.985   0.944   2.206  0.4342  1.0169 -0.2784
 4216TIP3   OH234138   2.640   4.378   2.913 -0.4634  0.0664  0.6240
 4216TIP3    H134139   2.713   4.318   2.901 -1.5487 -0.9181 -1.1780
 4216TIP3    H234140   2.591   4.341   2.986 -0.7648 -0.8937 -0.0565
 4217TIP3   OH234141   0.201   5.649  12.343 -0.1709 -0.3442 -0.0775
 4217TIP3    H134142   0.231   5.740  12.349  0.6726 -0.6951  1.4090
 4217TIP3    H234143   0.278   5.600  12.314 -0.6938 -0.5496 -1.1310
 4218TIP3   OH234144   6.165   2.845   5.620  0.3515 -0.0161 -0.1064
 4218TIP3    H134145   6.143   2.873   5.531 -0.2113 -1.3953 -0.4205
 4218TIP3    H234146   6.089   2.868   5.672  1.3461  2.3056  0.3682
 4219TIP3   OH234147   0.788   6.079   4.833 -0.6389 -0.5333 -0.1536
 4219TIP3    H134148   0.713   6.081   4.774 -1.7732  0.7153  1.2602
 4219TIP3    H234149   0.750   6.096   4.920  1.3135  0.4344  0.5435
 4220TIP3   OH234150   1.039   5.217  13.319  0.4145  0.1059  0.7993
 4220TIP3    H134151   0.999   5.173  13.244 -2.3731 -0.5726  2.6238
 4220TIP3    H234152   1.056   5.306  13.288 -1.3065  0.0135 -0.4501
 4221TIP3   OH234153   1.486   2.034  12.604 -0.0617  0.4868 -0.4995
 4221TIP3    H134154   1.570   2.077  12.589  0.7882 -1.2110 -0.8289
 4221TIP3    H234155   1.482   1.965  12.537 -0.5480 -1.0688  1.0802
 4222TIP3   OH234156   4.406   5.556  16.501  0.4018  0.0021  0.2763
 4222TIP3    H134157   4.323   5.536  16.458  1.7844 -1.5168 -1.8685
 4222TIP3    H234158   4.420   5.649  16.485 -0.1376 -0.0841 -0.7735
 4223TIP3   OH234159   4.847   6.171  12.815 -0.2090  0.3857  0.2811
 4223TIP3    H134160   4.824   6.219  12.736  1.3614  0.3497 -0.1984
 4223TIP3    H234161   4.941   6.155  12.809 -0.2307 -0.4668  1.6874
 4224TIP3   OH234162   6.346   3.475  13.452 -0.0687 -0.1612  0.4131
 4224TIP3    H134163   6.300   3.530  13.515  1.6116  2.1505 -0.2653
 4224TIP3    H234164   6.439   3.484  13.476  0.4207 -0.8170 -1.1451
 4225TIP3   OH234165   0.949   4.769  12.855 -0.4085 -0.8545  0.3217
 4225TIP3    H134166   0.871   4.801  12.809  0.4959 -1.9851 -2.0922
 4225TIP3    H234167   1.008   4.844  12.858 -1.6545  0.0744  2.3709
 4226TIP3   OH234168   1.156   1.411   6.110  0.4495 -0.1594  0.2118
 4226TIP3    H134169   1.195   1.348   6.170 -1.2293 -2.1437 -0.7099
 4226TIP3    H234170   1.075   1.439   6.154  1.1119  1.2587  0.5511
 4227TIP3   OH234171   3.701   2.568   3.324  0.5312  0.1996 -0.3142
 4227TIP3    H134172   3.781   2.592   3.279 -0.0023  0.8452 -0.9333
 4227TIP3    H234173   3.632   2.613   3.276  0.1063  2.2843  2.1316
 4228TIP3   OH234174   5.533   2.793   1.211 -0.2116 -0.7598 -0.6608
 4228TIP3    H134175   5.492   2.721   1.163 -0.8053 -0.0928 -1.1600
 4228TIP3    H234176   5.585   2.839   1.145 -3.0188  1.6682 -1.2827
 4229TIP3   OH234177   6.037   2.985   6.104  0.4714 -0.1708 -0.0919
 4229TIP3    H134178   6.114   2.983   6.160  0.3019 -2.0806  0.1156
 4229TIP3    H234179   5.963   2.991   6.165  0.4546  2.4727 -0.3177
 4230TIP3   OH234180   2.777   4.848   4.118  0.0275 -0.3518 -0.0596
 4230TIP3    H134181   2.729   4.913   4.169  0.1262  0.4953 -1.0379
 4230TIP3    H234182   2.869   4.872   4.128  0.0949 -0.5870 -0.0938
 4231TIP3   OH234183   3.003   3.504  12.553 -0.2914 -0.7922 -0.4062
 4231TIP3    H134184   3.092   3.520  12.586 -0.4037  0.3607 -0.6278
 4231TIP3    H234185   2.946   3.522  12.628 -0.4796  0.8410 -0.9076
 4232TIP3   OH234186   1.048   2.485  11.581 -0.5181  0.2787 -0.3105
 4232TIP3    H134187   1.000   2.403  11.596  1.4127 -0.7947  0.2609
 4232TIP3    H234188   1.039   2.534  11.662 -0.2250 -0.1513 -0.0153
 4233TIP3   OH234189   0.284   3.297  11.175  0.2399 -0.1746  0.1180
 4233TIP3    H134190   0.293   3.288  11.080  0.8136 -0.0810  0.1628
 4233TIP3    H234191   0.307   3.210  11.209  1.6947  0.2655  0.2796
 4234TIP3   OH234192   4.187   2.898  12.420 -0.0600  0.3444 -0.0580
 4234TIP3    H134193   4.268   2.919  12.467  0.0184  1.7643 -0.8234
 4234TIP3    H234194   4.211   2.905  12.328 -0.3137 -2.0760 -0.3347
 4235TIP3   OH234195   0.119   5.536   2.541 -0.2104  0.8831  0.3283
 4235TIP3    H134196   0.038   5.515   2.494 -0.4017 -0.2473  1.1528
 4235TIP3    H234197   0.109   5.628   2.565 -1.0118  0.8999 -0.0376
 4236TIP3   OH234198   1.997   5.847   5.530  0.2110 -0.0364 -0.3062
 4236TIP3    H134199   2.007   5.826   5.623 -2.6891  0.6814  0.2234
 4236TIP3    H234200   2.016   5.940   5.525  0.4464 -0.0925 -0.4528
 4237TIP3   OH234201   4.910   4.246   3.227 -0.4981  0.1628  0.0775
 4237TIP3    H134202   4.912   4.250   3.323 -1.9144 -0.3348  0.1340
 4237TIP3    H234203   4.859   4.323   3.201 -0.1391  0.2837 -0.2779
 4238TIP3   OH234204   0.698   3.262  12.104 -0.5286  0.6740 -0.2147
 4238TIP3    H134205   0.722   3.224  12.020  0.5723  1.2013 -0.1427
 4238TIP3    H234206   0.619   3.312  12.086 -1.5184 -0.9428 -0.4893
 4239TIP3   OH234207   1.333   4.053   0.408  0.6140 -0.1749  0.2711
 4239TIP3    H134208   1.276   4.109   0.355  1.1467  1.8093  1.7592
 4239TIP3    H234209   1.275   3.984   0.440 -0.9067  1.6454  1.5202
 4240TIP3   OH234210   3.091   0.988   1.608 -0.1590  0.1422  0.1161
 4240TIP3    H134211   3.090   1.025   1.697 -0.0898 -1.2997  0.7265
 4240TIP3    H234212   3.001   0.995   1.579 -0.5743 -1.1492  1.0532
 4241TIP3   OH234213   0.184   0.556   3.036 -0.0033 -0.4924 -0.2210
 4241TIP3    H134214   0.195   0.485   2.972  0.8040 -1.7667  1.2994
 4241TIP3    H234215   0.128   0.518   3.104 -1.0651  0.9397 -0.2840
 4242TIP3   OH234216   6.325   3.095   5.451 -0.2558 -0.0600 -0.4231
 4242TIP3    H134217   6.337   3.006   5.417 -1.4991 -0.1836 -0.5628
 4242TIP3    H234218   6.251   3.130   5.401 -1.3488  0.1858  1.3342
 4243TIP3   OH234219   2.859   5.154  16.022  0.1042 -0.1020 -0.1750
 4243TIP3    H134220   2.917   5.097  16.074 -1.4704 -0.0431  1.7007
 4243TIP3    H234221   2.780   5.162  16.075 -2.1053 -1.0762 -3.1600
 4244TIP3   OH234222   1.635   4.774  10.971  0.2077 -1.0646  0.1662
 4244TIP3    H134223   1.731   4.779  10.965  0.3298 -2.6372  0.5673
 4244TIP3    H234224   1.619   4.696  11.023 -1.2747  0.0869  1.4972
 4245TIP3   OH234225   3.983   6.785   2.685 -0.6523  0.3430 -0.5179
 4245TIP3    H134226   3.999   6.695   2.716 -1.5544 -0.1351 -1.3872
 4245TIP3    H234227   3.906   6.813   2.735 -0.8602  0.3285 -0.8264
 4246TIP3   OH234228   0.946   0.273   4.780  0.4660  0.3156 -0.7932
 4246TIP3    H134229   0.854   0.248   4.781  0.4901  0.0480 -2.7167
 4246TIP3    H234230   0.973   0.270   4.872 -1.1568 -0.6460 -0.3267
 4247TIP3   OH234231   3.190   1.129   4.684  0.1419  0.2900  0.1568
 4247TIP3    H134232   3.123   1.118   4.617  0.0128  3.4339 -0.2904
 4247TIP3    H234233   3.193   1.044   4.729 -1.4920 -1.0744 -2.1933
 4248TIP3   OH234234   4.546   0.357  11.419  0.3893 -0.2683  0.4237
 4248TIP3    H134235   4.620   0.419  11.422  1.3743 -1.4313  0.5248
 4248TIP3    H234236   4.472   0.407  11.454  1.5210  0.3890  1.9646
 4249TIP3   OH234237   2.697   5.182   2.985  0.3943 -0.3643  0.5042
 4249TIP3    H134238   2.720   5.144   3.070 -0.6651  0.2860  1.0900
 4249TIP3    H234239   2.616   5.138   2.960  0.4175 -0.1645  0.0781
 4250TIP3   OH234240   6.014   0.179   2.964  0.2286  0.2539 -0.4429
 4250TIP3    H134241   6.103   0.193   2.932  0.1626  0.0558 -0.7124
 4250TIP3    H234242   5.958   0.193   2.887  0.1086 -0.7433 -0.5453
 4251TIP3   OH234243   1.834   1.739   1.507 -0.0850 -0.0795 -0.0212
 4251TIP3    H134244   1.764   1.679   1.533 -0.7596 -0.1377 -1.9466
 4251TIP3    H234245   1.881   1.693   1.438  1.9734 -0.1044  1.3329
 4252TIP3   OH234246   1.305   2.725   3.002  0.0569  0.2652 -0.7814
 4252TIP3    H134247   1.268   2.690   2.921  0.2478  0.2395 -0.8594
 4252TIP3    H234248   1.358   2.654   3.037 -0.8979 -0.0883 -0.0605
 4253TIP3   OH234249   3.991   1.453   5.474  0.2662  0.4117  0.1053
 4253TIP3    H134250   3.986   1.499   5.391  0.6700 -1.8658 -1.2371
 4253TIP3    H234251   3.906   1.408   5.481  1.4284 -1.9753 -0.6750
 4254TIP3   OH234252   0.569   6.381   3.114 -0.2349  0.0552 -0.1783
 4254TIP3    H134253   0.485   6.411   3.079  0.7836  0.7024 -2.1153
 4254TIP3    H234254   0.565   6.286   3.106 -0.7134  0.0921 -0.4305
 4255TIP3   OH234255   2.942   2.548   3.590  0.4759  0.0120 -0.5736
 4255TIP3    H134256   2.901   2.629   3.559  0.2545 -0.4954 -1.6459
 4255TIP3    H234257   2.945   2.557   3.685 -1.1087  0.5458 -0.5612
 4256TIP3   OH234258   3.998   0.023  12.033  0.2272  1.0101  0.1840
 4256TIP3    H134259   4.028   0.040  12.123  0.7701  1.5552 -0.0970
 4256TIP3    H234260   3.910  -0.013  12.044  0.7996 -0.1634  0.9867
 4257TIP3   OH234261   3.925   5.788   5.251 -0.0426  0.4671 -0.0713
 4257TIP3    H134262   3.904   5.807   5.343  1.0641  2.9310 -0.2916
 4257TIP3    H234263   3.923   5.693   5.246  0.6493  0.2480  2.7121
 4258TIP3   OH234264   2.673   3.568   2.400  0.1668  0.2411  0.1621
 4258TIP3    H134265   2.598   3.531   2.354  1.4729  0.6888 -2.3981
 4258TIP3    H234266   2.682   3.514   2.478 -1.2879 -1.3680 -0.7531
 4259TIP3   OH234267   2.576   0.204   0.616  0.0517 -0.1101 -0.2701
 4259TIP3    H134268   2.527   0.122   0.614  0.3863 -0.3341  0.5633
 4259TIP3    H234269   2.509   0.272   0.622 -0.1818 -0.3734  0.0871
 4260TIP3   OH234270   4.679   3.191  11.049  0.0208  0.2291 -0.1080
 4260TIP3    H134271   4.751   3.134  11.021 -0.6604 -0.4619 -0.4833
 4260TIP3    H234272   4.607   3.169  10.989 -1.1774 -0.6358  1.6187
 4261TIP3   OH234273   2.461   1.274   1.491  0.0830  0.0056 -0.1154
 4261TIP3    H134274   2.428   1.223   1.565 -0.2026 -1.8121 -1.4918
 4261TIP3    H234275   2.398   1.346   1.482 -1.0222 -0.9404  0.0802
 4262TIP3   OH234276   3.098   0.694  14.636  0.3350  0.0712 -0.7384
 4262TIP3    H134277   3.045   0.687  14.557  0.7666 -0.7937 -0.9554
 4262TIP3    H234278   3.034   0.698  14.707 -0.0472 -2.6453 -0.8582
 4263TIP3   OH234279   3.371   4.397  14.085  0.0307  0.2090 -0.3936
 4263TIP3    H134280   3.361   4.335  14.157 -0.4900 -1.0060 -1.4978
 4263TIP3    H234281   3.449   4.448  14.108  2.1390 -2.6814 -0.7971
 4264TIP3   OH234282   4.527   3.475   6.245  0.3307  0.6336  0.2093
 4264TIP3    H134283   4.459   3.411   6.265 -0.8182  1.7013 -0.2610
 4264TIP3    H234284   4.606   3.439   6.287  0.1090 -1.9293 -1.4304
 4265TIP3   OH234285   2.406   1.462   4.523  0.3535  0.4900  0.1573
 4265TIP3    H134286   2.431   1.455   4.615  2.5601  0.8338 -0.3903
 4265TIP3    H234287   2.406   1.556   4.506 -1.5070  0.5135  0.1649
 4266TIP3   OH234288   5.283   1.788   6.041  0.2088  1.2056 -0.1364
 4266TIP3    H134289   5.358   1.737   6.073 -0.5383  1.7704  2.6917
 4266TIP3    H234290   5.322   1.861   5.992  1.5034  1.1699  0.8144
 4267TIP3   OH234291   5.970   4.375  16.853 -0.3314  0.1220 -0.1121
 4267TIP3    H134292   5.980   4.284  16.828 -2.0755 -0.9298  2.8052
 4267TIP3    H234293   6.058   4.404  16.876  0.2141 -0.8134 -0.9796
 4268TIP3   OH234294   5.762   2.538   2.550  0.1466 -0.6587  0.0357
 4268TIP3    H134295   5.757   2.443   2.550  1.4643 -0.7365 -0.0695
 4268TIP3    H234296   5.749   2.563   2.458  1.0669 -0.8174 -0.1421
 4269TIP3   OH234297   1.542   3.886   4.429 -0.2882 -0.0670  0.3554
 4269TIP3    H134298   1.559   3.976   4.401  1.9270 -0.4438  0.3768
 4269TIP3    H234299   1.626   3.842   4.418 -0.8886 -1.6913  2.0523
 4270TIP3   OH234300   0.823   4.965   5.855 -0.6202  0.4810  0.0088
 4270TIP3    H134301   0.837   4.901   5.926 -1.7821 -0.4679 -0.6003
 4270TIP3    H234302   0.911   4.985   5.824 -0.2510 -1.1188 -0.0384
 4271TIP3   OH234303   2.449   0.432   0.220  0.0983  0.0688 -0.6429
 4271TIP3    H134304   2.508   0.489   0.172 -0.0556 -1.1373 -2.3171
 4271TIP3    H234305   2.361   0.465   0.200  0.1558  1.5925  1.4924
 4272TIP3   OH234306   3.383   5.159   1.401  0.1177 -0.3999  0.0229
 4272TIP3    H134307   3.357   5.212   1.476  2.6368 -0.0713  0.6853
 4272TIP3    H234308   3.444   5.095   1.437 -0.7082 -1.9508 -1.2815
 4273TIP3   OH234309   0.345   5.242   3.588 -0.1097 -0.6454 -0.4973
 4273TIP3    H134310   0.260   5.215   3.554  0.3428 -1.3634 -1.0887
 4273TIP3    H234311   0.408   5.200   3.530  0.6768 -1.4201  0.8963
 4274TIP3   OH234312   3.558   1.124   6.059 -0.2009 -0.3540 -0.1730
 4274TIP3    H134313   3.476   1.135   6.010  0.6138 -0.7520 -1.6403
 4274TIP3    H234314   3.529   1.099   6.147 -1.6417 -1.2847 -0.8875
 4275TIP3   OH234315   3.081   1.476  12.776 -0.1913 -0.3294 -0.6118
 4275TIP3    H134316   3.069   1.387  12.742 -0.9460 -0.2523 -0.5585
 4275TIP3    H234317   3.015   1.528  12.731  0.8786  0.4066 -1.3659
 4276TIP3   OH234318   2.670   3.320   0.170 -0.1224  0.9228  0.6175
 4276TIP3    H134319   2.576   3.314   0.154 -0.1353 -3.0601  1.6988
 4276TIP3    H234320   2.707   3.246   0.122  2.2560  1.4602  1.5582
 4277TIP3   OH234321   0.278   1.378  14.076 -0.0815 -0.3638  0.0280
 4277TIP3    H134322   0.211   1.439  14.107 -1.8411 -1.6765 -1.1029
 4277TIP3    H234323   0.247   1.292  14.103  1.3220 -0.9677 -0.2352
 4278TIP3   OH234324   6.588   2.478  15.850  0.1326  0.1415 -0.1672
 4278TIP3    H134325   6.519   2.500  15.913  1.1557  2.6815  0.1448
 4278TIP3    H234326   6.643   2.556  15.847  2.9171 -1.7719 -0.5390
 4279TIP3   OH234327   6.450   5.261   0.750 -0.2600 -1.0365 -0.7190
 4279TIP3    H134328   6.472   5.194   0.815  0.6868 -0.0641 -0.0083
 4279TIP3    H234329   6.400   5.326   0.799  2.3890  0.8331 -0.3810
 4280TIP3   OH234330   5.484   2.012  15.489 -0.3559 -0.2638  0.0248
 4280TIP3    H134331   5.477   1.931  15.539  1.4969  0.0781  0.8837
 4280TIP3    H234332   5.565   2.004  15.440 -0.1526  1.0594  0.1212
 4281TIP3   OH234333   1.914   5.191   6.373  0.2510  0.4699  0.0299
 4281TIP3    H134334   1.862   5.135   6.316  1.2151  1.6096 -2.0207
 4281TIP3    H234335   1.983   5.133   6.406 -0.9783 -0.4848  1.0290
 4282TIP3   OH234336   3.007   5.026  13.551  0.2915  0.3017  0.5188
 4282TIP3    H134337   2.982   5.008  13.461  0.4804  0.9746  0.3223
 4282TIP3    H234338   3.015   4.940  13.593  1.3564 -0.0665 -0.4171
 4283TIP3   OH234339   4.938   2.481   3.628  0.4626 -0.0032  0.2040
 4283TIP3    H134340   5.015   2.438   3.665  1.2826  2.6846  1.8097
 4283TIP3    H234341   4.973   2.562   3.590 -1.6141  1.3929  1.2177
 4284TIP3   OH234342   3.031   1.460  15.523 -0.6958  0.3063  0.4621
 4284TIP3    H134343   3.104   1.499  15.476 -0.4798  0.9079  1.2944
 4284TIP3    H234344   3.063   1.447  15.612 -1.6548  0.7449  0.8835
 4285TIP3   OH234345   1.566   5.807  17.105  0.1484 -0.2071  0.3722
 4285TIP3    H134346   1.572   5.726  17.055  0.9633 -0.8499  1.4784
 4285TIP3    H234347   1.545   5.779  17.194  2.0783  0.6413  1.1444
 4286TIP3   OH234348   5.495   4.448   0.072 -0.1531 -0.8406 -0.1981
 4286TIP3    H134349   5.534   4.362   0.059 -0.0848 -0.9184  0.5196
 4286TIP3    H234350   5.418   4.448   0.015 -1.5298 -2.2856  1.6224
 4287TIP3   OH234351   1.549   1.674   1.158  0.0717 -0.4753 -0.1814
 4287TIP3    H134352   1.487   1.737   1.193  1.1759  1.2234 -1.2194
 4287TIP3    H234353   1.501   1.628   1.090 -0.3128  0.1972 -0.3627
 4288TIP3   OH234354   0.649   1.842   4.994  0.2550  0.3196  0.4385
 4288TIP3    H134355   0.643   1.877   4.905 -2.6637  0.8678  0.8067
 4288TIP3    H234356   0.679   1.916   5.047 -0.9111  0.8317  0.3885
 4289TIP3   OH234357   1.168   4.400  11.264 -0.1777 -1.1162  0.1742
 4289TIP3    H134358   1.083   4.424  11.301  0.0075 -0.9495  0.4942
 4289TIP3    H234359   1.159   4.308  11.241 -0.3012 -1.2174  0.6222
 4290TIP3   OH234360   6.805   3.848  15.279  0.2670 -0.0616 -0.0607
 4290TIP3    H134361   6.892   3.873  15.309  0.7021 -0.2461 -1.1189
 4290TIP3    H234362   6.791   3.761  15.317 -0.1081  0.6189  1.3746
 4291TIP3   OH234363   3.766   5.409  11.711  0.0787  0.3931 -0.3802
 4291TIP3    H134364   3.825   5.457  11.769  0.0703 -1.2845  1.0548
 4291TIP3    H234365   3.679   5.442  11.733  0.1062 -0.0106  0.3754
 4292TIP3   OH234366   2.301   5.774  16.959 -0.4781 -0.4684 -0.2269
 4292TIP3    H134367   2.318   5.684  16.984 -0.5177 -0.2772  0.5038
 4292TIP3    H234368   2.312   5.824  17.040  0.0052  0.2429 -0.7208
 4293TIP3   OH234369   6.295   6.652  15.636 -0.3432 -0.1546  0.3588
 4293TIP3    H134370   6.309   6.587  15.568 -1.4520 -0.7161  0.6603
 4293TIP3    H234371   6.293   6.736  15.589 -1.5930 -0.5785 -0.3781
 4294TIP3   OH234372   5.733   5.698  15.632 -0.2729  0.0671  0.5111
 4294TIP3    H134373   5.662   5.748  15.673  0.1165  0.2690  0.9409
 4294TIP3    H234374   5.778   5.762  15.578  0.5687  0.3242  1.4941
 4295TIP3   OH234375   4.504   3.219  16.909 -0.2311  0.6436 -0.2384
 4295TIP3    H134376   4.423   3.270  16.919  0.5086  1.6279  0.9231
 4295TIP3    H234377   4.533   3.236  16.820 -0.8220  1.0373 -0.3585
 4296TIP3   OH234378   5.116   0.000   6.754  0.1180 -0.3433 -0.1610
 4296TIP3    H134379   5.099   0.082   6.707  0.2810 -0.5061 -0.5038
 4296TIP3    H234380   5.051  -0.061   6.719 -0.7909 -0.0389  0.9475
 4297TIP3   OH234381   1.847   2.354  12.991  0.2971  0.1890 -0.0415
 4297TIP3    H134382   1.921   2.403  13.027 -0.0228  0.1420  0.6900
 4297TIP3    H234383   1.770   2.401  13.024 -0.0006  0.0399 -0.5280
 4298TIP3   OH234384   2.692   3.555   4.051 -0.1736 -0.3494  0.5155
 4298TIP3    H134385   2.761   3.570   3.986  1.7751  0.3481  2.6999
 4298TIP3    H234386   2.661   3.466   4.034 -0.0839  0.0026 -1.6843
 4299TIP3   OH234387   3.185   2.985   3.828 -0.4317  0.1411 -0.0874
 4299TIP3    H134388   3.126   2.969   3.754 -0.3368  1.0619 -0.3574
 4299TIP3    H234389   3.219   2.898   3.849 -0.5786 -0.1537 -1.0210
 4300TIP3   OH234390   3.167   1.841  13.749  0.5687 -0.4281  0.5006
 4300TIP3    H134391   3.127   1.904  13.689  1.2748 -0.1206  0.3390
 4300TIP3    H234392   3.261   1.854  13.737  0.7208 -0.0014  2.0694
 4301TIP3   OH234393   3.067   3.829   1.932 -0.1977 -0.6406  0.1178
 4301TIP3    H134394   2.993   3.773   1.955 -0.1158 -0.5332  0.6371
 4301TIP3    H234395   3.131   3.769   1.891 -1.5575 -0.3421 -2.5732
 4302TIP3   OH234396   5.182   5.799   1.894  0.4731 -0.3773  0.0828
 4302TIP3    H134397   5.202   5.721   1.945  2.1116 -0.9255 -1.3567
 4302TIP3    H234398   5.087   5.794   1.879  0.3649 -1.4426  1.0339
 4303TIP3   OH234399   5.035   2.584   3.323 -0.2252  0.6763  0.2087
 4303TIP3    H134400   5.018   2.675   3.299 -0.6182  0.3941 -0.6064
 4303TIP3    H234401   5.065   2.543   3.241 -0.7638 -0.1005  0.3954
 4304TIP3   OH234402   2.998   5.469   1.813  0.3222 -0.3300 -0.0356
 4304TIP3    H134403   3.087   5.437   1.825  0.4538  0.2056  0.4411
 4304TIP3    H234404   2.998   5.557   1.852 -0.0792  0.1846 -1.1557
 4305TIP3   OH234405   6.801   3.471  12.418  0.1392 -0.0313 -0.3778
 4305TIP3    H134406   6.825   3.448  12.329 -0.0706 -1.1768 -0.1388
 4305TIP3    H234407   6.715   3.433  12.431  0.7309 -1.0384  0.7511
 4306TIP3   OH234408   2.603   4.651   4.019 -0.1038  0.2454  0.6448
 4306TIP3    H134409   2.650   4.734   4.012  1.0191 -0.0731  3.8840
 4306TIP3    H234410   2.672   4.585   4.023 -0.9770 -0.8171 -1.1405
 4307TIP3   OH234411   0.263   3.326  14.252 -0.0004 -0.3534  0.5565
 4307TIP3    H134412   0.297   3.277  14.177 -1.5933  0.2029 -0.5260
 4307TIP3    H234413   0.183   3.280  14.277  0.4947 -0.5101  1.8994
 4308TIP3   OH234414   5.904   1.813   5.981 -0.1972 -0.0848  0.1886
 4308TIP3    H134415   5.989   1.786   5.944 -0.8731 -0.7258 -0.9246
 4308TIP3    H234416   5.849   1.736   5.972 -1.6825  1.1561 -1.4993
 4309TIP3   OH234417   0.052   5.261  12.366 -0.1799 -0.2608 -0.1462
 4309TIP3    H134418   0.051   5.335  12.427 -0.0294 -0.1190 -0.3176
 4309TIP3    H234419   0.135   5.269  12.319  0.2947 -1.1254  0.5501
 4310TIP3   OH234420   0.259   3.255  16.442 -0.0602  0.3793  0.2350
 4310TIP3    H134421   0.187   3.236  16.382 -1.3175  0.2310  1.7537
 4310TIP3    H234422   0.259   3.350  16.450 -1.4995  0.2656  1.8878
 4311TIP3   OH234423   3.706   0.119   1.536 -0.3604 -0.4660 -0.3721
 4311TIP3    H134424   3.703   0.040   1.482 -1.4825 -0.9960  0.4456
 4311TIP3    H234425   3.617   0.129   1.570  0.6745 -1.0157  2.6372
 4312TIP3   OH234426   6.408   0.970  14.172  0.3636  0.8224 -0.3764
 4312TIP3    H134427   6.478   1.029  14.201 -1.5452  2.4169  1.1100
 4312TIP3    H234428   6.370   0.937  14.253 -1.2038  0.6901 -1.1648
 4313TIP3   OH234429   5.519   1.272  16.172 -0.6350  0.2380  0.5159
 4313TIP3    H134430   5.523   1.179  16.149 -0.3533  0.5043 -0.5027
 4313TIP3    H234431   5.542   1.318  16.092  0.1999  1.1689  1.2817
 4314TIP3   OH234432   4.311   5.966  14.564  0.5694 -0.0996 -0.1706
 4314TIP3    H134433   4.331   6.060  14.562  0.9385 -0.1713  0.1016
 4314TIP3    H234434   4.280   5.950  14.653  0.0938 -0.1522 -0.3456
 4315TIP3   OH234435   0.504   3.613   5.828  0.5194  0.3901 -0.1012
 4315TIP3    H134436   0.544   3.693   5.861 -1.3177  1.0718  0.5678
 4315TIP3    H234437   0.571   3.546   5.838  2.0640  1.8367 -0.6386
 4316TIP3   OH234438   1.884   0.007   1.152 -0.0627 -0.0747 -0.0594
 4316TIP3    H134439   1.945   0.038   1.085 -0.1364 -0.3744 -0.2670
 4316TIP3    H234440   1.935  -0.054   1.205 -0.2513 -0.5230 -0.3906
 4317TIP3   OH234441   2.007   0.826  16.466 -0.7257 -0.1428 -0.1069
 4317TIP3    H134442   2.041   0.742  16.434  2.0094  0.4337  1.2381
 4317TIP3    H234443   2.032   0.889  16.399  0.3841  0.1836  0.6030
 4318TIP3   OH234444   0.021   5.902   1.779 -0.1399 -0.1519 -0.7990
 4318TIP3    H134445  -0.068   5.904   1.744 -0.4716 -0.3647  0.0080
 4318TIP3    H234446   0.072   5.958   1.721 -0.4644 -1.2881 -2.1918
 4319TIP3   OH234447   5.629   3.716   2.332  0.0053 -0.3127 -0.2727
 4319TIP3    H134448   5.712   3.719   2.381 -0.5130 -1.7911  0.7365
 4319TIP3    H234449   5.586   3.799   2.354  0.2928 -0.4511  0.8652
 4320TIP3   OH234450   0.546   2.716   5.726  0.1934  0.3277  0.1211
 4320TIP3    H134451   0.630   2.708   5.771 -1.0342 -0.5751  2.3376
 4320TIP3    H234452   0.551   2.655   5.653  1.1140 -0.3998  0.7958
 4321TIP3   OH234453   0.150   0.651   1.519 -0.5577 -0.2583  0.0488
 4321TIP3    H134454   0.221   0.602   1.476  0.2619 -0.2773  1.4014
 4321TIP3    H234455   0.071   0.601   1.499  0.0288 -1.1460 -0.0978
 4322TIP3   OH234456   5.690   3.352  15.235 -0.5302 -0.3317  0.0192
 4322TIP3    H134457   5.748   3.398  15.173  2.7702 -2.9650  1.0019
 4322TIP3    H234458   5.643   3.289  15.181  1.9497 -2.2608  0.0138
 4323TIP3   OH234459   6.754   5.621  11.577  1.2369 -0.3460 -0.7677
 4323TIP3    H134460   6.685   5.587  11.633 -0.2108  0.8621 -1.7908
 4323TIP3    H234461   6.835   5.597  11.621  0.1332 -0.1526  1.4056
 4324TIP3   OH234462   5.533   5.406   5.588 -0.0287 -0.4270 -0.3520
 4324TIP3    H134463   5.536   5.319   5.627 -0.8889 -1.3511 -2.2951
 4324TIP3    H234464   5.495   5.393   5.502  0.9189  1.7172 -1.1417
 4325TIP3   OH234465   1.877   1.815  14.621 -0.0212 -0.3755  0.3233
 4325TIP3    H134466   1.781   1.821  14.626 -0.0720 -0.8871 -0.0299
 4325TIP3    H234467   1.902   1.765  14.698  0.0557  0.6965  1.0033
 4326TIP3   OH234468   1.574   5.960  13.358  0.2597 -0.7340 -0.2332
 4326TIP3    H134469   1.530   5.877  13.377 -0.5613 -0.0081  1.1393
 4326TIP3    H234470   1.659   5.934  13.320  1.0073 -2.2458  2.3496
 4327TIP3   OH234471   6.375   6.329  13.758  0.4997  0.1567 -0.7973
 4327TIP3    H134472   6.351   6.341  13.850  0.2124  1.5014 -1.0347
 4327TIP3    H234473   6.359   6.236  13.740 -1.1802  0.2751  0.0077
 4328TIP3   OH234474   6.286   3.426   2.632 -0.5486 -0.7489  0.1326
 4328TIP3    H134475   6.230   3.466   2.699 -0.0850  0.6963 -0.3337
 4328TIP3    H234476   6.225   3.373   2.580 -1.4425  0.5324 -0.1555
 4329TIP3   OH234477   2.514   2.469  12.515 -0.0421  0.2595  0.2089
 4329TIP3    H134478   2.596   2.436  12.479 -0.1053 -1.1084  1.2843
 4329TIP3    H234479   2.449   2.403  12.491 -0.9841  1.6589 -1.2261
 4330TIP3   OH234480   5.100   5.616   0.131  0.0348  0.0150  0.4298
 4330TIP3    H134481   5.106   5.532   0.176 -0.6030 -0.0973  0.3002
 4330TIP3    H234482   5.071   5.677   0.198  0.0778  0.0510  0.4160
 4331TIP3   OH234483   0.585   3.462   3.519 -0.0303  0.6354 -0.1768
 4331TIP3    H134484   0.528   3.418   3.583  0.2014  0.3864 -0.1422
 4331TIP3    H234485   0.606   3.545   3.561  0.5067  0.2746  0.2850
 4332TIP3   OH234486   3.907   2.521   4.536 -0.2934  0.0696  0.4555
 4332TIP3    H134487   3.996   2.534   4.568  0.4934  1.0319 -2.0822
 4332TIP3    H234488   3.852   2.564   4.601  0.9649 -1.5237  2.6673
 4333TIP3   OH234489   0.369   2.104   5.490 -0.0408 -0.6021 -0.5074
 4333TIP3    H134490   0.388   2.135   5.579  2.1495  0.7129 -1.4127
 4333TIP3    H234491   0.279   2.070   5.496  0.4565 -1.5964  2.4785
 4334TIP3   OH234492   5.822   1.009  14.029  0.1245 -0.2117  0.0121
 4334TIP3    H134493   5.807   1.093  13.986 -0.4429  0.0886  0.7735
 4334TIP3    H234494   5.816   0.944  13.959  0.3401  0.3599 -0.5428
 4335TIP3   OH234495   1.158   3.176   3.269 -0.3350 -0.2409 -0.0593
 4335TIP3    H134496   1.103   3.155   3.345 -0.5701 -0.2530 -0.2332
 4335TIP3    H234497   1.192   3.092   3.239  0.7286 -0.1205  0.7647
 4336TIP3   OH234498   0.494   3.746  13.214 -0.4031 -0.3632  0.0682
 4336TIP3    H134499   0.565   3.738  13.277  0.7692  0.8287 -1.0625
 4336TIP3    H234500   0.414   3.750  13.267  0.6397  1.7225  1.5352
 4337TIP3   OH234501   5.681   0.389   1.890 -0.4471  0.4369 -0.0489
 4337TIP3    H134502   5.753   0.375   1.951 -1.7785 -0.7984  1.2872
 4337TIP3    H234503   5.679   0.484   1.876  0.6274  0.6023  0.8962
 4338TIP3   OH234504   6.309   5.450   0.874  0.1451  0.2070 -0.4033
 4338TIP3    H134505   6.238   5.472   0.935 -0.8238 -0.8585 -1.1201
 4338TIP3    H234506   6.358   5.531   0.864 -0.0861  0.5701  1.2722
 4339TIP3   OH234507   0.104   5.190   2.704  0.0039  0.2991 -0.5529
 4339TIP3    H134508   0.107   5.125   2.773  1.4608  1.6777  0.7176
 4339TIP3    H234509   0.042   5.155   2.640  0.2489 -1.9809  0.4289
 4340TIP3   OH234510   5.317   5.940  16.632 -0.2651 -0.2113  0.2157
 4340TIP3    H134511   5.287   5.901  16.714  0.5905 -1.1554  0.0886
 4340TIP3    H234512   5.321   5.867  16.570 -0.2172  0.3668 -0.4770
 4341TIP3   OH234513   6.387   4.393  11.735 -0.0292  0.1741 -0.7966
 4341TIP3    H134514   6.348   4.469  11.778 -0.8022  0.3417 -1.7928
 4341TIP3    H234515   6.478   4.419  11.716  0.8320 -0.4641  2.1570
 4342TIP3   OH234516   4.741   5.051  10.762  0.2124 -0.3264  0.5022
 4342TIP3    H134517   4.691   5.096  10.830 -0.1294 -1.8982  1.3348
 4342TIP3    H234518   4.682   4.981  10.733  1.0551 -0.7698 -0.1444
 4343TIP3   OH234519   2.484   4.581   2.894 -0.9479  0.0313 -0.1028
 4343TIP3    H134520   2.540   4.504   2.890 -0.9936 -0.0366  0.4621
 4343TIP3    H234521   2.483   4.615   2.805  0.9746  0.7356  0.1187
 4344TIP3   OH234522   5.217   4.586  12.661  0.0110 -0.1038  0.0937
 4344TIP3    H134523   5.139   4.531  12.660  0.6822 -1.1070  1.3555
 4344TIP3    H234524   5.256   4.571  12.748  2.2864 -0.5821 -0.9720
 4345TIP3   OH234525   5.670   3.289   5.021  0.1343 -0.2155  0.1399
 4345TIP3    H134526   5.688   3.356   4.955  1.5658 -0.3024  0.4409
 4345TIP3    H234527   5.708   3.323   5.101  2.1434 -2.0129 -0.0072
 4346TIP3   OH234528   1.919   5.635   6.049  0.5477  0.2416 -0.1462
 4346TIP3    H134529   1.958   5.687   6.119 -0.5838 -1.6854  1.9883
 4346TIP3    H234530   1.993   5.588   6.011  0.9849  0.2073  0.7224
 4347TIP3   OH234531   4.413   0.705  13.825 -0.3098 -0.3247  0.3030
 4347TIP3    H134532   4.503   0.733  13.843 -0.6198 -0.0712  1.4472
 4347TIP3    H234533   4.358   0.774  13.861 -1.0174 -1.3851  1.2586
 4348TIP3   OH234534   5.455   0.666   5.122  0.0376 -0.1897  0.2682
 4348TIP3    H134535   5.423   0.721   5.193 -0.0928 -0.6701  0.5793
 4348TIP3    H234536   5.453   0.577   5.157  3.1262 -0.1086  0.8073
 4349TIP3   OH234537   5.064   3.698   5.468 -0.1613  0.1850  0.4442
 4349TIP3    H134538   5.070   3.723   5.376 -0.1787 -1.6772 -0.0993
 4349TIP3    H234539   4.976   3.661   5.477  0.6299 -1.7669  0.6025
 4350TIP3   OH234540   5.264   4.855  11.707 -0.0252 -0.3455  0.6560
 4350TIP3    H134541   5.334   4.841  11.644 -1.5953  0.9626 -1.4462
 4350TIP3    H234542   5.307   4.850  11.792  2.3805 -0.7744 -0.5367
 4351TIP3   OH234543   3.432   4.931  13.674  0.0175  0.4751 -0.1194
 4351TIP3    H134544   3.434   4.936  13.578  0.6330  0.3608 -0.1125
 4351TIP3    H234545   3.364   4.994  13.700 -0.2809  0.3705 -0.6364
 4352TIP3   OH234546   6.226   0.976   3.165 -0.0874 -0.7883 -0.3299
 4352TIP3    H134547   6.235   0.880   3.169 -1.6432 -0.8965  3.5176
 4352TIP3    H234548   6.283   1.008   3.235  0.5126  1.1563 -1.6672
 4353TIP3   OH234549   3.451   0.008   5.331 -0.0216 -0.1632 -0.2103
 4353TIP3    H134550   3.472   0.023   5.424 -1.1793  0.3140 -0.0132
 4353TIP3    H234551   3.523  -0.047   5.299 -0.6658 -2.0388  1.4763
 4354TIP3   OH234552   3.698   4.418   0.335 -0.1729  0.6716  0.3954
 4354TIP3    H134553   3.723   4.462   0.417  1.4249  0.8395 -0.1693
 4354TIP3    H234554   3.669   4.331   0.363 -0.7450  1.1306  1.2523
 4355TIP3   OH234555   1.549   1.313  15.212  0.1953 -0.1572  0.6718
 4355TIP3    H134556   1.557   1.267  15.129  0.0972 -0.8961  1.0671
 4355TIP3    H234557   1.550   1.244  15.278 -1.6329  0.2861  1.1894
 4356TIP3   OH234558   2.775   5.332   5.495 -0.4083  0.1938  0.3696
 4356TIP3    H134559   2.737   5.400   5.550  0.3374  1.3410 -0.5154
 4356TIP3    H234560   2.847   5.375   5.449  0.3936 -1.3150  0.1705
 4357TIP3   OH234561   6.126   5.413  11.398  0.6653  0.2264 -0.3161
 4357TIP3    H134562   6.097   5.346  11.337 -0.4065 -0.5076  0.9676
 4357TIP3    H234563   6.088   5.494  11.364 -1.6217 -0.4766  0.4496
 4358TIP3   OH234564   4.478   2.395   1.341  0.2333 -0.7066 -0.2083
 4358TIP3    H134565   4.493   2.348   1.423 -1.6521 -0.5031  0.2826
 4358TIP3    H234566   4.388   2.372   1.316  0.0962  0.8008 -1.1723
 4359TIP3   OH234567   1.153   6.723  11.312 -0.0299  0.0365 -0.1373
 4359TIP3    H134568   1.152   6.717  11.216  0.9284 -0.5059 -0.1180
 4359TIP3    H234569   1.060   6.729  11.336 -0.2261  1.6372 -1.1737
 4360TIP3   OH234570   1.653   0.705   4.541  0.4251  0.4853  0.1995
 4360TIP3    H134571   1.659   0.727   4.634  1.5188 -0.8159  0.4413
 4360TIP3    H234572   1.743   0.712   4.509  0.3333 -0.8566 -0.3578
 4361TIP3   OH234573   5.685   1.253   2.360  0.6693  0.8794 -0.1804
 4361TIP3    H134574   5.598   1.288   2.382  0.2031  0.7715 -1.8129
 4361TIP3    H234575   5.702   1.283   2.271  0.7644 -2.0117 -1.1852
 4362TIP3   OH234576   1.233   3.043  16.281 -0.3887 -0.1745 -0.5417
 4362TIP3    H134577   1.212   3.120  16.335 -0.5270  0.3376 -1.3116
 4362TIP3    H234578   1.284   3.079  16.209 -0.9347 -0.7328 -1.2050
 4363TIP3   OH234579   4.106   5.633  12.457 -0.0445  0.0999 -0.1368
 4363TIP3    H134580   4.168   5.647  12.528  0.8154 -1.4472 -0.5536
 4363TIP3    H234581   4.145   5.677  12.381  0.0948 -0.0952 -0.1776
 4364TIP3   OH234582   4.086   0.212  16.858 -0.4832 -0.0105 -0.0108
 4364TIP3    H134583   4.034   0.227  16.936  0.1706 -0.2406  0.4742
 4364TIP3    H234584   4.075   0.292  16.805  0.3842  0.8459  1.0686
 4365TIP3   OH234585   5.833   3.266  15.455 -0.3951 -0.4021 -0.1987
 4365TIP3    H134586   5.783   3.298  15.380 -0.3284  0.6966  0.2301
 4365TIP3    H234587   5.809   3.323  15.528  0.1710 -0.9462  0.4319
 4366TIP3   OH234588   6.009   4.543  14.669 -0.0418 -0.5841  0.7759
 4366TIP3    H134589   6.056   4.524  14.750 -0.5465 -0.7752  1.0289
 4366TIP3    H234590   6.070   4.596  14.618 -0.2260  0.7229  1.8597
 4367TIP3   OH234591   2.518   4.584   2.599  0.1698  0.3394  0.3773
 4367TIP3    H134592   2.443   4.636   2.570 -0.0487 -0.9140 -1.3130
 4367TIP3    H234593   2.554   4.546   2.519  1.0907 -1.1101  1.4614
 4368TIP3   OH234594   4.376   0.331   0.047  0.5350 -0.1605 -0.0155
 4368TIP3    H134595   4.439   0.397   0.017 -1.5620  3.8269  3.7663
 4368TIP3    H234596   4.368   0.346   0.141 -1.1390 -4.9980  0.7748
 4369TIP3   OH234597   4.890   2.672  15.802  0.2499 -0.1830  0.1878
 4369TIP3    H134598   4.947   2.686  15.726  0.0576 -1.8283 -0.2796
 4369TIP3    H234599   4.945   2.692  15.877  1.0298 -0.3969 -0.3145
 4370TIP3   OH234600   1.483   0.016  16.678  0.5510  0.3517 -0.2923
 4370TIP3    H134601   1.470   0.023  16.772 -0.2439  1.5897 -0.4809
 4370TIP3    H234602   1.436  -0.064  16.653  2.8854 -1.3928  0.7087
 4371TIP3   OH234603   0.228   6.678  12.066  0.2889  0.3461 -0.3495
 4371TIP3    H134604   0.158   6.730  12.106  0.8978  0.0955  1.0711
 4371TIP3    H234605   0.200   6.667  11.975 -1.2363  0.7247  0.0510
 4372TIP3   OH234606   5.096   3.303  11.982 -0.5424 -0.0814  0.5921
 4372TIP3    H134607   5.047   3.228  12.017  0.5398 -0.5583  1.1109
 4372TIP3    H234608   5.098   3.288  11.888 -1.3682 -0.0723  0.5711
 4373TIP3   OH234609   3.501   3.107  16.076 -0.2914  0.0632  0.4572
 4373TIP3    H134610   3.417   3.062  16.088 -0.6898  0.4059 -1.0177
 4373TIP3    H234611   3.484   3.172  16.008  1.2295  0.0058  0.0128
 4374TIP3   OH234612   3.338   6.189   6.515  0.4943 -0.5270  0.3532
 4374TIP3    H134613   3.389   6.251   6.462 -0.9213 -0.0557 -0.5057
 4374TIP3    H234614   3.250   6.228   6.518  0.1666 -1.3458  1.7481
 4375TIP3   OH234615   4.285   2.093  14.282 -0.2111  0.3697  0.0782
 4375TIP3    H134616   4.213   2.124  14.226  1.0161 -1.1798 -2.4310
 4375TIP3    H234617   4.246   2.023  14.334 -0.2873 -1.1728 -2.0156
 4376TIP3   OH234618   4.296   2.279   2.117  0.0839  0.0899 -0.0717
 4376TIP3    H134619   4.324   2.243   2.201  3.8331  1.5568 -0.5821
 4376TIP3    H234620   4.324   2.214   2.052  2.3251  1.5066 -0.5827
 4377TIP3   OH234621   5.742   0.317  17.025 -0.2985 -0.3461  0.3704
 4377TIP3    H134622   5.818   0.373  17.009  0.5464 -1.8950 -1.2696
 4377TIP3    H234623   5.691   0.363  17.092 -0.3010  2.9967 -1.8253
 4378TIP3   OH234624   0.708   6.182   0.672 -0.1562 -0.2989 -0.6051
 4378TIP3    H134625   0.682   6.089   0.673  0.1224 -0.3777 -0.5339
 4378TIP3    H234626   0.804   6.179   0.674 -0.1181 -0.0288 -1.8598
 4379TIP3   OH234627   4.057   4.260  13.771 -0.1493  0.0590 -0.1371
 4379TIP3    H134628   4.047   4.323  13.842 -0.3388 -0.0703 -0.0491
 4379TIP3    H234629   4.145   4.223  13.784 -0.2848 -0.1491  0.1791
 4380TIP3   OH234630   4.604   1.679   5.564 -0.1909 -0.2925 -0.0830
 4380TIP3    H134631   4.510   1.681   5.547 -0.1973  1.1964  0.0783
 4380TIP3    H234632   4.642   1.649   5.481 -0.7460 -0.0257 -0.4408
 4381TIP3   OH234633   2.664   1.994   0.332 -0.0186 -0.4932  0.6286
 4381TIP3    H134634   2.625   1.907   0.344 -0.0432 -0.9960 -2.6220
 4381TIP3    H234635   2.711   1.988   0.249 -1.2445  3.0274 -0.4012
 4382TIP3   OH234636   0.974   0.924  15.611  0.0131 -0.4714 -0.2421
 4382TIP3    H134637   1.031   0.992  15.646 -1.4559  0.5972  0.1082
 4382TIP3    H234638   0.958   0.866  15.685 -1.1580  0.4637  0.2381
 4383TIP3   OH234639   4.617   1.688  16.818  0.2000  0.4362  0.5022
 4383TIP3    H134640   4.638   1.653  16.904  0.2159 -1.2317 -0.1540
 4383TIP3    H234641   4.690   1.746  16.797  1.0103 -0.4177  0.9283
 4384TIP3   OH234642   6.365   1.211   3.960 -0.0665  1.0181  0.4998
 4384TIP3    H134643   6.374   1.149   4.032 -3.1911 -0.6229 -0.4477
 4384TIP3    H234644   6.431   1.184   3.897  0.6499  0.5947  1.4120
 4385TIP3   OH234645   5.744   1.699  11.891  0.3096  0.3478  0.5482
 4385TIP3    H134646   5.682   1.641  11.936 -0.0110  0.1136 -0.1872
 4385TIP3    H234647   5.805   1.726  11.959  1.5526 -2.2942  0.5468
 4386TIP3   OH234648   0.657   0.870  14.972 -0.3262 -0.1215 -0.2765
 4386TIP3    H134649   0.595   0.840  15.039 -1.4400  1.1996 -0.7007
 4386TIP3    H234650   0.685   0.790  14.928 -1.6695 -0.7381 -0.0347
 4387TIP3   OH234651   1.509   6.711   2.509  0.8985  0.0247  0.7223
 4387TIP3    H134652   1.459   6.733   2.431 -0.6138  2.5202  2.3143
 4387TIP3    H234653   1.487   6.620   2.527 -2.8119  0.9177  1.1136
 4388TIP3   OH234654   2.810   1.065   4.987 -0.3750  0.4733 -0.3503
 4388TIP3    H134655   2.779   1.030   4.904 -0.2451  0.6697 -0.4814
 4388TIP3    H234656   2.789   1.158   4.983 -1.5038  0.2533  0.3563
 4389TIP3   OH234657   5.223   2.762  11.395 -0.2578  0.3480 -0.0676
 4389TIP3    H134658   5.128   2.755  11.396 -0.3376  1.4220  0.7081
 4389TIP3    H234659   5.249   2.730  11.309 -1.4676  1.8232 -0.9877
 4390TIP3   OH234660   4.803   5.955   4.117 -0.8434  0.1767  0.1907
 4390TIP3    H134661   4.850   5.915   4.044 -0.9552  0.1639  0.1260
 4390TIP3    H234662   4.768   6.037   4.081 -3.5681 -1.3002 -0.6766
 4391TIP3   OH234663   2.576   6.444  15.622 -0.2538 -0.7472 -0.4668
 4391TIP3    H134664   2.508   6.472  15.684  1.3179 -0.6624  1.2706
 4391TIP3    H234665   2.658   6.475  15.661  0.9133 -1.9672 -1.8824
 4392TIP3   OH234666   3.548   0.775   6.097 -0.5931  0.1725  0.2358
 4392TIP3    H134667   3.472   0.827   6.125  0.8291  2.1384  0.5369
 4392TIP3    H234668   3.590   0.747   6.178 -0.4487 -0.0815  0.0737
 4393TIP3   OH234669   3.092   2.484  15.209 -0.3124  0.1863 -0.0986
 4393TIP3    H134670   3.018   2.469  15.267  0.5882  0.4728  1.1460
 4393TIP3    H234671   3.138   2.400  15.207  0.9855  0.8345  1.5245
 4394TIP3   OH234672   1.200   3.432   6.442  0.3743  0.0004 -0.1512
 4394TIP3    H134673   1.200   3.385   6.358  1.6028 -0.1250 -0.0940
 4394TIP3    H234674   1.263   3.383   6.496  0.2059  0.5721  0.5637
 4395TIP3   OH234675   4.694   3.985   2.172 -0.0831  0.1321  0.5354
 4395TIP3    H134676   4.618   3.954   2.123 -0.9341 -1.0871  2.5410
 4395TIP3    H234677   4.660   4.057   2.226 -0.0701 -0.9574  2.0581
 4396TIP3   OH234678   5.925   5.055  11.769  0.1128  0.2013 -0.1711
 4396TIP3    H134679   5.837   5.026  11.792  0.5604 -1.7053 -0.7904
 4396TIP3    H234680   5.916   5.149  11.755 -2.1467 -0.1902 -1.6916
 4397TIP3   OH234681   0.416   5.086   5.435  0.0180 -0.1410  0.3825
 4397TIP3    H134682   0.423   4.991   5.434 -4.2550 -0.5850  2.4116
 4397TIP3    H234683   0.373   5.108   5.352 -1.1677 -0.2093  0.9779
 4398TIP3   OH234684   3.652   2.675   6.527 -0.0365 -0.2009  0.2157
 4398TIP3    H134685   3.662   2.612   6.456  0.0473  0.1394 -0.0779
 4398TIP3    H234686   3.723   2.654   6.588 -0.6577 -1.0641  0.6353
 4399TIP3   OH234687   1.871   4.740   5.478  0.1930 -0.2454 -0.0129
 4399TIP3    H134688   1.936   4.777   5.538 -0.5602  1.1770 -0.0752
 4399TIP3    H234689   1.921   4.721   5.398  1.2805 -2.4706  1.1198
 4400TIP3   OH234690   3.566   6.435   2.816 -0.1961  0.1779 -0.4331
 4400TIP3    H134691   3.598   6.447   2.726  0.4000 -0.5468 -0.3188
 4400TIP3    H234692   3.645   6.436   2.870 -0.5168  0.1578  0.0421
 4401TIP3   OH234693   1.072   3.782  13.652 -0.3473 -0.1155  0.5792
 4401TIP3    H134694   1.084   3.876  13.661 -1.1337 -0.1401  2.0918
 4401TIP3    H234695   0.978   3.771  13.637  0.0828 -0.5106 -2.0947
 4402TIP3   OH234696   2.248   1.277   4.779  0.1097 -0.0805 -1.0068
 4402TIP3    H134697   2.316   1.343   4.785 -0.9807  1.2086 -2.2968
 4402TIP3    H234698   2.293   1.194   4.791  1.5125  0.8810  0.5769
 4403TIP3   OH234699   3.721   6.108   3.651 -0.4437  0.1092 -0.0062
 4403TIP3    H134700   3.721   6.014   3.636 -0.1181  0.3880 -1.8041
 4403TIP3    H234701   3.750   6.146   3.569  0.9442  1.7205  1.1957
 4404TIP3   OH234702   2.898   3.151  16.711 -0.1321  0.3655 -0.2883
 4404TIP3    H134703   2.957   3.224  16.692  0.1224  0.4143  0.6482
 4404TIP3    H234704   2.901   3.142  16.806 -0.1514 -0.8739 -0.3873
 4405TIP3   OH234705   6.645   2.001  12.076 -0.1399 -0.4675  0.0740
 4405TIP3    H134706   6.683   2.060  12.141 -1.4027 -0.9597  1.2709
 4405TIP3    H234707   6.618   2.058  12.004  1.4177  0.0575 -0.1123
 4406TIP3   OH234708   3.287   4.767   0.537 -0.4615  0.2031 -0.6921
 4406TIP3    H134709   3.364   4.804   0.494 -1.0380  1.6040 -0.5212
 4406TIP3    H234710   3.314   4.755   0.628 -1.0129  2.3934 -0.2172
 4407TIP3   OH234711   2.684   1.293  15.078  0.0585  0.3184  0.7176
 4407TIP3    H134712   2.725   1.289  14.991 -1.0975  1.3088  0.1258
 4407TIP3    H234713   2.699   1.383  15.108 -0.7663  0.3799  0.9503
 4408TIP3   OH234714   5.036   3.566   3.976  0.9133 -0.3258  0.0481
 4408TIP3    H134715   4.966   3.506   4.000  0.4375 -0.5325 -1.8349
 4408TIP3    H234716   5.008   3.651   4.012 -0.2884 -0.4143 -0.6764
 4409TIP3   OH234717   2.250   1.053   0.250 -0.0029 -0.3396 -0.4315
 4409TIP3    H134718   2.311   1.106   0.198 -0.8443  0.8846 -0.1896
 4409TIP3    H234719   2.216   1.114   0.316  0.0406 -1.5375  0.7093
 4410TIP3   OH234720   5.697   4.614   3.352  0.0898  0.2629  0.2415
 4410TIP3    H134721   5.643   4.591   3.276  0.5315  0.0761 -0.0210
 4410TIP3    H234722   5.653   4.572   3.426  0.7467 -1.2482 -0.1933
 4411TIP3   OH234723   0.605   1.784  12.728 -0.2817  0.2195  0.3789
 4411TIP3    H134724   0.542   1.715  12.749  1.4977 -1.2944  0.8813
 4411TIP3    H234725   0.612   1.783  12.633 -0.5100 -0.0694  0.3644
 4412TIP3   OH234726   4.697   5.586  16.467 -0.2036  0.3744  0.3340
 4412TIP3    H134727   4.748   5.512  16.501 -0.1999  0.2361  0.0341
 4412TIP3    H234728   4.610   5.550  16.452  0.0358  0.1867 -0.6742
 4413TIP3   OH234729   5.323   5.375   1.645 -0.2425 -0.1411 -0.0122
 4413TIP3    H134730   5.378   5.376   1.567  0.7911  1.8494  0.7160
 4413TIP3    H234731   5.261   5.446   1.631  0.3005  0.5870  1.2169
 4414TIP3   OH234732   0.780   3.980   3.495 -0.3117  0.1503  0.5541
 4414TIP3    H134733   0.685   3.983   3.507  0.0198  1.2501  3.1846
 4414TIP3    H234734   0.815   3.968   3.584  2.1096  2.3413 -0.0446
 4415TIP3   OH234735   1.104   2.273   1.952  0.1992 -0.0064  0.2756
 4415TIP3    H134736   1.026   2.231   1.915 -0.3674 -1.5564  3.0512
 4415TIP3    H234737   1.072   2.315   2.032  1.8715  1.0088  0.4363
 4416TIP3   OH234738   3.841   0.682   2.482  0.4673  0.0357  0.3784
 4416TIP3    H134739   3.919   0.711   2.434 -0.6290 -0.1505 -1.5622
 4416TIP3    H234740   3.785   0.759   2.486 -0.5165 -0.6004 -0.8574
 4417TIP3   OH234741   1.982   2.726  16.885  0.5712 -0.2024  0.4374
 4417TIP3    H134742   2.009   2.639  16.856 -0.1134 -1.2251  2.7017
 4417TIP3    H234743   1.913   2.752  16.824  0.6780 -1.3176 -0.1634
 4418TIP3   OH234744   0.610   5.882   2.723 -0.4414  0.0821 -0.1857
 4418TIP3    H134745   0.689   5.834   2.700 -0.5188 -0.1986  0.1337
 4418TIP3    H234746   0.553   5.817   2.765 -0.9779  0.2054 -0.7174
 4419TIP3   OH234747   5.157   1.052  15.963  0.5036  0.0287  0.0717
 4419TIP3    H134748   5.110   1.133  15.980  2.3400  1.1375 -0.0235
 4419TIP3    H234749   5.108   1.009  15.893 -1.6952 -0.0030  1.6015
 4420TIP3   OH234750   3.384   4.232   1.470  0.1281 -0.3601 -0.2552
 4420TIP3    H134751   3.467   4.245   1.423  0.2208 -3.4064 -1.0141
 4420TIP3    H234752   3.398   4.152   1.521 -1.0349  1.2381  2.6660
 4421TIP3   OH234753   0.208   3.488   0.503  0.2998  0.1853 -0.3777
 4421TIP3    H134754   0.293   3.533   0.509  0.2406  0.2237  0.2436
 4421TIP3    H234755   0.149   3.554   0.466 -0.2921  1.3621  2.5297
 4422TIP3   OH234756   2.768   3.176  11.865 -0.4031  0.1588 -0.1517
 4422TIP3    H134757   2.792   3.181  11.957  1.1161  1.1016 -0.5743
 4422TIP3    H234758   2.688   3.123  11.863  1.0911 -2.2550  1.4342
 4423TIP3   OH234759   1.429   2.348  13.238  0.8706  0.3557 -0.3936
 4423TIP3    H134760   1.392   2.277  13.186  1.2115 -0.7906  0.9338
 4423TIP3    H234761   1.356   2.380  13.291 -0.0227  2.8870 -2.9591
 4424TIP3   OH234762   5.779   5.149  11.516  0.4012 -0.0334  0.1877
 4424TIP3    H134763   5.844   5.083  11.538  0.6322 -0.0037 -0.4055
 4424TIP3    H234764   5.756   5.132  11.425  0.0460  0.3525  0.1991
 4425TIP3   OH234765   2.184   6.212   4.257  0.1296 -0.6798 -0.1201
 4425TIP3    H134766   2.255   6.188   4.317  0.4525  1.0389  0.2156
 4425TIP3    H234767   2.104   6.187   4.304  0.3811  0.6956  1.0981
 4426TIP3   OH234768   0.144   2.926   0.774 -0.5971 -0.5465  0.3961
 4426TIP3    H134769   0.163   3.015   0.745  0.2579 -1.4957 -2.0519
 4426TIP3    H234770   0.215   2.906   0.836 -0.5020  0.2828  0.5611
 4427TIP3   OH234771   4.715   2.075  14.880 -0.0817  0.1080  0.7337
 4427TIP3    H134772   4.737   2.057  14.971  0.3089  0.0384  0.6284
 4427TIP3    H234773   4.748   2.164  14.864  2.6715 -1.0125 -0.2091
 4428TIP3   OH234774   0.254   6.087   5.045 -0.1007  0.2981 -0.1900
 4428TIP3    H134775   0.162   6.076   5.020  0.1919  0.4491 -1.3921
 4428TIP3    H234776   0.258   6.175   5.083 -0.2793  0.6860 -1.0425
 4429TIP3   OH234777   6.725   2.425  14.135 -0.3788 -0.3003 -0.2459
 4429TIP3    H134778   6.643   2.410  14.087 -0.4782 -0.2345 -0.0954
 4429TIP3    H234779   6.793   2.388  14.078 -0.4888 -0.1515 -0.4753
 4430TIP3   OH234780   0.617   0.784   6.195  0.3266 -0.4353  0.2542
 4430TIP3    H134781   0.651   0.767   6.283 -0.6824 -1.4429  0.4525
 4430TIP3    H234782   0.645   0.874   6.176  1.4692 -0.5791  1.1675
 4431TIP3   OH234783   6.469   6.653   6.131  0.4386  0.6189 -0.3702
 4431TIP3    H134784   6.416   6.573   6.128  2.1321 -0.5711  0.2510
 4431TIP3    H234785   6.421   6.716   6.079 -2.0790 -0.1194  0.9598
 4432TIP3   OH234786   1.691   6.027   5.754 -0.4721 -0.4607 -0.2125
 4432TIP3    H134787   1.769   5.972   5.758  0.5848  1.1204  2.0235
 4432TIP3    H234788   1.700   6.077   5.673  0.9512 -0.1073  0.1591
 4433TIP3   OH234789   1.604   1.239   2.333  0.1123 -0.1169 -0.2581
 4433TIP3    H134790   1.696   1.241   2.306  0.2128 -1.5845 -0.0571
 4433TIP3    H234791   1.580   1.331   2.343  1.4984  0.2849 -0.5226
 4434TIP3   OH234792   6.400   3.186  15.000 -0.3495  0.4196  0.3081
 4434TIP3    H134793   6.314   3.214  14.968 -1.0657 -1.0916  0.8564
 4434TIP3    H234794   6.462   3.246  14.958 -1.7189  1.9534  0.4275
 4435TIP3   OH234795   6.096   0.282   5.806 -0.2136 -0.2559 -0.7413
 4435TIP3    H134796   6.083   0.316   5.894 -2.5143  3.8033 -2.5510
 4435TIP3    H234797   6.034   0.209   5.799 -1.6563  0.8480  0.2525
 4436TIP3   OH234798   4.593   0.717   2.138 -0.3955 -0.7278  0.9602
 4436TIP3    H134799   4.546   0.795   2.110 -0.7707 -0.7344  1.5539
 4436TIP3    H234800   4.525   0.650   2.146  0.0652 -1.3780 -0.4833
 4437TIP3   OH234801   0.197   6.022   0.074 -0.0187 -0.3090 -0.1222
 4437TIP3    H134802   0.112   6.058   0.048 -0.0348  0.1903  0.5810
 4437TIP3    H234803   0.260   6.062   0.014 -0.2892 -0.7146 -0.6723
 4438TIP3   OH234804   3.259   3.884  12.750 -0.9698  0.2457  0.1412
 4438TIP3    H134805   3.168   3.902  12.725 -1.4612  1.8594  2.9501
 4438TIP3    H234806   3.293   3.969  12.779  1.3788 -0.4097 -0.5927
 4439TIP3   OH234807   4.575   2.347  13.398 -0.2389 -0.6935 -0.3726
 4439TIP3    H134808   4.499   2.375  13.347  0.2626  1.1983 -0.1186
 4439TIP3    H234809   4.650   2.362  13.340  0.2012  0.1901  0.4030
 4440TIP3   OH234810   1.649   3.179   2.779 -0.5374 -0.2786  0.2966
 4440TIP3    H134811   1.706   3.252   2.803 -0.7327 -0.1448  0.3540
 4440TIP3    H234812   1.593   3.213   2.710 -0.6481 -0.3657  0.3431
 4441TIP3   OH234813   4.123   1.092  12.914 -0.5290  0.1947  0.8819
 4441TIP3    H134814   4.055   1.107  12.848 -2.2001 -0.6804  2.3315
 4441TIP3    H234815   4.108   1.160  12.980  0.8901  0.8400  0.5432
 4442TIP3   OH234816   3.970   0.412  11.728 -0.5768 -0.0819 -0.2541
 4442TIP3    H134817   3.983   0.491  11.676 -1.2325 -0.4285 -0.9590
 4442TIP3    H234818   3.880   0.419  11.760 -0.0372  0.3341  1.1995
 4443TIP3   OH234819   1.053   3.387   2.301  0.2591 -0.6636 -0.2060
 4443TIP3    H134820   1.038   3.363   2.392 -1.4375 -1.4356 -0.6596
 4443TIP3    H234821   1.018   3.476   2.293 -0.1741 -0.8344 -0.2417
 4444TIP3   OH234822   0.523   3.924   4.028 -0.4904  0.2339 -0.5762
 4444TIP3    H134823   0.542   4.017   4.041  0.7943 -0.0541 -0.3236
 4444TIP3    H234824   0.517   3.889   4.117 -1.6884  0.2081 -0.6613
 4445TIP3   OH234825   4.314   3.845  15.837 -0.8669  0.5842 -0.1371
 4445TIP3    H134826   4.319   3.785  15.763 -2.7082  0.0797  0.1250
 4445TIP3    H234827   4.247   3.808  15.894  1.7409 -0.0050  2.6950
 4446TIP3   OH234828   2.065   4.859  12.547 -0.2206  0.4101  0.1515
 4446TIP3    H134829   2.014   4.926  12.591 -0.3983 -0.5664  1.4676
 4446TIP3    H234830   2.102   4.806  12.618  0.9061 -0.1452 -0.8300
 4447TIP3   OH234831   0.706   3.968   4.463  0.1744 -0.3468 -0.1379
 4447TIP3    H134832   0.690   3.880   4.498 -0.6218 -0.7009 -1.3394
 4447TIP3    H234833   0.634   4.021   4.497 -0.9731 -0.8410 -1.6999
 4448TIP3   OH234834   1.860   4.983   1.157 -0.2021 -0.8391  0.0219
 4448TIP3    H134835   1.802   4.918   1.118  0.3945 -1.0337 -0.5426
 4448TIP3    H234836   1.847   5.062   1.104 -0.7894 -0.5387  0.5942
 4449TIP3   OH234837   6.294   6.410   6.182 -0.5889  0.0777  0.0070
 4449TIP3    H134838   6.265   6.438   6.269 -1.0705 -0.9040  0.1816
 4449TIP3    H234839   6.322   6.319   6.195 -1.2739 -0.2844 -0.9922
 4450TIP3   OH234840   4.367   4.312   4.940  0.0671  0.2931 -0.1444
 4450TIP3    H134841   4.445   4.367   4.930  0.9348 -0.8283  0.2016
 4450TIP3    H234842   4.399   4.223   4.921 -0.8967 -0.3175  1.0028
 4451TIP3   OH234843   2.377   3.199   2.101 -0.8081  0.3000  0.0617
 4451TIP3    H134844   2.422   3.282   2.086 -2.6729  1.0755 -1.4997
 4451TIP3    H234845   2.331   3.181   2.019 -1.2933 -1.7493  0.7412
 4452TIP3   OH234846   5.840   4.807  11.453 -0.0878 -0.2163  0.3346
 4452TIP3    H134847   5.749   4.793  11.478 -0.4578  0.3088 -0.6849
 4452TIP3    H234848   5.835   4.848  11.367  1.0983  0.6312  0.6566
 4453TIP3   OH234849   2.090   4.153   5.177  0.3437 -0.9249 -0.2158
 4453TIP3    H134850   2.144   4.080   5.146 -0.5132 -2.2573  1.3424
 4453TIP3    H234851   2.082   4.139   5.271 -1.1264  0.3258 -0.1293
 4454TIP3   OH234852   0.399   3.920   0.451  0.1754 -0.0258  0.8437
 4454TIP3    H134853   0.494   3.915   0.452  0.1767 -0.0105  0.7946
 4454TIP3    H234854   0.373   3.902   0.542  0.1087 -2.3009  0.4083
 4455TIP3   OH234855   6.174   3.675   5.887 -0.0745 -0.1103  0.0675
 4455TIP3    H134856   6.157   3.581   5.878 -1.1615  0.2821 -2.0781
 4455TIP3    H234857   6.100   3.708   5.937  0.4899 -0.4279  1.1430
 4456TIP3   OH234858   3.694   4.243   4.036  0.1362 -0.6044 -0.9242
 4456TIP3    H134859   3.642   4.261   4.114  0.2312 -0.0686 -0.9814
 4456TIP3    H234860   3.651   4.292   3.966  0.4416 -0.5366 -1.0657
 4457TIP3   OH234861   1.471   5.444   4.106 -0.3357 -0.0166  0.1135
 4457TIP3    H134862   1.460   5.361   4.153 -2.5206  0.8563  1.1966
 4457TIP3    H234863   1.382   5.474   4.088  0.4275  0.5661 -3.0857
 4458TIP3   OH234864   1.235   0.553  13.408 -0.0389  0.7361  0.0331
 4458TIP3    H134865   1.211   0.536  13.317 -0.1342  0.5857  0.0871
 4458TIP3    H234866   1.272   0.470  13.439 -0.4826  0.6364  0.2898
 4459TIP3   OH234867   3.101   6.326   6.519 -0.3744  0.2593 -0.2089
 4459TIP3    H134868   3.065   6.387   6.583 -0.5013 -0.0311 -0.0032
 4459TIP3    H234869   3.060   6.242   6.540  0.6054 -0.1301  0.1781
 4460TIP3   OH234870   2.837   2.575   5.298  0.7406 -0.3187  0.4831
 4460TIP3    H134871   2.764   2.539   5.349  0.1095 -2.2222 -1.6931
 4460TIP3    H234872   2.795   2.629   5.231  1.3947 -0.3434  0.0516
 4461TIP3   OH234873   0.709   4.649  16.527  0.0273  0.0760  0.6589
 4461TIP3    H134874   0.693   4.554  16.526  2.2066 -0.3408 -1.3365
 4461TIP3    H234875   0.741   4.667  16.615  1.4892 -1.4408  0.4738
 4462TIP3   OH234876   6.412   3.958   3.189  0.1428 -0.7292  0.7494
 4462TIP3    H134877   6.329   3.916   3.214 -0.7393  2.3836  3.3175
 4462TIP3    H234878   6.479   3.896   3.218 -1.1306 -0.4349  4.5722
 4463TIP3   OH234879   3.952   6.361   2.130  0.5253  0.2191 -0.2556
 4463TIP3    H134880   3.882   6.345   2.067 -1.3799  0.8052  1.6902
 4463TIP3    H234881   3.993   6.442   2.100  0.0056  0.1956 -1.0493
 4464TIP3   OH234882   6.663   2.311  14.572 -0.5186  0.1049 -0.0512
 4464TIP3    H134883   6.618   2.354  14.500  0.5841 -0.9316 -1.3773
 4464TIP3    H234884   6.744   2.360  14.583 -0.2782 -0.2753 -0.1128
 4465TIP3   OH234885   5.540   6.367   0.524  0.3585 -0.2794 -0.0823
 4465TIP3    H134886   5.630   6.401   0.521  0.8354 -1.5678 -1.4338
 4465TIP3    H234887   5.540   6.305   0.597  0.4575  0.0361  0.1849
 4466TIP3   OH234888   4.533   6.695   2.560 -0.3884  0.1457 -0.0512
 4466TIP3    H134889   4.582   6.613   2.565  0.8885  0.9927  1.8815
 4466TIP3    H234890   4.598   6.763   2.573 -1.7064  1.4061  0.1119
 4467TIP3   OH234891   6.564   6.645   5.765 -0.2265  0.4778 -0.0694
 4467TIP3    H134892   6.645   6.601   5.789  0.5413  1.3112 -1.0685
 4467TIP3    H234893   6.582   6.738   5.780 -0.9583  0.6806 -0.4153
 4468TIP3   OH234894   5.097   2.961   1.184 -0.4930 -0.2497  0.0182
 4468TIP3    H134895   5.130   2.990   1.100 -0.4151  0.4767  0.2991
 4468TIP3    H234896   5.159   2.995   1.248 -1.3297  0.4248  0.4795
 4469TIP3   OH234897   5.246   1.386   3.176  0.3218 -0.0526 -0.0236
 4469TIP3    H134898   5.323   1.442   3.185  0.0812  0.4080 -0.7357
 4469TIP3    H234899   5.179   1.430   3.230  0.3870 -0.1259  0.1163
 4470TIP3   OH234900   5.158   3.430   4.243 -0.2404 -0.4354 -0.0424
 4470TIP3    H134901   5.096   3.360   4.223 -1.5980  0.1130  2.1414
 4470TIP3    H234902   5.129   3.504   4.190 -1.1338 -0.3477  0.5678
 4471TIP3   OH234903   1.291   4.578   0.073  0.1204  0.0540 -0.1151
 4471TIP3    H134904   1.303   4.673   0.065 -1.0076  0.2534  0.3912
 4471TIP3    H234905   1.253   4.566   0.160 -0.4620 -0.7819 -0.4768
 4472TIP3   OH234906   0.281   3.877   3.930 -0.5931 -0.1287 -0.1112
 4472TIP3    H134907   0.368   3.916   3.925 -0.0987 -1.4437 -2.9701
 4472TIP3    H234908   0.265   3.864   4.023  2.0243  0.6559  0.4734
 4473TIP3   OH234909   5.029   1.935  12.733  0.0053  0.2205  0.1649
 4473TIP3    H134910   5.022   1.978  12.648  1.5801  0.1010 -0.0455
 4473TIP3    H234911   5.049   2.006  12.794 -2.7259  0.5353  0.7106
 4474TIP3   OH234912   6.290   0.266  16.118 -0.0644 -0.0552 -0.2465
 4474TIP3    H134913   6.307   0.227  16.204  1.2929 -1.1009 -0.9774
 4474TIP3    H234914   6.364   0.326  16.104 -1.2958  1.6033  0.1571
 4475TIP3   OH234915   5.291   4.948  16.905 -0.4136  0.0812  0.4650
 4475TIP3    H134916   5.377   4.948  16.862 -0.2023 -1.2784  0.8641
 4475TIP3    H234917   5.237   5.005  16.850  1.0541  1.8937  0.8566
 4476TIP3   OH234918   1.582   4.522  11.505  0.2936  0.0873  0.1209
 4476TIP3    H134919   1.562   4.474  11.585 -0.2783  2.1911  1.2999
 4476TIP3    H234920   1.677   4.527  11.502  0.3300 -0.4676  0.3908
 4477TIP3   OH234921   0.792   2.405  13.462  0.4889  0.4586 -0.0579
 4477TIP3    H134922   0.763   2.322  13.424 -0.7299  0.8522 -0.0291
 4477TIP3    H234923   0.884   2.391  13.483  0.0582 -1.2328  0.8362
 4478TIP3   OH234924   3.034   2.212   1.697 -0.1036  0.0505 -0.3751
 4478TIP3    H134925   2.975   2.280   1.666  0.4171  0.3602 -0.6865
 4478TIP3    H234926   2.980   2.159   1.756 -0.7649  0.1778 -0.8529
 4479TIP3   OH234927   5.806   2.117   0.596 -0.2403  0.2001  0.1605
 4479TIP3    H134928   5.745   2.184   0.565 -1.6044 -1.7805 -1.5732
 4479TIP3    H234929   5.752   2.038   0.606  1.7911 -1.2691 -0.1840
 4480TIP3   OH234930   6.607   4.774  12.546 -0.1077  0.6141 -0.1053
 4480TIP3    H134931   6.562   4.844  12.594 -1.2580 -0.7230  0.8246
 4480TIP3    H234932   6.691   4.765  12.590 -0.1435  1.0906  0.0654
 4481TIP3   OH234933   2.546   0.950   3.633 -0.1803 -0.4646 -0.0307
 4481TIP3    H134934   2.641   0.942   3.637 -0.1696 -0.5751 -0.4363
 4481TIP3    H234935   2.525   1.020   3.695  0.1792 -0.3199 -0.0694
 4482TIP3   OH234936   3.855   2.113  16.083 -0.7041 -0.1924  0.3728
 4482TIP3    H134937   3.828   2.041  16.026 -0.7385 -0.0663  0.2265
 4482TIP3    H234938   3.828   2.087  16.170  1.4041 -1.4375  0.6909
 4483TIP3   OH234939   4.504   1.560   1.950 -0.7780 -0.0190  0.0242
 4483TIP3    H134940   4.481   1.559   1.857 -0.9660  1.2247  0.0536
 4483TIP3    H234941   4.556   1.639   1.961 -1.1931  0.1108  1.0837
 4484TIP3   OH234942   5.157   6.808  11.203  0.1937  1.1114 -0.0686
 4484TIP3    H134943   5.121   6.747  11.267  0.2401  0.8046 -0.3338
 4484TIP3    H234944   5.238   6.840  11.244  0.7226  0.1938 -0.3683
 4485TIP3   OH234945   0.924   0.874  14.552  0.3140 -0.5727 -0.3830
 4485TIP3    H134946   1.016   0.901  14.556  0.5115 -1.4381  1.1412
 4485TIP3    H234947   0.925   0.782  14.579 -1.1532 -0.1997  0.9867
 4486TIP3   OH234948   2.782   4.825   0.238 -0.1279  0.5577 -0.2477
 4486TIP3    H134949   2.759   4.733   0.253 -1.1042  0.9177  0.5206
 4486TIP3    H234950   2.845   4.823   0.166  0.1615 -0.7445  0.0370
 4487TIP3   OH234951   1.309   3.825   3.020 -0.1621 -0.3805  0.1150
 4487TIP3    H134952   1.308   3.781   2.935 -3.2607  0.2093 -0.2054
 4487TIP3    H234953   1.272   3.760   3.080  0.5794 -0.2384  0.7231
 4488TIP3   OH234954   1.575   4.344   4.076  0.0429  0.1759  0.8464
 4488TIP3    H134955   1.591   4.380   3.989 -3.0524 -2.7132 -1.0176
 4488TIP3    H234956   1.650   4.287   4.093 -1.6267 -3.0537 -2.1203
 4489TIP3   OH234957   6.331   5.331   1.743  0.1561  0.2360  1.2115
 4489TIP3    H134958   6.391   5.341   1.817  0.8763 -1.1368  0.8307
 4489TIP3    H234959   6.273   5.259   1.769  1.0958 -0.9747  0.0077
 4490TIP3   OH234960   5.880   2.995  14.833 -0.0346 -0.4485  0.5000
 4490TIP3    H134961   5.909   2.924  14.775 -0.1290 -1.5207  1.7459
 4490TIP3    H234962   5.951   3.005  14.896 -0.9763 -0.9291  1.6519
 4491TIP3   OH234963   4.032   4.052  12.663  0.4564  0.8888 -0.0407
 4491TIP3    H134964   4.048   3.986  12.730 -1.7046  1.1096  0.7243
 4491TIP3    H234965   4.113   4.101  12.657  1.3584 -0.4560  0.9295
 4492TIP3   OH234966   4.752   4.957   2.360  0.1147 -0.3920  0.0157
 4492TIP3    H134967   4.847   4.969   2.360 -0.0668  1.2097  0.8233
 4492TIP3    H234968   4.740   4.863   2.375  1.5688 -0.5751  0.1333
 4493TIP3   OH234969   4.477   6.773   5.700  0.1266 -0.2409  0.2962
 4493TIP3    H134970   4.462   6.703   5.764 -1.2024 -0.8587 -0.6737
 4493TIP3    H234971   4.414   6.841   5.724  1.5836  0.7610  1.3883
 4494TIP3   OH234972   0.044   5.183   5.708  0.1226 -0.0729 -0.0434
 4494TIP3    H134973   0.098   5.111   5.675  0.3267 -0.1384  0.4199
 4494TIP3    H234974   0.006   5.149   5.789  0.8885  0.6195  0.6235
 4495TIP3   OH234975   2.274   3.474   1.934 -0.0980  0.0072  0.3075
 4495TIP3    H134976   2.352   3.485   1.988  0.4870 -0.0063 -0.5336
 4495TIP3    H234977   2.205   3.450   1.996  0.6845 -0.4920  0.9853
 4496TIP3   OH234978   3.520   0.578  16.639  0.0094 -0.5695  0.1774
 4496TIP3    H134979   3.532   0.485  16.622 -0.9350 -0.6673  0.0370
 4496TIP3    H234980   3.491   0.582  16.730 -0.5332 -0.4591  0.0008
 4497TIP3   OH234981   6.383   1.873  11.230 -0.0264  0.3423  0.5780
 4497TIP3    H134982   6.468   1.913  11.213  0.0629  0.1898  0.6645
 4497TIP3    H234983   6.400   1.779  11.233 -0.4753  0.1974 -1.0117
 4498TIP3   OH234984   1.542   1.857  12.815 -0.2728  0.1725  0.8538
 4498TIP3    H134985   1.499   1.905  12.744  0.4284 -0.1537  0.2052
 4498TIP3    H234986   1.552   1.768  12.781 -1.2766 -0.3622  1.9247
 4499TIP3   OH234987   1.674   0.916  15.110 -0.0852  0.1227 -0.0358
 4499TIP3    H134988   1.659   0.918  15.016 -0.4661 -0.1329  0.0184
 4499TIP3    H234989   1.747   0.855  15.121  0.3403  0.6021 -0.2155
 4500TIP3   OH234990   0.699   2.747   6.353 -0.1297  0.4488  0.1023
 4500TIP3    H134991   0.789   2.769   6.329  0.8226  0.4727  3.4392
 4500TIP3    H234992   0.647   2.778   6.280  2.5933  0.0501 -2.1057
 4501TIP3   OH234993   5.061   6.545  16.734 -0.0892  0.3739  0.4142
 4501TIP3    H134994   4.980   6.595  16.722  0.4858  1.0025 -0.9692
 4501TIP3    H234995   5.036   6.454  16.717 -0.3410  0.6635 -0.8266
 4502TIP3   OH234996   6.138   1.258   5.829 -0.2112 -0.1519  0.6204
 4502TIP3    H134997   6.226   1.295   5.838  0.3974 -1.4364  0.1360
 4502TIP3    H234998   6.112   1.237   5.918  0.4901 -0.8964  0.6621
 4503TIP3   OH234999   5.889   0.697   1.807 -0.1826 -0.0179 -0.2319
 4503TIP3    H135000   5.891   0.675   1.900 -1.1584  0.3691 -0.1010
 4503TIP3    H235001   5.874   0.792   1.805 -1.2678 -0.1887 -0.7784
 4504TIP3   OH235002   1.220   3.917   0.962  0.3689  0.5266 -0.2305
 4504TIP3    H135003   1.243   4.010   0.964  0.4057  0.5078  0.2363
 4504TIP3    H235004   1.280   3.876   1.023  0.0249  0.2686 -0.0661
 4505TIP3   OH235005   0.349   1.945   2.513 -0.0681  0.3750  0.1345
 4505TIP3    H135006   0.391   2.028   2.536  0.6316  0.0542  0.0429
 4505TIP3    H235007   0.402   1.910   2.442 -0.5566  0.0095 -0.0543
 4506TIP3   OH235008   5.272   3.552  15.418  0.4090 -0.0451 -0.2916
 4506TIP3    H135009   5.274   3.456  15.422  0.9359 -0.2343 -3.3180
 4506TIP3    H235010   5.180   3.574  15.408  0.2037 -0.1625  1.2275
 4507TIP3   OH235011   1.460   0.469   5.667 -0.3475  0.0104  0.7826
 4507TIP3    H135012   1.470   0.386   5.620 -0.4241 -0.3881  1.4602
 4507TIP3    H235013   1.373   0.501   5.642 -1.5343 -1.5608  2.7681
 4508TIP3   OH235014   1.163   4.030  16.508  0.2268  0.0022  0.3632
 4508TIP3    H135015   1.235   4.086  16.480  0.5744  0.0647  1.3548
 4508TIP3    H235016   1.140   4.062  16.595  0.6857 -1.6407  1.1022
 4509TIP3   OH235017   6.778   2.422   2.137  0.4391  0.1663 -0.2352
 4509TIP3    H135018   6.774   2.420   2.041  1.3310  0.7148 -0.2823
 4509TIP3    H235019   6.717   2.353   2.164  0.0704  0.1036 -1.1917
 4510TIP3   OH235020   5.907   0.079   2.001  0.2441  0.2121  0.2246
 4510TIP3    H135021   5.906   0.107   2.092 -0.1709 -0.9730  0.5935
 4510TIP3    H235022   5.985   0.121   1.964  0.7341  0.2461  1.2739
 4511TIP3   OH235023   3.857   2.445   1.631 -0.4717 -0.1959 -0.3994
 4511TIP3    H135024   3.801   2.498   1.574 -1.0117 -0.8611 -0.4967
 4511TIP3    H235025   3.865   2.362   1.585 -1.6169 -1.0413  0.8853
 4512TIP3   OH235026   3.517   3.095   0.358  0.0146 -0.1350  0.0017
 4512TIP3    H135027   3.531   3.026   0.423  1.0264  0.7747  0.7720
 4512TIP3    H235028   3.424   3.115   0.364 -0.3150 -1.5708 -0.3636
 4513TIP3   OH235029   0.846   4.978   5.493  0.2315  0.0168 -0.0163
 4513TIP3    H135030   0.903   4.987   5.570 -1.1740 -0.9191  1.1750
 4513TIP3    H235031   0.861   4.889   5.462  1.4726  0.6928 -1.4068
 4514TIP3   OH235032   6.032   5.135   4.720  0.3469 -0.4157 -0.1032
 4514TIP3    H135033   6.069   5.067   4.663 -1.2404 -1.1626 -0.2661
 4514TIP3    H235034   5.942   5.106   4.738  0.5115  0.2706  2.0302
 4515TIP3   OH235035   6.256   4.582   1.222 -0.1076  0.1628  0.3940
 4515TIP3    H135036   6.348   4.559   1.237 -0.3729 -0.6886  0.8013
 4515TIP3    H235037   6.250   4.595   1.128  0.3766 -0.0419  0.3293
 4516TIP3   OH235038   2.167   2.170  13.906  0.3595  0.0193 -0.7064
 4516TIP3    H135039   2.169   2.266  13.902  1.2652 -0.1040 -3.7795
 4516TIP3    H235040   2.220   2.149  13.983  1.6639  1.9109 -1.0462
 4517TIP3   OH235041   0.134   2.694  13.911  0.3411 -0.4270  0.7198
 4517TIP3    H135042   0.148   2.775  13.959  0.9984  0.6916 -1.2787
 4517TIP3    H235043   0.210   2.640  13.932  2.1864  1.2460 -1.3808
 4518TIP3   OH235044   0.522   4.426   5.200 -0.0731  0.0337 -0.4150
 4518TIP3    H135045   0.591   4.381   5.152 -0.2174 -0.1264 -0.4756
 4518TIP3    H235046   0.472   4.473   5.134 -0.3746 -0.3241 -0.4467
 4519TIP3   OH235047   2.673   0.079   5.149  0.7049 -0.3928 -0.0426
 4519TIP3    H135048   2.690   0.020   5.222  2.4336 -1.3065 -1.1281
 4519TIP3    H235049   2.646   0.021   5.077  1.2065  0.2419 -0.7540
 4520TIP3   OH235050   5.182   3.310   5.899 -0.1575 -0.2222  0.0511
 4520TIP3    H135051   5.173   3.248   5.826 -1.7067 -0.0936  0.1158
 4520TIP3    H235052   5.233   3.263   5.964  2.1577  0.0296 -1.5190
 4521TIP3   OH235053   5.956   1.546   0.718 -0.0819  0.1725 -0.3646
 4521TIP3    H135054   5.971   1.627   0.670  0.4770  0.9010  1.0102
 4521TIP3    H235055   6.042   1.505   0.723  0.0140  0.5101  0.7440
 4522TIP3   OH235056   0.447   4.348  12.535 -0.2974 -0.1353  0.0269
 4522TIP3    H135057   0.519   4.354  12.472  0.1718  0.1833  0.5955
 4522TIP3    H235058   0.481   4.292  12.605 -0.3246  0.6561  0.6728
 4523TIP3   OH235059   3.643   6.084  15.786  0.0543  0.3130 -0.1304
 4523TIP3    H135060   3.552   6.074  15.813  0.1603  0.1062  0.1510
 4523TIP3    H235061   3.674   6.163  15.831  0.4952 -0.5294  1.0742
 4524TIP3   OH235062   5.220   2.828  14.335 -0.0688 -0.0455  0.6290
 4524TIP3    H135063   5.277   2.806  14.262 -0.0353  0.5759  0.4599
 4524TIP3    H235064   5.132   2.803  14.305 -0.2451  1.4636 -0.1738
 4525TIP3   OH235065   4.105   2.637  15.679  0.0510 -0.9008  0.0186
 4525TIP3    H135066   4.110   2.725  15.641 -0.3665 -1.1709 -0.6778
 4525TIP3    H235067   4.148   2.581  15.615  0.4580 -1.1839  0.5391
 4526TIP3   OH235068   4.465   1.733  11.352  0.0430 -0.2029 -0.4111
 4526TIP3    H135069   4.535   1.701  11.409 -0.9046  0.1076  0.9656
 4526TIP3    H235070   4.477   1.686  11.270 -0.5993 -3.2426  1.1633
 4527TIP3   OH235071   6.468   0.641  12.903  0.6660  0.0609  0.4618
 4527TIP3    H135072   6.394   0.701  12.903  0.8808  0.3371 -1.4073
 4527TIP3    H235073   6.454   0.587  12.981 -0.7423  1.0240  0.9034
 4528TIP3   OH235074   4.997   4.247  11.354 -0.1765  0.1688  0.1851
 4528TIP3    H135075   4.940   4.179  11.389  0.4150 -1.1760 -1.3996
 4528TIP3    H235076   5.036   4.287  11.431 -1.1819 -0.7085  1.1740
 4529TIP3   OH235077   4.419   0.140   3.918  0.3451  0.3117 -0.3055
 4529TIP3    H135078   4.365   0.074   3.875  1.2201 -0.3198 -0.4293
 4529TIP3    H235079   4.472   0.177   3.847 -0.1246  1.1443 -0.2374
 4530TIP3   OH235080   0.154   2.620  15.713  0.2217  0.2202 -0.0819
 4530TIP3    H135081   0.086   2.574  15.663 -0.7241  0.2497  1.1627
 4530TIP3    H235082   0.173   2.698  15.660 -0.2416 -0.1242 -0.7701
 4531TIP3   OH235083   5.224   6.272  17.193  0.5309  0.2676 -0.2164
 4531TIP3    H135084   5.216   6.307  17.104 -0.8955 -1.5464 -0.8506
 4531TIP3    H235085   5.170   6.329  17.247 -0.7800 -0.1822 -1.0142
 4532TIP3   OH235086   2.114   3.607   5.818  0.1115 -0.0179 -0.4300
 4532TIP3    H135087   2.067   3.597   5.735  0.3523  0.8460 -0.6754
 4532TIP3    H235088   2.205   3.592   5.795  0.3114  1.3551 -0.5405
 4533TIP3   OH235089   3.641   6.356  11.468 -0.2931 -0.3812 -0.3407
 4533TIP3    H135090   3.648   6.376  11.561 -0.3174 -0.6281 -0.2861
 4533TIP3    H235091   3.725   6.384  11.431  0.4272 -1.9499  0.0591
 4534TIP3   OH235092   2.786   0.023  15.544  0.0062 -0.6017 -0.3688
 4534TIP3    H135093   2.789   0.118  15.556  1.7189 -0.9051  1.9282
 4534TIP3    H235094   2.708  -0.005  15.592  0.8156 -0.5780  1.0096
 4535TIP3   OH235095   6.279   0.631   0.074 -0.7065  0.6123 -0.0870
 4535TIP3    H135096   6.334   0.699   0.112 -0.7561 -0.6928  2.4265
 4535TIP3    H235097   6.309   0.624  -0.017 -0.1047  3.3298 -0.1284
 4536TIP3   OH235098   0.633   2.312  12.525 -0.0445  0.2464  0.1217
 4536TIP3    H135099   0.676   2.299  12.609 -0.9378 -1.4960  0.3264
 4536TIP3    H235100   0.553   2.361  12.546 -0.0346  0.2157  0.2304
 4537TIP3   OH235101   3.296   3.125  12.054  0.6713  1.0246  0.3046
 4537TIP3    H135102   3.381   3.145  12.093  0.6319 -0.1748  1.0345
 4537TIP3    H235103   3.268   3.044  12.097 -1.4103  2.0685  0.9643
 4538TIP3   OH235104   1.960   1.825   2.865 -0.1537 -0.3660 -0.2147
 4538TIP3    H135105   1.931   1.735   2.847 -0.7538 -0.2905  0.3521
 4538TIP3    H235106   1.941   1.873   2.785  0.1668 -0.7442 -0.5179
 4539TIP3   OH235107   3.322   1.363  14.808 -0.4261 -0.2209 -0.0765
 4539TIP3    H135108   3.386   1.293  14.796  1.6494  1.6472 -0.2379
 4539TIP3    H235109   3.303   1.395  14.720 -0.0694  0.5232  0.1080
 4540TIP3   OH235110   5.579   3.957  12.898  0.4025  0.1767  0.0298
 4540TIP3    H135111   5.615   3.935  12.984  0.3289  0.1296  0.0495
 4540TIP3    H235112   5.560   4.050  12.903 -0.0406  0.0767  0.2252
 4541TIP3   OH235113   2.340   4.346   4.345  0.1577  0.4119  0.2224
 4541TIP3    H135114   2.258   4.380   4.381 -0.4375  0.5005 -1.1840
 4541TIP3    H235115   2.313   4.283   4.278  1.2123  0.8467 -0.6384
 4542TIP3   OH235116   0.258   1.435  12.480  0.0648  0.7740 -1.0338
 4542TIP3    H135117   0.202   1.490  12.535 -0.4138  1.3279 -2.0677
 4542TIP3    H235118   0.346   1.446  12.516 -0.2562  1.0800 -0.3388
 4543TIP3   OH235119   5.855   5.072  15.959  0.0908 -0.2450  0.8721
 4543TIP3    H135120   5.791   5.115  15.902  1.0008 -1.0092 -0.7507
 4543TIP3    H235121   5.821   4.983  15.971  1.9883 -1.4152 -1.9369
 4544TIP3   OH235122   2.039   4.381   2.386 -0.0526  0.2988 -0.2743
 4544TIP3    H135123   1.971   4.347   2.444  0.9085 -0.7179  0.2800
 4544TIP3    H235124   2.072   4.460   2.431 -1.0573  0.9619 -0.6886
 4545TIP3   OH235125   0.596   5.196   5.067  0.6482  0.0815  0.1797
 4545TIP3    H135126   0.556   5.272   5.108  0.9280  0.9064 -1.0452
 4545TIP3    H235127   0.643   5.152   5.138 -1.0899 -0.0283  1.2906
 4546TIP3   OH235128   4.888   3.101   4.835  0.2401  0.0588 -0.3828
 4546TIP3    H135129   4.885   3.089   4.740  0.5833 -0.1745 -0.3668
 4546TIP3    H235130   4.797   3.100   4.863  0.2167 -2.6083 -0.3906
 4547TIP3   OH235131   2.394   6.344  13.934 -0.0593  0.0316  0.2803
 4547TIP3    H135132   2.372   6.431  13.901  1.4624 -0.2491 -1.5320
 4547TIP3    H235133   2.375   6.284  13.862  1.0208 -0.8880  0.7287
 4548TIP3   OH235134   0.369   4.797   5.585 -0.2402  0.3194 -0.0525
 4548TIP3    H135135   0.349   4.703   5.590  0.0512  0.1822 -1.2793
 4548TIP3    H235136   0.456   4.805   5.625  1.4432 -0.5345 -3.3607
 4549TIP3   OH235137   3.692   3.176  14.142 -0.0958 -0.1181 -0.1913
 4549TIP3    H135138   3.724   3.191  14.053  1.5250 -0.2228  0.3508
 4549TIP3    H235139   3.645   3.093  14.137  0.8957 -0.6588 -0.7288
 4550TIP3   OH235140   3.588   6.569   1.709  0.0060 -0.3590  0.0821
 4550TIP3    H135141   3.543   6.519   1.641  0.1894 -1.6646  0.8893
 4550TIP3    H235142   3.665   6.516   1.731  0.3150  0.3794  0.8127
 4551TIP3   OH235143   0.269   2.211   3.443  0.1098 -0.0805  0.4757
 4551TIP3    H135144   0.302   2.240   3.358  0.7338 -1.0126  0.3899
 4551TIP3    H235145   0.256   2.292   3.493  0.3742  0.4310 -0.2785
 4552TIP3   OH235146   6.332   2.155  11.510  0.4323 -0.2974  0.1832
 4552TIP3    H135147   6.297   2.192  11.429  2.1327 -0.6247 -0.7030
 4552TIP3    H235148   6.396   2.219  11.540 -0.7720  0.2197  1.7277
 4553TIP3   OH235149   0.112   5.220   1.472  0.0355 -0.0323 -0.0320
 4553TIP3    H135150   0.081   5.181   1.391 -0.9730  0.8340 -0.0672
 4553TIP3    H235151   0.034   5.256   1.514  0.6043 -0.1061  1.1239
 4554TIP3   OH235152   4.819   3.810   2.582 -0.1466  0.0987  0.6355
 4554TIP3    H135153   4.820   3.791   2.676 -1.1931  1.0461  0.8579
 4554TIP3    H235154   4.784   3.731   2.541  3.0090 -1.4101  0.7355
 4555TIP3   OH235155   1.118   2.398  16.942 -0.0202 -0.0891  0.2421
 4555TIP3    H135156   1.107   2.465  17.010 -0.7470  0.6380 -0.5930
 4555TIP3    H235157   1.068   2.322  16.975 -1.1414  0.5743  0.1064
 4556TIP3   OH235158   5.806   1.137   5.838 -0.0534  0.4990  0.5804
 4556TIP3    H135159   5.879   1.174   5.887  0.3589 -0.9567  1.0892
 4556TIP3    H235160   5.842   1.059   5.795 -0.8061  0.8683 -0.7666
 4557TIP3   OH235161   2.314   4.323   0.448  0.1501 -0.0870 -0.0500
 4557TIP3    H135162   2.378   4.257   0.420  0.6403 -0.1412  1.1802
 4557TIP3    H235163   2.259   4.277   0.512  0.1360  0.5246  0.3820
 4558TIP3   OH235164   6.596   0.149   3.750  0.1479  0.1309  0.1786
 4558TIP3    H135165   6.666   0.174   3.691 -1.0472 -1.4558 -2.0145
 4558TIP3    H235166   6.515   0.169   3.702 -0.8670 -0.3386  1.6277
 4559TIP3   OH235167   3.761   6.701   3.964 -0.2189  0.2104 -0.1726
 4559TIP3    H135168   3.773   6.636   3.895  0.6395  0.3858 -0.1915
 4559TIP3    H235169   3.721   6.651   4.036  1.8989 -0.7310  0.4040
 4560TIP3   OH235170   5.325   5.008  13.708  0.0933 -0.4065 -0.2214
 4560TIP3    H135171   5.320   4.950  13.785 -2.0581 -1.4485 -1.1078
 4560TIP3    H235172   5.329   4.949  13.633 -1.5795  0.5525 -1.1147
 4561TIP3   OH235173   4.354   0.038  15.089  0.3915  0.2635  0.3280
 4561TIP3    H135174   4.276   0.018  15.140 -0.0595  1.6156  0.2102
 4561TIP3    H235175   4.361  -0.033  15.025 -1.0250  0.3855  0.0285
 4562TIP3   OH235176   0.148   3.352  13.450  0.1424  0.3379 -0.2490
 4562TIP3    H135177   0.114   3.333  13.363 -1.2365 -1.0248  0.5774
 4562TIP3    H235178   0.071   3.366  13.505  0.9166 -1.2545  1.3035
 4563TIP3   OH235179   4.553   3.109  12.882  0.4687  0.2025 -0.0760
 4563TIP3    H135180   4.614   3.125  12.810  1.5202 -2.5252  0.1451
 4563TIP3    H235181   4.604   3.058  12.945 -0.9704  1.0222  1.7991
 4564TIP3   OH235182   2.222   3.618   1.704  0.2573  0.0982  0.2178
 4564TIP3    H135183   2.234   3.558   1.778 -1.0815 -0.8022 -0.2707
 4564TIP3    H235184   2.310   3.649   1.684  0.7781 -0.5409  1.4514
 4565TIP3   OH235185   0.437   3.224   3.671  0.2253  0.1781  0.2571
 4565TIP3    H135186   0.445   3.216   3.766  1.6433 -1.2751  0.0332
 4565TIP3    H235187   0.342   3.230   3.656 -0.2015 -2.6331  1.5390
 4566TIP3   OH235188   0.579   4.982  13.669  0.0520 -0.7593 -0.1310
 4566TIP3    H135189   0.571   5.027  13.584 -2.4794  0.3460  0.6672
 4566TIP3    H235190   0.491   4.953  13.690  0.5361 -0.5120  2.4139
 4567TIP3   OH235191   5.761   1.412  15.027 -0.0986  0.2327 -0.1521
 4567TIP3    H135192   5.794   1.324  15.008 -0.4597 -0.0480  0.4867
 4567TIP3    H235193   5.682   1.420  14.974 -0.8980 -0.4076  0.9114
 4568TIP3   OH235194   0.857   4.693  15.172 -0.0896  0.0390 -0.1196
 4568TIP3    H135195   0.782   4.712  15.229  1.1863  0.4436  1.4569
 4568TIP3    H235196   0.882   4.778  15.135  0.1306  0.0423  0.0336
 4569TIP3   OH235197   5.184   5.910  14.200  0.1312 -0.3657 -0.0924
 4569TIP3    H135198   5.098   5.906  14.160 -0.4618 -0.9803  1.2137
 4569TIP3    H235199   5.222   5.991  14.167 -0.9070 -0.1398 -0.7518
 4570TIP3   OH235200   4.753   3.943   4.077  0.0353 -0.1996  0.5017
 4570TIP3    H135201   4.796   3.873   4.028  0.6407  1.7278 -1.7919
 4570TIP3    H235202   4.670   3.957   4.031  0.8034  1.9179 -0.3218
 4571TIP3   OH235203   0.264   0.014  11.337  0.4633  0.1250  0.4531
 4571TIP3    H135204   0.337   0.057  11.381  0.6816  1.2101 -0.9373
 4571TIP3    H235205   0.207  -0.015  11.408  1.3916  0.7990  1.4900
 4572TIP3   OH235206   0.867   1.324  13.399  0.0427  0.0660 -0.2654
 4572TIP3    H135207   0.845   1.233  13.377 -1.0584 -0.1415  1.5751
 4572TIP3    H235208   0.786   1.372  13.383  0.6069  0.7207 -1.1618
 4573TIP3   OH235209   6.532   4.209   3.158  0.1606  0.1201  0.3779
 4573TIP3    H135210   6.451   4.158   3.166  0.3786 -0.0550  1.5445
 4573TIP3    H235211   6.590   4.153   3.105  0.1419 -0.5295  1.0336
 4574TIP3   OH235212   2.894   0.919   0.958  0.0108 -0.3575 -0.6128
 4574TIP3    H135213   2.933   1.001   0.990 -2.1815  1.0480 -1.3620
 4574TIP3    H235214   2.946   0.896   0.881  0.2356  0.7354 -0.7981
 4575TIP3   OH235215   6.704   5.083   1.366 -0.0094  0.2871 -0.4736
 4575TIP3    H135216   6.732   5.098   1.275  1.3858 -0.4468 -0.1805
 4575TIP3    H235217   6.642   5.010   1.360  1.0828 -0.6367 -0.6945
 4576TIP3   OH235218   3.672   0.962   5.865  0.3308 -0.5395 -0.3390
 4576TIP3    H135219   3.610   0.973   5.792  1.6243 -1.6396 -1.6493
 4576TIP3    H235220   3.624   0.992   5.942 -1.1764  0.3834 -1.6007
 4577TIP3   OH235221   4.547   3.725  12.645 -0.0715  0.3035 -0.5026
 4577TIP3    H135222   4.599   3.678  12.580 -0.6968 -1.8089  0.4581
 4577TIP3    H235223   4.457   3.696  12.630 -0.3586  0.5774  0.6333
 4578TIP3   OH235224   3.113   4.422   4.834  0.5726  0.5186  0.2190
 4578TIP3    H135225   3.082   4.334   4.857 -0.6397  1.3797  2.1169
 4578TIP3    H235226   3.207   4.419   4.847  0.4173 -0.2463  1.2260
 4579TIP3   OH235227   2.359   1.117   1.691  0.0483 -0.3521  0.1345
 4579TIP3    H135228   2.323   1.141   1.776 -1.2810  1.6097 -0.9532
 4579TIP3    H235229   2.289   1.066   1.649 -0.5936  1.4710 -1.0560
 4580TIP3   OH235230   0.033   3.276  14.039  0.1456 -0.3129 -0.7390
 4580TIP3    H135231   0.088   3.200  14.020  1.4081  0.1416  0.9929
 4580TIP3    H235232   0.009   3.266  14.131 -1.6588  0.1461 -1.1478
 4581TIP3   OH235233   3.857   6.373  11.162  0.0164 -0.0364 -0.0397
 4581TIP3    H135234   3.811   6.302  11.206  2.4702 -1.3191  0.5722
 4581TIP3    H235235   3.867   6.342  11.072 -0.0401  0.0952 -0.0900
 4582TIP3   OH235236   2.137   6.433  12.787  0.1765  0.5081 -0.0128
 4582TIP3    H135237   2.061   6.445  12.844  0.4920 -0.9554  0.7275
 4582TIP3    H235238   2.100   6.432  12.698 -0.7766 -0.9804  0.3794
 4583TIP3   OH235239   6.173   5.039   5.990  0.1392  0.8089  0.1716
 4583TIP3    H135240   6.110   5.013   5.922  0.6016 -0.5446  0.2515
 4583TIP3    H235241   6.135   5.006   6.071  1.4647 -1.0071  0.0927
 4584TIP3   OH235242   5.619   5.215   4.674  0.5280  0.2558 -0.5910
 4584TIP3    H135243   5.552   5.283   4.684  1.2093  0.7658  0.6316
 4584TIP3    H235244   5.692   5.259   4.631  1.4805  0.6757  1.3791
 4585TIP3   OH235245   6.722   1.860  17.104 -0.4549 -0.0329  0.0604
 4585TIP3    H135246   6.804   1.892  17.142 -0.9783  1.3960 -0.0059
 4585TIP3    H235247   6.704   1.919  17.031  0.0924 -2.2549 -1.9467
 4586TIP3   OH235248   3.326   0.284  16.924  0.8427  0.2107  0.5305
 4586TIP3    H135249   3.360   0.309  16.838  1.3447 -0.8291  0.4239
 4586TIP3    H235250   3.318   0.189  16.920 -0.3790  0.2738  1.1844
 4587TIP3   OH235251   4.293   0.096   1.940  0.1291 -0.3004  0.1828
 4587TIP3    H135252   4.364   0.121   1.998 -0.0097  0.1530  0.1592
 4587TIP3    H235253   4.237   0.173   1.935  0.6692  0.0266 -1.3440
 4588TIP3   OH235254   4.181   1.943  14.587 -0.3473  0.2097  0.6292
 4588TIP3    H135255   4.153   1.855  14.612  1.3840 -0.5768 -0.0558
 4588TIP3    H235256   4.277   1.939  14.593 -0.2536  2.0090  0.4566
 4589TIP3   OH235257   3.269   1.944   1.450 -0.4255  0.2330  0.1718
 4589TIP3    H135258   3.278   1.906   1.538 -1.4480 -0.0756  0.1469
 4589TIP3    H235259   3.175   1.948   1.435 -0.3615  3.2611  0.3540
 4590TIP3   OH235260   1.656   1.438   0.878  0.2097  0.2012 -0.3336
 4590TIP3    H135261   1.566   1.462   0.898 -0.4687 -1.5972 -1.1816
 4590TIP3    H235262   1.649   1.371   0.811  2.1374 -0.8261  0.4462
 4591TIP3   OH235263   4.121   4.457  11.917 -0.0446  0.3531 -0.5389
 4591TIP3    H135264   4.149   4.520  11.983  1.7615  1.0836 -1.9381
 4591TIP3    H235265   4.026   4.465  11.914  0.0208  1.6534  0.6382
 4592TIP3   OH235266   5.511   3.088   2.296 -0.2619  0.0781  0.6505
 4592TIP3    H135267   5.463   3.042   2.365 -0.3635 -0.0748  0.4759
 4592TIP3    H235268   5.571   3.022   2.260 -0.4834  0.0538  0.3289
 4593TIP3   OH235269   3.300   6.414   3.766  0.2493  0.2375 -0.0599
 4593TIP3    H135270   3.379   6.367   3.738 -0.7765 -0.4544 -1.8564
 4593TIP3    H235271   3.260   6.443   3.684 -1.1975  0.8793  0.8652
 4594TIP3   OH235272   5.939   3.483  14.188 -0.5300 -0.3326  0.4239
 4594TIP3    H135273   5.915   3.468  14.096  0.4554  2.2919 -0.3109
 4594TIP3    H235274   5.862   3.525  14.226 -1.2915 -2.2637  1.0825
 4595TIP3   OH235275   1.899   2.601   0.941 -0.0968  0.0347  0.0195
 4595TIP3    H135276   1.924   2.680   0.989  0.3009  0.8206 -1.4471
 4595TIP3    H235277   1.962   2.534   0.970  0.4314  0.6227  0.2441
 4596TIP3   OH235278   0.623   3.271   0.601  0.0289  0.3242  0.1566
 4596TIP3    H135279   0.602   3.293   0.510  1.2946  1.1169  0.0452
 4596TIP3    H235280   0.540   3.275   0.647 -0.2750  2.1535 -0.5222
 4597TIP3   OH235281   1.633   0.818   4.204  0.1235  0.2850  0.0641
 4597TIP3    H135282   1.679   0.849   4.126 -2.7318  1.7901 -1.1127
 4597TIP3    H235283   1.590   0.737   4.176  0.0469  0.1926  0.4429
 4598TIP3   OH235284   2.109   3.084  17.054 -0.0199  0.3012  0.0348
 4598TIP3    H135285   2.162   3.016  17.096  0.4890  1.1995  0.8863
 4598TIP3    H235286   2.168   3.126  16.992  0.1790  1.0520  0.7121
 4599TIP3   OH235287   1.134   3.778  15.646  0.1882 -0.2625 -0.2038
 4599TIP3    H135288   1.096   3.693  15.669 -1.1843  0.4026  0.0160
 4599TIP3    H235289   1.096   3.800  15.561 -1.5186  1.3351  0.9280
 4600TIP3   OH235290   5.808   4.366   4.034 -0.1402  0.2169 -0.3445
 4600TIP3    H135291   5.716   4.368   4.062 -0.6608  3.8319 -2.0160
 4600TIP3    H235292   5.844   4.450   4.063  1.9953 -0.1905 -1.6812
 4601TIP3   OH235293   3.212   1.391  14.547  0.3255 -0.0899  0.1912
 4601TIP3    H135294   3.253   1.328  14.489 -1.5445 -0.0324 -1.2458
 4601TIP3    H235295   3.121   1.363  14.552  0.0426  1.0232  1.5820
 4602TIP3   OH235296   3.594   6.329  13.399 -0.3085  0.0611 -0.4697
 4602TIP3    H135297   3.602   6.234  13.399  2.0851  0.2150 -0.0627
 4602TIP3    H235298   3.648   6.358  13.473 -0.6652  1.7606 -0.8380
 4603TIP3   OH235299   6.513   2.282   4.716  0.5012  0.2969 -0.1592
 4603TIP3    H135300   6.432   2.236   4.739  0.5664 -0.9532 -2.2615
 4603TIP3    H235301   6.577   2.212   4.701  1.0918  1.1514 -1.6879
 4604TIP3   OH235302   6.584   0.731   4.118  0.0772 -0.4295 -0.0815
 4604TIP3    H135303   6.569   0.735   4.213 -0.7818 -0.0732 -0.2295
 4604TIP3    H235304   6.679   0.732   4.109  0.2173 -2.3927  0.8739
 4605TIP3   OH235305   3.790   3.120  15.724  0.0949 -0.0579  0.2477
 4605TIP3    H135306   3.762   3.209  15.707 -0.5181 -0.7188 -2.4524
 4605TIP3    H235307   3.712   3.076  15.757  0.8167  0.7695  3.1959
 4606TIP3   OH235308   6.532   2.498   6.028  0.1005 -0.1330  1.2215
 4606TIP3    H135309   6.562   2.407   6.023 -1.0698 -0.5202  1.1805
 4606TIP3    H235310   6.457   2.496   6.087 -1.2133  0.4666 -0.3965
 4607TIP3   OH235311   2.641   1.512  17.062 -0.0618  0.4355  0.1138
 4607TIP3    H135312   2.607   1.429  17.030  1.4066  0.1075 -0.6191
 4607TIP3    H235313   2.727   1.491  17.098  0.9533  1.8709 -1.3823
 4608TIP3   OH235314   2.525   2.322   3.026  0.1068  0.1258 -0.2552
 4608TIP3    H135315   2.550   2.269   3.102 -1.9530 -1.4911 -0.6693
 4608TIP3    H235316   2.462   2.385   3.060  0.4199  0.4658 -0.3066
 4609TIP3   OH235317   0.048   4.046  11.614  0.0187  0.2145  0.5907
 4609TIP3    H135318   0.003   4.013  11.692 -1.0519  0.7335  0.2004
 4609TIP3    H235319  -0.002   4.013  11.541  1.1485 -0.4399  0.1035
 4610TIP3   OH235320   1.717   6.523   4.335 -0.2223 -0.1489 -0.1075
 4610TIP3    H135321   1.802   6.562   4.356  0.5154 -1.5213 -0.5236
 4610TIP3    H235322   1.669   6.522   4.418  1.1029 -1.7045  0.6449
 4611TIP3   OH235323   3.441   3.691  13.465 -0.3019 -0.1293 -0.0275
 4611TIP3    H135324   3.366   3.745  13.440  1.1189  2.0138  0.2786
 4611TIP3    H235325   3.493   3.684  13.385  1.3361  1.9662  0.8241
 4612TIP3   OH235326   0.926   6.583   4.730  0.4060 -0.0050  0.1175
 4612TIP3    H135327   0.832   6.575   4.748  0.0252  0.0985 -1.7055
 4612TIP3    H235328   0.937   6.547   4.642  2.1547 -0.3824  0.4719
 4613TIP3   OH235329   5.338   3.285  17.201 -0.2159  0.0635 -0.3438
 4613TIP3    H135330   5.312   3.196  17.179  0.0164  0.1453 -0.9615
 4613TIP3    H235331   5.401   3.309  17.133 -0.6363  0.8674 -0.4530
 4614TIP3   OH235332   0.671   1.634   0.266  0.3238 -0.0088  0.4666
 4614TIP3    H135333   0.612   1.649   0.192 -0.1531 -2.4195  0.3057
 4614TIP3    H235334   0.625   1.670   0.341 -0.3368  0.1782 -0.0267
 4615TIP3   OH235335   5.827   0.704  15.349  0.3311 -0.1383 -0.1889
 4615TIP3    H135336   5.875   0.636  15.396  0.1376  0.6492  1.1767
 4615TIP3    H235337   5.739   0.668  15.339 -0.7913  1.2643  3.6757
 4616TIP3   OH235338   4.210   5.678  14.460  0.0082 -0.3104 -0.5649
 4616TIP3    H135339   4.258   5.608  14.504  0.2606  0.4952  0.4599
 4616TIP3    H235340   4.255   5.759  14.485 -0.5328  0.2672 -1.3971
 4617TIP3   OH235341   0.387   6.668  15.824  0.3742 -0.3495 -0.1820
 4617TIP3    H135342   0.312   6.649  15.880  0.2249 -2.2490 -0.9986
 4617TIP3    H235343   0.441   6.589  15.828  2.5090  1.0644  0.6019
 4618TIP3   OH235344   0.802   0.604   3.354  0.0118  0.0055 -0.9946
 4618TIP3    H135345   0.788   0.527   3.410  2.3476  0.0086 -0.3448
 4618TIP3    H235346   0.721   0.613   3.304 -0.5655 -2.4589 -0.5516
 4619TIP3   OH235347   0.819   4.779   6.036  0.0274 -0.1465 -0.5669
 4619TIP3    H135348   0.851   4.760   6.125 -0.1806  1.7534 -0.0566
 4619TIP3    H235349   0.836   4.699   5.987  0.8445 -0.9685  1.0003
 4620TIP3   OH235350   6.310   6.633   5.247  0.6053  0.2412 -0.2087
 4620TIP3    H135351   6.308   6.710   5.303 -0.4002 -0.4671  0.7546
 4620TIP3    H235352   6.231   6.639   5.194  0.7894  0.1404 -0.4929
 4621TIP3   OH235353   6.068   1.592   1.694 -0.7315 -0.0947 -0.0610
 4621TIP3    H135354   6.010   1.633   1.758 -0.1698  1.1433 -0.3308
 4621TIP3    H235355   6.102   1.665   1.642 -0.1756 -0.9600 -0.9369
 4622TIP3   OH235356   2.678   5.657   2.023  0.0787 -0.4266 -0.1791
 4622TIP3    H135357   2.749   5.615   2.072  0.5379  0.4235 -0.0957
 4622TIP3    H235358   2.700   5.643   1.931 -0.5965 -1.7160 -0.1521
 4623TIP3   OH235359   2.649   2.028  15.947 -0.2025 -0.4506  0.3168
 4623TIP3    H135360   2.620   1.955  15.892 -0.7675 -0.3976  0.5382
 4623TIP3    H235361   2.594   2.101  15.920 -0.6582 -0.4887  1.1280
 4624TIP3   OH235362   3.256   0.415   4.089 -0.0601 -0.5217  0.4506
 4624TIP3    H135363   3.278   0.323   4.075  0.4900 -0.2865 -0.2753
 4624TIP3    H235364   3.336   0.454   4.125 -0.1546 -0.2326  0.3547
 4625TIP3   OH235365   1.916   6.752  17.211  0.0451 -0.2742 -0.3163
 4625TIP3    H135366   1.971   6.806  17.267 -0.5852  0.4488 -0.3977
 4625TIP3    H235367   1.835   6.801  17.201 -1.1517 -1.9087  0.8908
 4626TIP3   OH235368   0.428   4.440  13.291  0.2195 -0.3702  0.6840
 4626TIP3    H135369   0.475   4.516  13.325  2.0839 -1.1970 -0.0249
 4626TIP3    H235370   0.352   4.477  13.246  1.3546  1.1169 -0.0521
 4627TIP3   OH235371   5.434   0.364   4.007  0.1499  0.0728 -0.2193
 4627TIP3    H135372   5.372   0.428   4.042  0.5618 -0.2467  1.1403
 4627TIP3    H235373   5.510   0.369   4.065  0.9287 -0.3724 -1.1712
 4628TIP3   OH235374   3.858   0.033   2.210 -0.3701 -0.3221 -0.3468
 4628TIP3    H135375   3.949   0.058   2.194  0.1103 -1.0469  1.1386
 4628TIP3    H235376   3.841  -0.039   2.150 -0.0967  0.0812 -0.9106
 4629TIP3   OH235377   0.580   5.714   2.296 -0.2108  0.6097  0.4319
 4629TIP3    H135378   0.628   5.774   2.352 -0.7732 -0.7009  2.3854
 4629TIP3    H235379   0.488   5.735   2.311 -0.3543  0.4350 -0.1942
 4630TIP3   OH235380   3.046   1.352  16.659  0.4433  0.3687 -0.1621
 4630TIP3    H135381   3.095   1.374  16.739  2.3995 -1.3046 -0.8539
 4630TIP3    H235382   3.050   1.431  16.606  1.4415  0.6319  0.2874
 4631TIP3   OH235383   3.002   2.387  16.792 -0.0300  0.1251  0.2764
 4631TIP3    H135384   2.961   2.306  16.821  0.5729  0.2011  1.3537
 4631TIP3    H235385   2.929   2.447  16.775 -0.4270 -0.3061  0.4627
 4632TIP3   OH235386   6.028   6.051   5.961 -0.4398  0.6393  0.1376
 4632TIP3    H135387   5.991   5.973   5.921 -0.8107  1.0603 -0.3455
 4632TIP3    H235388   5.953   6.098   5.997 -0.0601 -0.0328  1.8850
 4633TIP3   OH235389   0.738   2.242  14.869  0.6591 -0.0882 -0.7270
 4633TIP3    H135390   0.683   2.201  14.802  0.4468 -0.9399 -0.0382
 4633TIP3    H235391   0.677   2.269  14.937  0.9306  0.3267 -0.6444
 4634TIP3   OH235392   1.403   1.861   2.466 -0.6087 -0.1722 -0.1711
 4634TIP3    H135393   1.452   1.801   2.411  1.2730  0.0120  1.2652
 4634TIP3    H235394   1.404   1.944   2.417  4.0468  0.9746  1.5702
 4635TIP3   OH235395   3.804   5.340  12.955  0.1007 -0.3685  0.4783
 4635TIP3    H135396   3.772   5.396  13.026 -0.3846 -0.0348 -0.0034
 4635TIP3    H235397   3.796   5.394  12.876 -1.7384 -1.6226 -0.2208
 4636TIP3   OH235398   0.891   1.008   3.427 -0.3108  0.1454  0.0574
 4636TIP3    H135399   0.818   0.958   3.390  0.5628 -0.6192 -0.6657
 4636TIP3    H235400   0.941   1.037   3.351 -1.0089  2.4530  0.4524
 4637TIP3   OH235401   6.356   4.818   4.021 -0.0118  0.6045 -0.1134
 4637TIP3    H135402   6.266   4.838   3.996  0.3200  0.8599 -1.1163
 4637TIP3    H235403   6.408   4.841   3.944  1.0669  1.7843  0.9355
 4638TIP3   OH235404   6.423   1.485   0.314 -0.1929 -0.4528 -0.5078
 4638TIP3    H135405   6.410   1.399   0.354  0.8469  0.4610  1.8961
 4638TIP3    H235406   6.505   1.516   0.352 -1.6394  2.5230  0.3008
 4639TIP3   OH235407   4.001   3.072   4.433  0.1785  0.0919  0.2577
 4639TIP3    H135408   4.042   3.158   4.428  1.8751 -0.7873 -1.3778
 4639TIP3    H235409   3.994   3.043   4.342 -1.4678 -0.9907  0.7186
 4640TIP3   OH235410   1.494   5.152   2.058 -0.1104 -0.0212 -0.2467
 4640TIP3    H135411   1.401   5.168   2.042  0.3507  2.5374 -0.5087
 4640TIP3    H235412   1.495   5.071   2.109 -2.4327 -0.4915 -0.8679
 4641TIP3   OH235413   5.567   3.536  11.585  0.3434 -0.3646 -0.3911
 4641TIP3    H135414   5.497   3.485  11.546 -0.7465  0.6025  0.2658
 4641TIP3    H235415   5.561   3.519  11.678  0.3827  0.4272 -0.2340
 4642TIP3   OH235416   2.977   0.802   0.711 -0.3098  0.0039 -0.1394
 4642TIP3    H135417   2.996   0.750   0.633  0.5209 -0.7413  0.5358
 4642TIP3    H235418   3.051   0.862   0.719 -0.5687  0.3215 -0.1307
 4643TIP3   OH235419   1.484   5.579  12.738  0.4575  0.0661 -0.0789
 4643TIP3    H135420   1.520   5.583  12.649 -0.1776 -1.5704 -0.4195
 4643TIP3    H235421   1.503   5.490  12.767 -2.0652 -0.3751  0.2728
 4644TIP3   OH235422   6.656   2.170   4.136 -0.0452  0.1004 -0.1977
 4644TIP3    H135423   6.656   2.089   4.084  1.3258  1.3320 -2.1743
 4644TIP3    H235424   6.746   2.180   4.165  0.2445  1.8872 -1.5791
 4645TIP3   OH235425   5.082   5.829  13.137  0.4074 -0.8169  0.0410
 4645TIP3    H135426   5.121   5.913  13.112  1.1321 -0.7832  1.2127
 4645TIP3    H235427   4.991   5.850  13.157  0.5533 -0.3250  0.2137
 4646TIP3   OH235428   0.034   2.511  12.980 -0.0425  0.6295 -0.5853
 4646TIP3    H135429   0.005   2.433  13.027 -1.1528  1.5159  0.2460
 4646TIP3    H235430   0.090   2.478  12.910 -0.7739 -0.9292 -0.4546
 4647TIP3   OH235431   5.400   4.483  13.962 -0.4877 -0.1239 -0.1162
 4647TIP3    H135432   5.378   4.404  14.011  0.4608 -0.4711 -0.2616
 4647TIP3    H235433   5.398   4.457  13.870 -0.3004  0.0563 -0.1725
 4648TIP3   OH235434   0.659   0.034  14.324  1.0370  0.4759  0.1142
 4648TIP3    H135435   0.728   0.026  14.259  1.7459 -1.3078  1.0620
 4648TIP3    H235436   0.696  -0.002  14.404 -0.6442  0.4408  0.9099
 4649TIP3   OH235437   3.196   0.642  12.964 -0.4285 -0.5716 -0.3338
 4649TIP3    H135438   3.130   0.584  13.004  1.0617 -2.6947 -0.8494
 4649TIP3    H235439   3.208   0.607  12.876  0.6336  0.4596 -0.6023
 4650TIP3   OH235440   0.608   4.356  14.489  0.4982 -0.2097 -0.0950
 4650TIP3    H135441   0.586   4.264  14.475 -4.3941  0.4260  1.9695
 4650TIP3    H235442   0.627   4.362  14.583  0.8691  0.8643 -0.2282
 4651TIP3   OH235443   4.347   1.741  16.787  0.6218 -0.2891  0.5060
 4651TIP3    H135444   4.439   1.717  16.793  0.5252 -1.2511 -1.4482
 4651TIP3    H235445   4.347   1.837  16.784  1.6393 -0.3123 -0.5621
 4652TIP3   OH235446   2.128   3.805   0.727  0.1260 -0.6376  0.0807
 4652TIP3    H135447   2.084   3.725   0.758  0.3658 -1.3838 -1.4585
 4652TIP3    H235448   2.057   3.867   0.713  0.0801  0.0351  2.9608
 4653TIP3   OH235449   3.164   2.215   4.554 -0.5287  0.3576  0.2266
 4653TIP3    H135450   3.152   2.124   4.579  1.0163 -0.2409 -1.1464
 4653TIP3    H235451   3.112   2.264   4.618 -0.1142 -1.3672  1.9381
 4654TIP3   OH235452   5.824   5.585  13.531 -0.0064  0.2868 -0.1213
 4654TIP3    H135453   5.916   5.579  13.506  0.8022 -0.2863  2.7184
 4654TIP3    H235454   5.808   5.679  13.545 -0.0484  0.4520 -1.2991
 4655TIP3   OH235455   0.183   6.711   4.428 -0.0122 -0.2206 -0.3952
 4655TIP3    H135456   0.278   6.702   4.417  0.0071  0.5509 -0.8879
 4655TIP3    H235457   0.173   6.766   4.506 -0.0931 -1.9332  0.8390
 4656TIP3   OH235458   1.106   1.981  15.045 -0.0291 -0.5951  0.3059
 4656TIP3    H135459   1.162   2.012  14.974 -1.0686 -0.3742 -0.4378
 4656TIP3    H235460   1.029   2.039  15.041 -0.8674 -1.6768  0.4997
 4657TIP3   OH235461   4.167   1.308   2.279  0.8391  0.3164 -0.2202
 4657TIP3    H135462   4.124   1.310   2.194 -0.9089  1.5424  0.6675
 4657TIP3    H235463   4.225   1.384   2.279  1.0990  0.1159 -0.4560
 4658TIP3   OH235464   1.006   0.458   0.591 -0.0221  0.5315  0.0626
 4658TIP3    H135465   0.968   0.448   0.678 -0.3665  2.7723  0.2012
 4658TIP3    H235466   0.934   0.441   0.531  0.0555 -0.3506  0.2028
 4659TIP3   OH235467   0.615   0.308  11.377 -0.0956 -0.3521 -0.5820
 4659TIP3    H135468   0.688   0.246  11.369  0.5186  0.3349 -0.3853
 4659TIP3    H235469   0.617   0.359  11.296 -0.4406 -0.4208 -0.6349
 4660TIP3   OH235470   3.276   2.257  11.828  0.0857 -0.5559 -0.2915
 4660TIP3    H135471   3.336   2.256  11.754 -0.8097  4.1592 -1.2727
 4660TIP3    H235472   3.315   2.320  11.889 -1.0324 -1.6598  1.5988
 4661TIP3   OH235473   6.070   6.767  16.260  0.0103  0.0176 -0.0771
 4661TIP3    H135474   6.088   6.685  16.306  0.2588  0.7056  1.0803
 4661TIP3    H235475   6.045   6.828  16.329  0.0111  0.9677 -0.9021
 4662TIP3   OH235476   6.424   0.024   0.715  0.2682  0.0825 -0.4179
 4662TIP3    H135477   6.375  -0.045   0.759  1.0607 -0.5277 -0.4996
 4662TIP3    H235478   6.406   0.012   0.622 -0.7942  0.9074 -0.3303
 4663TIP3   OH235479   6.599   1.870  13.195 -0.3671 -0.3181 -0.6305
 4663TIP3    H135480   6.556   1.954  13.182 -0.1301 -0.1583 -0.3937
 4663TIP3    H235481   6.539   1.805  13.157 -0.9175 -0.1204 -0.1057
 4664TIP3   OH235482   2.283   2.979  14.415  0.3074 -0.0542  0.1767
 4664TIP3    H135483   2.317   2.891  14.430  0.0126 -0.0300  1.0102
 4664TIP3    H235484   2.296   2.994  14.322 -0.3596 -1.2730 -0.1177
 4665TIP3   OH235485   5.439   3.733   3.480 -0.0915 -0.5784  0.6164
 4665TIP3    H135486   5.348   3.707   3.499 -0.5050  0.2341 -0.2029
 4665TIP3    H235487   5.439   3.828   3.494  0.5425 -0.5262  0.2462
 4666TIP3   OH235488   5.989   6.244  11.032  0.0259 -0.6487  0.7277
 4666TIP3    H135489   5.929   6.262  10.960  0.0068  1.1876  1.1686
 4666TIP3    H235490   5.977   6.151  11.051 -2.0928 -0.4790  0.2810
 4667TIP3   OH235491   5.023   6.057   0.057  0.3687 -0.2245 -0.2737
 4667TIP3    H135492   5.094   6.114   0.086  0.0500 -0.0874  0.2558
 4667TIP3    H235493   5.062   5.970   0.053  0.3851 -0.2773  0.7471
 4668TIP3   OH235494   1.866   4.222  14.500  0.3614  0.0340 -0.4658
 4668TIP3    H135495   1.829   4.272  14.573  0.9542  1.0073 -0.8153
 4668TIP3    H235496   1.819   4.139  14.501  1.6261 -0.6825  2.1509
 4669TIP3   OH235497   1.522   5.497  13.324 -0.2547  0.2233  0.2784
 4669TIP3    H135498   1.594   5.481  13.385  1.7758  2.3954 -1.4738
 4669TIP3    H235499   1.508   5.412  13.281 -1.8819 -1.4128  3.7898
 4670TIP3   OH235500   4.922   4.689  17.178  0.0836 -0.5637  0.0916
 4670TIP3    H135501   4.915   4.607  17.227 -0.2384 -0.3607  0.3928
 4670TIP3    H235502   4.841   4.736  17.199  0.3461 -0.0950  0.0640
 4671TIP3   OH235503   6.648   4.436  10.732  0.0338  0.0645  0.5682
 4671TIP3    H135504   6.666   4.376  10.660 -1.7711 -0.7774  0.7933
 4671TIP3    H235505   6.732   4.479  10.748  1.1716 -1.7875 -0.1534
 4672TIP3   OH235506   3.528   2.920  15.613 -0.2273  1.0407 -0.3156
 4672TIP3    H135507   3.477   2.850  15.574  0.9379 -0.6578  1.1128
 4672TIP3    H235508   3.494   3.000  15.573 -2.3093 -0.2354 -1.1916
 4673TIP3   OH235509   5.524   6.310  12.248 -0.2242  0.2736 -0.2638
 4673TIP3    H135510   5.607   6.277  12.212 -0.5449 -0.3321 -0.4688
 4673TIP3    H235511   5.549   6.382  12.305  0.6769 -1.4456  1.5831
 4674TIP3   OH235512   1.298   0.539   2.095  1.0744  0.5558  0.5077
 4674TIP3    H135513   1.357   0.463   2.087  0.8571  0.2191  2.0522
 4674TIP3    H235514   1.226   0.519   2.035  0.0921 -1.3388  2.2581
 4675TIP3   OH235515   4.190   5.987  13.872 -0.0425  0.2856  0.2352
 4675TIP3    H135516   4.230   6.046  13.807 -1.1892  0.8325  0.0079
 4675TIP3    H235517   4.140   6.045  13.930 -0.7781 -0.4077  0.3073
 4676TIP3   OH235518   4.382   1.546   1.697 -0.2010  0.3114 -0.1044
 4676TIP3    H135519   4.307   1.605   1.689 -1.4744 -1.1580  0.6604
 4676TIP3    H235520   4.411   1.531   1.607 -0.6178  1.1352 -0.3830
 4677TIP3   OH235521   1.411   5.926   2.620  0.3681 -0.2419 -0.2186
 4677TIP3    H135522   1.418   5.876   2.702  2.3461 -0.9559 -0.7768
 4677TIP3    H235523   1.427   6.017   2.646 -2.7180  0.0797  0.7238
 4678TIP3   OH235524   4.151   0.626  13.631  0.2567 -0.2833  0.5530
 4678TIP3    H135525   4.063   0.590  13.623  0.2172  0.0216 -0.4591
 4678TIP3    H235526   4.201   0.558  13.676 -0.0139 -1.2798 -0.6431
 4679TIP3   OH235527   2.267   5.897   6.145 -0.4728 -0.0398  0.2802
 4679TIP3    H135528   2.345   5.849   6.120 -0.6047  0.4314 -1.1276
 4679TIP3    H235529   2.204   5.829   6.170  0.0397 -0.4812  0.3774
 4680TIP3   OH235530   5.468   1.434   0.494 -0.5139 -0.1772  0.0204
 4680TIP3    H135531   5.522   1.461   0.568 -2.0119  2.4229  0.2221
 4680TIP3    H235532   5.478   1.339   0.491 -1.8282 -0.6115  4.7471
 4681TIP3   OH235533   2.195   4.159   3.020 -0.2418 -0.5197  0.4467
 4681TIP3    H135534   2.203   4.148   2.925  1.3943 -1.9371  0.7212
 4681TIP3    H235535   2.121   4.103   3.044  0.4548 -1.5456  0.2268
 4682TIP3   OH235536   6.504   0.776  11.522  0.8964  0.2137 -0.1703
 4682TIP3    H135537   6.465   0.816  11.444  0.4412 -0.1612 -0.1371
 4682TIP3    H235538   6.429   0.741  11.571  1.0354  1.5734  1.0778
 4683TIP3   OH235539   2.458   2.021   1.593 -0.3933  0.2031 -0.3383
 4683TIP3    H135540   2.406   2.035   1.673  1.2895 -0.7218  0.9378
 4683TIP3    H235541   2.549   2.022   1.623  0.4110  2.3367 -2.6176
 4684TIP3   OH235542   4.202   2.665  15.342  0.0199  0.3327  0.0224
 4684TIP3    H135543   4.118   2.644  15.300 -0.2993 -0.2967  0.9623
 4684TIP3    H235544   4.180   2.732  15.406  0.5188  1.3369 -0.8413
 4685TIP3   OH235545   4.312   0.719   5.188  0.2560  0.2442  0.0205
 4685TIP3    H135546   4.250   0.647   5.177  1.0615 -0.3187 -0.9500
 4685TIP3    H235547   4.305   0.743   5.281  0.9358 -1.9812  0.6831
 4686TIP3   OH235548   2.142   6.346  13.275  0.1037 -0.2588 -0.0560
 4686TIP3    H135549   2.099   6.302  13.349  0.9710 -1.2956 -0.1568
 4686TIP3    H235550   2.190   6.418  13.315  1.2652 -1.3227  0.5300
 4687TIP3   OH235551   2.534   4.984   5.393  0.2098 -0.5320  0.5797
 4687TIP3    H135552   2.572   5.018   5.312 -0.2042  1.4159  1.1742
 4687TIP3    H235553   2.609   4.964   5.448  0.4884 -1.6446 -0.1834
 4688TIP3   OH235554   1.004   2.351  14.521 -0.4833 -0.0082 -0.1748
 4688TIP3    H135555   1.039   2.368  14.608  0.4424 -0.6900 -0.4137
 4688TIP3    H235556   1.054   2.277  14.488 -2.7682 -1.6215 -0.1606
 4689TIP3   OH235557   2.129   5.053  14.804  0.0165  0.3789  0.5816
 4689TIP3    H135558   2.048   5.089  14.768 -0.0581  2.3960  2.6329
 4689TIP3    H235559   2.101   4.977  14.855 -0.3180 -0.1626 -0.3853
 4690TIP3   OH235560   2.125   4.527  14.795  0.1440  0.1910 -0.0965
 4690TIP3    H135561   2.120   4.433  14.781  1.3852 -0.1671  1.7746
 4690TIP3    H235562   2.140   4.563  14.707 -0.3517 -1.3281 -0.8212
 4691TIP3   OH235563   6.244   4.178   4.922 -0.2167  0.3860 -0.4168
 4691TIP3    H135564   6.153   4.151   4.934  0.1903 -2.5186 -3.1518
 4691TIP3    H235565   6.238   4.257   4.868 -1.1276 -0.5090 -1.6817
 4692TIP3   OH235566   3.465   5.426   2.584  0.0108  0.2768  0.1014
 4692TIP3    H135567   3.525   5.411   2.511  3.0969 -0.9556  2.8138
 4692TIP3    H235568   3.516   5.476   2.647 -2.1566  0.1225  2.0265
 4693TIP3   OH235569   2.134   1.337  16.360  0.5749 -0.0777  0.3766
 4693TIP3    H135570   2.069   1.309  16.295  0.3208  0.1561  0.5278
 4693TIP3    H235571   2.150   1.259  16.413 -1.3223  0.4563  1.7912
 4694TIP3   OH235572   4.987   0.176  16.672 -0.1979 -0.2393 -0.3773
 4694TIP3    H135573   5.033   0.225  16.740 -2.5172  1.6843 -0.1262
 4694TIP3    H235574   4.926   0.120  16.720 -1.5260  0.7972 -0.8197
 4695TIP3   OH235575   5.547   0.187  12.682 -0.7185 -0.3751 -0.0218
 4695TIP3    H135576   5.530   0.186  12.777 -0.5314 -2.4667  0.0209
 4695TIP3    H235577   5.595   0.269  12.667  1.2401 -1.0735  2.0751
 4696TIP3   OH235578   6.377   0.229   5.982  0.1879 -0.7704 -1.0380
 4696TIP3    H135579   6.316   0.283   5.932  0.9009 -0.5338 -1.6493
 4696TIP3    H235580   6.378   0.270   6.069 -1.1777 -1.2878 -0.7497
 4697TIP3   OH235581   1.703   2.575   2.537 -0.1167  0.0300 -0.0586
 4697TIP3    H135582   1.696   2.486   2.501 -3.8439 -1.4989  3.8541
 4697TIP3    H235583   1.669   2.632   2.468 -0.3931 -1.9082 -1.5746
 4698TIP3   OH235584   1.017   5.781  15.502  0.8301  0.0117 -0.2437
 4698TIP3    H135585   1.007   5.856  15.561  1.2022  0.3642 -0.6205
 4698TIP3    H235586   0.930   5.743  15.495  0.2953  1.3942 -1.3355
 4699TIP3   OH235587   3.299   3.406   0.606  0.9047 -0.3059 -0.3987
 4699TIP3    H135588   3.296   3.361   0.522  1.1893  0.2486 -0.7096
 4699TIP3    H235589   3.312   3.498   0.583 -0.2867  0.0128  0.2113
 4700TIP3   OH235590   6.477   4.428   1.495 -0.8633  0.2398  0.2944
 4700TIP3    H135591   6.463   4.367   1.567 -2.2079  0.5191  0.2947
 4700TIP3    H235592   6.400   4.416   1.439 -0.0204  0.2895 -0.9117
 4701TIP3   OH235593   1.906   0.836   3.967 -0.0337  0.1657 -0.0410
 4701TIP3    H135594   1.975   0.881   4.015 -0.6606  0.1894  0.8454
 4701TIP3    H235595   1.913   0.744   3.995  0.4097 -0.0632 -0.8671
 4702TIP3   OH235596   3.834   4.722  14.512 -0.6123 -0.0844  0.0824
 4702TIP3    H135597   3.923   4.706  14.545 -0.8475  1.9572  1.8129
 4702TIP3    H235598   3.848   4.762  14.425  0.0685 -2.7166 -1.0579
 4703TIP3   OH235599   5.364   1.232   4.246  0.1869  0.5139 -0.2778
 4703TIP3    H135600   5.444   1.181   4.263 -0.5681 -0.7224 -0.3886
 4703TIP3    H235601   5.386   1.283   4.168  0.6420 -0.3537 -0.7325
 4704TIP3   OH235602   0.165   3.581  13.807 -0.3732 -0.2743 -0.5736
 4704TIP3    H135603   0.165   3.640  13.883  0.1156 -0.8875 -0.0949
 4704TIP3    H235604   0.081   3.536  13.811  0.4517 -1.7241  0.7148
 4705TIP3   OH235605   0.712   1.662   5.947  0.9200 -0.4817  0.5274
 4705TIP3    H135606   0.793   1.626   5.910 -0.0095 -0.5356 -1.4667
 4705TIP3    H235607   0.675   1.715   5.877  0.3987  1.4575  2.2168
 4706TIP3   OH235608   2.188   0.245  15.076  0.2532  0.0854 -0.4144
 4706TIP3    H135609   2.130   0.304  15.029 -0.9510  0.3195  1.3481
 4706TIP3    H235610   2.258   0.301  15.109  1.3953 -0.1546 -2.2846
 4707TIP3   OH235611   2.156   2.894  12.031  0.3696 -0.3639  0.1604
 4707TIP3    H135612   2.137   2.987  12.040 -0.5311 -0.6290  0.9931
 4707TIP3    H235613   2.100   2.865  11.959  1.6170  0.0110 -0.9783
 4708TIP3   OH235614   4.908   2.707   5.451 -0.2008  0.2770  0.0782
 4708TIP3    H135615   4.874   2.781   5.501 -2.4162 -0.6199 -0.0414
 4708TIP3    H235616   4.947   2.650   5.518 -0.2270  0.6304  0.4005
 4709TIP3   OH235617   1.878   1.349   3.721 -0.4948 -0.0748  0.5638
 4709TIP3    H135618   1.880   1.254   3.731  0.0159  0.0098  1.2584
 4709TIP3    H235619   1.843   1.363   3.633  0.5463 -0.9281  0.0033
 4710TIP3   OH235620   2.095   5.586   1.109  0.2596 -0.0671 -0.1227
 4710TIP3    H135621   2.112   5.677   1.084  1.2905  0.1201  1.2170
 4710TIP3    H235622   2.042   5.593   1.188 -1.8804 -0.6593 -1.4487
 4711TIP3   OH235623   4.376   4.263  13.461 -0.5745 -0.3841 -0.1944
 4711TIP3    H135624   4.446   4.323  13.488  0.6929 -1.1773 -1.6325
 4711TIP3    H235625   4.310   4.272  13.529  1.4853 -0.5808  1.9068
 4712TIP3   OH235626   5.679   2.636  15.066 -0.6872  0.3983  0.1793
 4712TIP3    H135627   5.592   2.647  15.103 -1.1867  1.6267 -1.3023
 4712TIP3    H235628   5.734   2.698  15.114 -0.8820  0.4632  0.3166
 4713TIP3   OH235629   2.906   3.816   1.176  0.0048  0.2154 -0.1739
 4713TIP3    H135630   2.841   3.823   1.246 -0.7889 -1.3361 -0.7261
 4713TIP3    H235631   2.968   3.750   1.209  0.3690  0.4610 -0.3644
 4714TIP3   OH235632   3.194   0.519  16.973 -0.2302 -0.2795 -0.0400
 4714TIP3    H135633   3.247   0.445  16.944 -0.2639 -0.3869  0.1684
 4714TIP3    H235634   3.258   0.580  17.010 -0.3319 -0.7488  0.9216
 4715TIP3   OH235635   3.382   6.515  12.758 -0.0857 -0.6484 -0.1119
 4715TIP3    H135636   3.331   6.526  12.677 -0.6179 -0.8413  0.1926
 4715TIP3    H235637   3.454   6.577  12.750 -0.1675 -0.6281 -0.7118
 4716TIP3   OH235638   0.981   2.864   5.087  0.1146  0.1492  0.3525
 4716TIP3    H135639   1.043   2.907   5.028  1.0055 -0.7819  0.5904
 4716TIP3    H235640   0.916   2.825   5.029  0.4384  0.0808  0.0311
 4717TIP3   OH235641   3.094   0.184   0.805  0.6335 -0.2411  0.2181
 4717TIP3    H135642   3.124   0.271   0.782  0.8335 -0.4382 -0.2722
 4717TIP3    H235643   3.058   0.148   0.723  1.9052 -1.1719  0.0451
 4718TIP3   OH235644   4.871   3.238  14.394 -0.4762 -0.4500 -0.1441
 4718TIP3    H135645   4.936   3.169  14.406 -0.1638  0.0734  1.1984
 4718TIP3    H235646   4.917   3.319  14.417 -1.5311 -0.0485  0.5990
 4719TIP3   OH235647   6.669   5.870   3.948  0.0282 -0.0145 -0.6435
 4719TIP3    H135648   6.593   5.839   3.899  0.8601 -3.3440  0.0309
 4719TIP3    H235649   6.645   5.858   4.040  0.6454  0.7210 -0.3799
 4720TIP3   OH235650   6.579   4.429   3.986  0.1500 -0.5640 -0.0293
 4720TIP3    H135651   6.606   4.338   3.976  2.4165  0.2308 -1.2728
 4720TIP3    H235652   6.661   4.478   3.991 -0.9981  1.1606  3.2684
 4721TIP3   OH235653   4.149   0.024   0.169  0.3153 -0.1042 -0.4376
 4721TIP3    H135654   4.057   0.045   0.186  0.4222 -1.1894  1.5325
 4721TIP3    H235655   4.190   0.021   0.255  1.2926 -3.8655 -0.9633
 4722TIP3   OH235656   5.481   1.809  16.981 -0.5773  0.1079  0.0386
 4722TIP3    H135657   5.476   1.805  17.077 -1.1839 -0.6763 -0.0184
 4722TIP3    H235658   5.508   1.721  16.955 -1.0482  0.1358 -0.5443
 4723TIP3   OH235659   3.525   6.150  14.185 -0.1143 -0.0502  0.2273
 4723TIP3    H135660   3.575   6.129  14.106 -1.2807 -1.1004 -0.2450
 4723TIP3    H235661   3.467   6.075  14.198 -3.3965  2.1855 -0.7191
 4724TIP3   OH235662   0.759   0.082  12.774  0.1946 -0.6007 -0.1708
 4724TIP3    H135663   0.683   0.101  12.829 -1.8321  0.3187 -3.1767
 4724TIP3    H235664   0.734   0.113  12.687  3.4242 -1.7359 -1.5746
 4725TIP3   OH235665   0.653   0.802   1.906  0.5226 -0.2827 -0.1096
 4725TIP3    H135666   0.731   0.775   1.954  0.6919 -1.4811 -1.0418
 4725TIP3    H235667   0.676   0.789   1.814 -0.5826 -0.1186 -0.4118
 4726TIP3   OH235668   3.445   6.197   5.456  0.0659 -0.1477 -0.7006
 4726TIP3    H135669   3.353   6.197   5.428  0.0670 -1.3137 -0.7324
 4726TIP3    H235670   3.446   6.249   5.536 -0.4817  0.5380 -1.1275
 4727TIP3   OH235671   2.885   0.961   1.285  0.5653  0.2329  0.1820
 4727TIP3    H135672   2.845   0.984   1.369 -1.0308 -0.3343 -0.4167
 4727TIP3    H235673   2.910   1.045   1.247 -0.1146  0.5949  0.5314
 4728TIP3   OH235674   5.779   5.774  13.110 -0.4493  0.2462 -0.0446
 4728TIP3    H135675   5.843   5.742  13.046 -1.1923  1.9695 -1.6940
 4728TIP3    H235676   5.826   5.842  13.158 -0.6752  0.6863 -0.4482
 4729TIP3   OH235677   3.645   3.466  14.868  0.0517 -0.3324  0.0988
 4729TIP3    H135678   3.576   3.448  14.932  0.3416 -0.9840  0.2233
 4729TIP3    H235679   3.705   3.526  14.914 -1.3223  1.6005 -0.5852
 4730TIP3   OH235680   6.438   2.686   4.705 -0.0440  0.4603 -0.3465
 4730TIP3    H135681   6.456   2.647   4.790 -0.5752 -2.1503 -1.3819
 4730TIP3    H235682   6.345   2.710   4.708  0.2107  1.4285  0.1794
 4731TIP3   OH235683   3.734   5.714  12.237  0.2726  0.0052  0.6725
 4731TIP3    H135684   3.660   5.681  12.187 -0.8785  0.0957  2.2839
 4731TIP3    H235685   3.805   5.719  12.174 -1.6454  1.9323 -1.4380
 4732TIP3   OH235686   3.633   6.256   4.593  0.0533  0.1144  1.0004
 4732TIP3    H135687   3.559   6.209   4.556  0.1075  0.5773  0.3081
 4732TIP3    H235688   3.694   6.268   4.520  0.6721  0.0111  1.4906
 4733TIP3   OH235689   5.138   0.132  14.566  0.7391  0.7404 -0.0662
 4733TIP3    H135690   5.123   0.200  14.632  1.4593 -0.3573  1.2709
 4733TIP3    H235691   5.180   0.177  14.493 -0.9330  2.1548 -0.1766
 4734TIP3   OH235692   6.445   3.930  10.551  0.0266 -0.0094 -0.7222
 4734TIP3    H135693   6.532   3.945  10.586 -0.5240  3.0246 -0.4463
 4734TIP3    H235694   6.442   3.984  10.471 -1.8578  0.6300 -0.2512
 4735TIP3   OH235695   0.867   5.819   4.414  0.4988  0.0202  0.0769
 4735TIP3    H135696   0.798   5.801   4.350  0.2721  0.7866  0.1015
 4735TIP3    H235697   0.920   5.739   4.415  0.1006 -0.2571 -0.5569
 4736TIP3   OH235698   4.629   0.881   4.739  0.4919  0.2556  0.0127
 4736TIP3    H135699   4.708   0.830   4.723  0.1991 -0.5550  1.0774
 4736TIP3    H235700   4.562   0.838   4.687  1.1272  2.0601 -2.3789
 4737TIP3   OH235701   5.569   5.906   1.042 -0.4246 -0.4531  0.0395
 4737TIP3    H135702   5.486   5.953   1.044 -1.8632 -2.7094 -2.4528
 4737TIP3    H235703   5.565   5.853   0.962  3.2413 -0.9654  0.0681
 4738TIP3   OH235704   2.748   3.831   6.495 -0.7461  0.6525 -0.5599
 4738TIP3    H135705   2.834   3.826   6.454 -0.5483 -0.9312  0.0038
 4738TIP3    H235706   2.747   3.917   6.537  1.0916  0.2000  0.5172
 4739TIP3   OH235707   5.146   6.488  16.993 -0.2882  0.2133 -0.2612
 4739TIP3    H135708   5.131   6.553  17.061 -1.8063  0.4792 -0.8281
 4739TIP3    H235709   5.105   6.524  16.915  2.5646  0.5038 -1.6835
 4740TIP3   OH235710   4.405   6.131   2.414 -0.2184 -0.0846 -0.5395
 4740TIP3    H135711   4.476   6.158   2.357  0.1718 -0.6752 -0.3306
 4740TIP3    H235712   4.393   6.038   2.397  0.6324 -0.5217  1.1108
 4741TIP3   OH235713   2.788   2.472  13.695  0.5933  0.4442  0.6485
 4741TIP3    H135714   2.755   2.393  13.737 -0.7742 -0.5251 -2.1780
 4741TIP3    H235715   2.833   2.441  13.616  2.0641  2.3300  0.6926
 4742TIP3   OH235716   3.599   6.356  16.310  0.3123  0.0077 -0.0306
 4742TIP3    H135717   3.610   6.419  16.381  0.5965  1.5900 -1.4604
 4742TIP3    H235718   3.671   6.294  16.322  0.2631  0.1651  1.1492
 4743TIP3   OH235719   6.546   5.541  17.231 -0.4916  0.3204 -0.4975
 4743TIP3    H135720   6.604   5.609  17.266 -0.9510  0.1684  0.5915
 4743TIP3    H235721   6.591   5.509  17.153  0.1892  1.2150 -0.4849
 4744TIP3   OH235722   6.616   2.844  16.689  0.7806  0.2179  0.1993
 4744TIP3    H135723   6.675   2.776  16.722  0.0876  0.3711  1.8052
 4744TIP3    H235724   6.617   2.911  16.757  0.0773  0.9978 -0.5573
 4745TIP3   OH235725   4.762   1.420  13.477  0.1139 -0.0945  0.9123
 4745TIP3    H135726   4.702   1.390  13.545 -1.0422 -2.6626 -1.1430
 4745TIP3    H235727   4.716   1.492  13.434  0.2535  0.5897  1.8708
 4746TIP3   OH235728   0.020   2.052   0.533 -0.1721 -0.6999 -0.5128
 4746TIP3    H135729   0.090   2.097   0.581 -1.1254 -0.2969  0.5172
 4746TIP3    H235730   0.046   1.960   0.533  0.2072 -0.5962  0.1278
 4747TIP3   OH235731   6.383   6.401   5.091 -0.1942  0.3573 -0.1482
 4747TIP3    H135732   6.373   6.420   5.185 -1.4436  1.4184 -0.4880
 4747TIP3    H235733   6.474   6.421   5.072  0.1250 -0.0642  0.8865
 4748TIP3   OH235734   0.404   3.764  13.740 -0.5089 -0.1755  0.2268
 4748TIP3    H135735   0.320   3.803  13.717 -0.7091 -0.2226  0.8662
 4748TIP3    H235736   0.421   3.701  13.670 -0.6640  0.3463 -0.2776
 4749TIP3   OH235737   2.519   5.134   3.237 -0.0503 -0.5450 -0.0725
 4749TIP3    H135738   2.527   5.229   3.250 -0.3284 -0.7683  1.8587
 4749TIP3    H235739   2.427   5.116   3.255  0.1540 -1.2793  0.2290
 4750TIP3   OH235740   2.908   0.861  11.543  0.1124  0.2737 -0.7160
 4750TIP3    H135741   2.909   0.943  11.592 -1.5375 -0.7221  1.0533
 4750TIP3    H235742   2.965   0.877  11.468  0.4700  2.7525  0.0479
 4751TIP3   OH235743   3.083   5.406   2.276  0.1528 -0.4003  0.1819
 4751TIP3    H135744   3.166   5.447   2.253 -0.3818  0.6130  0.0141
 4751TIP3    H235745   3.106   5.341   2.342  0.8939  0.8759  1.2080
 4752TIP3   OH235746   0.613   1.501   2.442 -0.2040  0.0386  1.0953
 4752TIP3    H135747   0.517   1.497   2.434 -0.2247 -0.2511  1.4585
 4752TIP3    H235748   0.637   1.580   2.395 -0.4032 -1.0433 -0.8733
 4753TIP3   OH235749   0.294   2.827  15.525 -0.2812  0.4042 -0.1117
 4753TIP3    H135750   0.269   2.918  15.511 -2.1633 -0.1444 -0.4046
 4753TIP3    H235751   0.385   2.832  15.557 -1.1760  2.5022  2.2704
 4754TIP3   OH235752   2.256   1.644   2.205 -0.0708 -0.5142  0.8646
 4754TIP3    H135753   2.186   1.579   2.197  0.1215 -0.5122 -1.0579
 4754TIP3    H235754   2.335   1.598   2.176  0.3014  0.2006  0.7288
 4755TIP3   OH235755   0.256   6.271   5.226  0.4993 -0.7386  0.2135
 4755TIP3    H135756   0.176   6.311   5.191  1.5710  0.8705 -0.4590
 4755TIP3    H235757   0.288   6.335   5.290  0.4351 -2.0807  1.6136
 4756TIP3   OH235758   6.426   0.693  13.807  0.5387  0.3643  0.3182
 4756TIP3    H135759   6.356   0.638  13.773  0.3395  0.1501  1.0825
 4756TIP3    H235760   6.434   0.764  13.742 -1.7281  1.4936  1.2295
 4757TIP3   OH235761   1.818   0.559  16.854 -0.5235  0.1573  0.3662
 4757TIP3    H135762   1.884   0.575  16.923  0.0919  0.7047 -0.3368
 4757TIP3    H235763   1.739   0.602  16.887 -0.5855 -0.6374  1.2954
 4758TIP3   OH235764   6.764   3.108  15.670 -0.3605  1.2137  0.8383
 4758TIP3    H135765   6.759   3.200  15.696  0.5352  1.3012  0.7126
 4758TIP3    H235766   6.805   3.064  15.744 -0.3764  0.9897  0.7158
 4759TIP3   OH235767   1.068   2.591  11.042 -0.1390 -0.2157 -0.1497
 4759TIP3    H135768   1.028   2.575  11.128  0.0828 -0.4633 -0.0916
 4759TIP3    H235769   1.014   2.540  10.981  1.9621 -3.1142  0.3331
 4760TIP3   OH235770   5.490   1.060  15.376  0.3976 -0.1883 -0.1950
 4760TIP3    H135771   5.524   1.042  15.288 -0.3589  1.8672 -0.9403
 4760TIP3    H235772   5.404   1.099  15.361  0.0417 -0.2843  1.4926
 4761TIP3   OH235773   3.805   4.150  10.491 -0.6448  0.1297 -0.2273
 4761TIP3    H135774   3.770   4.071  10.531 -0.2153  0.3187  0.5303
 4761TIP3    H235775   3.886   4.169  10.540 -0.6132  0.8942 -0.5554
 4762TIP3   OH235776   2.717   5.657   3.749 -0.1403  0.0554  0.1126
 4762TIP3    H135777   2.678   5.576   3.715 -0.2490  0.2826 -0.3183
 4762TIP3    H235778   2.729   5.711   3.671 -0.4135  0.5966  0.4429
 4763TIP3   OH235779   0.530   2.568  14.702  0.5746 -0.3324 -0.2588
 4763TIP3    H135780   0.505   2.502  14.637 -0.3657 -0.5615  0.3159
 4763TIP3    H235781   0.460   2.564  14.767 -0.5462  2.6224 -1.2285
 4764TIP3   OH235782   4.322   6.318  15.287  0.2269 -0.1115 -0.0743
 4764TIP3    H135783   4.234   6.293  15.258  0.7294 -0.8549 -0.9806
 4764TIP3    H235784   4.379   6.294  15.214  1.3467 -0.8555  1.0259
 4765TIP3   OH235785   6.343   0.119  16.384  0.7306 -0.5296 -0.2945
 4765TIP3    H135786   6.359   0.208  16.416 -0.4080 -0.4542  0.0837
 4765TIP3    H235787   6.302   0.074  16.457  3.3109 -2.0357  0.2754
 4766TIP3   OH235788   4.587   6.188  14.184  0.4004 -0.4108 -0.0155
 4766TIP3    H135789   4.644   6.203  14.108 -1.6175  2.2850 -1.0791
 4766TIP3    H235790   4.499   6.191  14.149 -0.5032 -1.7601  2.0557
 4767TIP3   OH235791   6.269   5.399  12.715  0.0828  0.5859 -0.3748
 4767TIP3    H135792   6.177   5.374  12.701 -0.0531  1.0502 -0.3186
 4767TIP3    H235793   6.318   5.342  12.657 -0.0773 -1.1946  1.1971
 4768TIP3   OH235794   1.616   3.830  13.563 -0.6463 -0.3785  0.3978
 4768TIP3    H135795   1.618   3.747  13.514  1.6997  0.4050 -0.9056
 4768TIP3    H235796   1.696   3.829  13.615 -0.0737  1.5138 -0.4159
 4769TIP3   OH235797   6.020   2.729  14.749 -0.5402  0.1341  0.6713
 4769TIP3    H135798   5.954   2.714  14.681  1.1250  0.9748 -1.2101
 4769TIP3    H235799   6.031   2.645  14.792 -1.0319 -0.6270 -0.6738
 4770TIP3   OH235800   3.198   3.402   1.456 -0.2258 -0.1271 -0.0019
 4770TIP3    H135801   3.261   3.330   1.452 -1.7201 -1.3667 -1.8840
 4770TIP3    H235802   3.226   3.464   1.389 -0.0095  0.1628  0.3536
 4771TIP3   OH235803   6.726   5.532   4.201 -0.4011 -0.1714 -0.0978
 4771TIP3    H135804   6.685   5.462   4.253 -1.7521  1.3089  0.9114
 4771TIP3    H235805   6.816   5.502   4.187 -0.4714 -1.3621  1.7352
 4772TIP3   OH235806   5.719   0.488  16.459  0.8270 -0.1539  0.6617
 4772TIP3    H135807   5.769   0.555  16.507  0.8368 -0.2933  0.8483
 4772TIP3    H235808   5.655   0.538  16.408  1.8362  0.0822 -0.3834
 4773TIP3   OH235809   2.301   1.419   2.378 -0.5694 -0.4215  0.2500
 4773TIP3    H135810   2.270   1.506   2.402 -1.0328 -0.9251  1.5808
 4773TIP3    H235811   2.287   1.366   2.458 -0.2685 -1.6925 -0.5196
 4774TIP3   OH235812   3.407   3.601  12.537 -0.2828  0.6767 -0.0788
 4774TIP3    H135813   3.381   3.609  12.445  1.7289  0.1138 -0.7058
 4774TIP3    H235814   3.479   3.539  12.537 -1.9370 -1.3651  2.2267
 4775TIP3   OH235815   5.854   5.655   3.815  0.0696  0.0212 -0.9135
 4775TIP3    H135816   5.890   5.659   3.727 -0.8027 -1.9917 -1.3897
 4775TIP3    H235817   5.768   5.698   3.808  0.5036  0.9245 -0.7618
 4776TIP3   OH235818   0.616   1.898  12.047  0.8060  0.6647 -0.5686
 4776TIP3    H135819   0.571   1.978  12.071  0.0752  0.4036 -1.0451
 4776TIP3    H235820   0.709   1.919  12.054  0.6615  0.5572  2.6112
 4777TIP3   OH235821   3.958   2.007  12.885 -0.2143  0.0528  0.4577
 4777TIP3    H135822   3.890   2.014  12.952 -1.7732 -2.2300 -0.8283
 4777TIP3    H235823   4.009   1.930  12.911 -1.9625 -1.9721 -1.9430
 4778TIP3   OH235824   3.856   6.261   6.124 -0.1934 -0.1118 -0.7759
 4778TIP3    H135825   3.945   6.229   6.136 -0.1630 -0.2464 -1.3165
 4778TIP3    H235826   3.810   6.238   6.204  0.2116 -0.2051 -0.5725
 4779TIP3   OH235827   0.657   4.403  15.738 -0.8130  0.3580  0.8789
 4779TIP3    H135828   0.571   4.380  15.702 -0.4675 -1.1982  1.0255
 4779TIP3    H235829   0.701   4.319  15.751  0.7820  1.1488  0.7052
 4780TIP3   OH235830   3.349   1.571  14.999 -0.3665  0.2668  0.1173
 4780TIP3    H135831   3.392   1.486  14.997 -1.4477 -0.2705 -0.9748
 4780TIP3    H235832   3.255   1.551  14.998 -0.6570  1.4230  1.9463
 4781TIP3   OH235833   1.995   3.304  16.574  0.0953  0.1907  0.1921
 4781TIP3    H135834   1.930   3.339  16.514 -0.0850 -0.4026  0.0328
 4781TIP3    H235835   2.029   3.226  16.529  0.6944  0.3243  0.4057
 4782TIP3   OH235836   4.834   4.527  16.366 -0.0749  0.8488  0.2218
 4782TIP3    H135837   4.832   4.435  16.393 -1.7733  0.1133 -2.1144
 4782TIP3    H235838   4.806   4.524  16.274  0.1932  3.6732  0.0249
 4783TIP3   OH235839   6.240   5.424  16.650 -0.5815 -0.0459  0.5370
 4783TIP3    H135840   6.148   5.404  16.668 -0.3640 -0.7301  0.8913
 4783TIP3    H235841   6.237   5.502  16.594 -1.4341 -1.3455 -1.2710
 4784TIP3   OH235842   6.209   1.547  15.791 -0.2695 -0.1524  0.1288
 4784TIP3    H135843   6.177   1.522  15.704 -0.5319  0.0473  0.1657
 4784TIP3    H235844   6.180   1.638  15.801  0.7319  0.1961 -0.0411
 4785TIP3   OH235845   5.065   4.490  15.426 -0.0270  0.6597  0.2949
 4785TIP3    H135846   4.990   4.532  15.468  0.3885  1.0271  0.6921
 4785TIP3    H235847   5.089   4.419  15.486  0.3965  1.0116  0.5514
 4786TIP3   OH235848   2.640   0.707  14.406 -0.5157 -0.1252 -0.3139
 4786TIP3    H135849   2.560   0.757  14.389 -1.9844 -1.9032  1.1927
 4786TIP3    H235850   2.624   0.663  14.489  1.6074 -1.3882 -0.5355
 4787TIP3   OH235851   6.817   4.251   7.028  0.3617  0.1401  0.2061
 4787TIP3    H135852   6.897   4.263   7.079  0.9810 -0.2727 -0.6527
 4787TIP3    H235853   6.840   4.187   6.962 -1.0007 -0.8145  0.6215
 4788TIP3   OH235854   6.018   3.418   0.180 -0.0595  0.2359  0.2298
 4788TIP3    H135855   6.097   3.456   0.141  0.1230 -2.0699 -1.7760
 4788TIP3    H235856   5.946   3.457   0.130 -0.1078  0.8742  0.7834
 4789TIP3   OH235857   0.026   4.620  11.722  0.5553 -0.2803  0.2889
 4789TIP3    H135858   0.081   4.688  11.760  0.9082 -1.1729  1.4136
 4789TIP3    H235859  -0.031   4.592  11.794 -0.1547 -0.5993 -0.3863
 4790TIP3   OH235860   2.165   5.140   0.207 -0.6530  0.1421 -0.2196
 4790TIP3    H135861   2.184   5.125   0.115  1.0062 -0.0354  0.1377
 4790TIP3    H235862   2.164   5.052   0.246  1.0851  0.3596  0.3704
 4791TIP3   OH235863   6.014   2.520   4.458  0.0961 -0.0504  0.2943
 4791TIP3    H135864   6.037   2.428   4.445 -1.8346 -0.7944  1.8682
 4791TIP3    H235865   5.928   2.517   4.499  0.3894  2.4647  1.1506
 4792TIP3   OH235866   4.459   1.519  14.031  0.1194 -0.1173 -0.4504
 4792TIP3    H135867   4.489   1.609  14.046  1.6515 -0.4849 -1.1960
 4792TIP3    H235868   4.517   1.485  13.963 -0.2652 -1.7597  0.0068
 4793TIP3   OH235869   1.728   3.550  12.870  0.5337  0.2047  0.6848
 4793TIP3    H135870   1.796   3.609  12.838  1.4984 -0.6881  1.0976
 4793TIP3    H235871   1.775   3.475  12.906 -0.6831 -0.8874  0.0483
 4794TIP3   OH235872   5.771   3.294   4.577  0.4410  0.4169  0.4902
 4794TIP3    H135873   5.837   3.315   4.512  0.5717 -0.6432  0.2865
 4794TIP3    H235874   5.690   3.333   4.542  0.7715  0.9827  0.3425
 4795TIP3   OH235875   0.247   1.672  15.046 -0.0823  0.1546  0.1356
 4795TIP3    H135876   0.228   1.751  15.097  0.2706  0.2702  0.0828
 4795TIP3    H235877   0.161   1.641  15.017 -0.2294  0.4450  0.2664
 4796TIP3   OH235878   6.056   4.643   0.655 -0.4302  0.4576 -0.3345
 4796TIP3    H135879   6.121   4.642   0.585 -1.0056 -0.8282 -0.8707
 4796TIP3    H235880   6.018   4.731   0.651 -0.3939  0.4293 -1.5937
 4797TIP3   OH235881   4.314   4.546   4.529  0.1806  0.3116  0.2439
 4797TIP3    H135882   4.410   4.536   4.531  0.0227 -1.1622  1.3036
 4797TIP3    H235883   4.296   4.615   4.594  0.6195  1.6203 -0.9978
 4798TIP3   OH235884   5.873   0.052  11.181 -0.2250 -0.1009  0.4934
 4798TIP3    H135885   5.815   0.029  11.108  2.2905  1.2960 -2.0568
 4798TIP3    H235886   5.865   0.147  11.188 -0.1999 -0.1973  1.8455
 4799TIP3   OH235887   0.166   6.141  13.119  0.1705 -0.0081  0.3802
 4799TIP3    H135888   0.174   6.079  13.192  2.6795  0.4312  0.5429
 4799TIP3    H235889   0.244   6.124  13.066 -0.1916  1.5980 -0.6762
 4800TIP3   OH235890   1.776   6.542  12.176 -0.7207  0.3218  0.5506
 4800TIP3    H135891   1.789   6.447  12.182  0.1674  0.4726  1.2626
 4800TIP3    H235892   1.743   6.557  12.088 -2.9700 -0.8717  1.1582
 4801TIP3   OH235893   4.936   3.285  15.770 -0.7936  0.2081  0.2011
 4801TIP3    H135894   4.920   3.192  15.759 -0.3530  0.0705  0.6963
 4801TIP3    H235895   4.889   3.327  15.698  0.2130 -0.5128 -0.8947
 4802TIP3   OH235896   5.124   1.442   1.868 -0.5533 -0.1037  0.1453
 4802TIP3    H135897   5.062   1.508   1.836 -0.0120  0.2886 -0.1038
 4802TIP3    H235898   5.069   1.367   1.890 -0.7954 -1.1486 -3.6780
 4803TIP3   OH235899   5.091   5.761  15.697  0.7612 -0.3029  0.0879
 4803TIP3    H135900   5.017   5.815  15.670  0.5577 -1.1218 -1.0223
 4803TIP3    H235901   5.142   5.747  15.617  0.2950 -2.5429  0.1417
 4804TIP3   OH235902   2.760   0.158  12.089  0.5958  0.0480  0.5036
 4804TIP3    H135903   2.707   0.107  12.151  1.8141 -3.2632 -1.0177
 4804TIP3    H235904   2.707   0.159  12.009  0.9391  0.5192  0.2822
 4805TIP3   OH235905   2.124   5.400  15.332  0.0197  0.0903 -0.7083
 4805TIP3    H135906   2.085   5.483  15.302  0.8442 -0.0981 -2.3311
 4805TIP3    H235907   2.108   5.339  15.260  2.0560 -0.3687 -0.8021
 4806TIP3   OH235908   4.074   6.556   2.793  0.0292 -0.3127 -0.5522
 4806TIP3    H135909   4.162   6.527   2.766  0.5869 -2.2326  2.9449
 4806TIP3    H235910   4.042   6.484   2.848 -2.7358  1.4441  0.1875
 4807TIP3   OH235911   2.101   0.991   4.096  0.5343 -0.0709  0.0550
 4807TIP3    H135912   2.157   0.986   4.019 -1.1963  0.2137 -1.2516
 4807TIP3    H235913   2.126   1.072   4.140  0.5019  0.5253 -1.0262
 4808TIP3   OH235914   1.327   4.116  11.527 -0.0696  0.2241  0.3675
 4808TIP3    H135915   1.292   4.069  11.451  2.3966 -3.3417  1.3381
 4808TIP3    H235916   1.285   4.074  11.602 -1.5556  2.9257  1.1034
 4809TIP3   OH235917   2.120   4.501   2.942 -0.2224  0.6874  0.3264
 4809TIP3    H135918   2.084   4.459   3.019 -0.8059 -1.7555 -1.2380
 4809TIP3    H235919   2.214   4.482   2.946 -0.5268 -1.0709 -0.5318
 4810TIP3   OH235920   2.844   5.210   2.402  0.1721 -0.0778  0.2481
 4810TIP3    H135921   2.926   5.233   2.446  0.8388 -0.4562 -0.7563
 4810TIP3    H235922   2.861   5.124   2.363 -0.3572  0.2772 -0.7997
 4811TIP3   OH235923   0.779   0.847   1.328 -0.7358  0.3880 -0.2503
 4811TIP3    H135924   0.696   0.807   1.302 -1.1275  1.4974 -0.7891
 4811TIP3    H235925   0.763   0.881   1.416 -0.0941 -1.4617  0.6094
 4812TIP3   OH235926   5.905   0.380   3.327  0.1246 -0.1740  0.2128
 4812TIP3    H135927   5.840   0.446   3.304 -0.3745 -0.0222  2.0193
 4812TIP3    H235928   5.989   0.421   3.307 -0.2326  0.5668  0.2281
 4813TIP3   OH235929   6.015   0.494  12.292 -0.4022 -0.1694  0.7743
 4813TIP3    H135930   6.023   0.420  12.352  0.8450 -0.7701 -0.1214
 4813TIP3    H235931   6.038   0.459  12.206  0.3567  1.2853  0.3623
 4814TIP3   OH235932   0.393   0.999   6.232 -0.4491 -0.4904 -0.3429
 4814TIP3    H135933   0.437   0.988   6.316  0.2475 -1.2532 -0.8119
 4814TIP3    H235934   0.300   1.010   6.255 -0.0410  1.1313  0.6427
 4815TIP3   OH235935   5.487   2.237  11.178 -0.0136  0.3519  0.2999
 4815TIP3    H135936   5.496   2.217  11.085 -1.1402 -2.0249  0.6882
 4815TIP3    H235937   5.395   2.260  11.190 -0.0060  0.0826  0.9291
 4816TIP3   OH235938   2.585   3.175  12.541 -0.3223 -0.1492 -0.5473
 4816TIP3    H135939   2.498   3.150  12.572 -0.5550  1.6943  0.3569
 4816TIP3    H235940   2.644   3.155  12.613 -0.6123  2.4803  0.4634
 4817TIP3   OH235941   2.990   6.209  14.299 -0.0529  0.3907  0.2371
 4817TIP3    H135942   2.964   6.280  14.241  0.5500  0.2687 -0.1809
 4817TIP3    H235943   3.053   6.248  14.359 -0.3249  0.4007  0.5221
 4818TIP3   OH235944   5.494   1.616   1.923 -0.0458  0.0189 -0.0565
 4818TIP3    H135945   5.553   1.675   1.970 -0.8886  1.2820 -0.5616
 4818TIP3    H235946   5.453   1.671   1.857 -0.3921 -1.2848 -0.9408
 4819TIP3   OH235947   6.232   5.123  14.001 -0.3679  0.3647 -0.7038
 4819TIP3    H135948   6.253   5.172  13.922  2.9892 -0.2460 -0.2666
 4819TIP3    H235949   6.313   5.126  14.054 -1.3173 -2.3319  1.0443
 4820TIP3   OH235950   3.338   2.366  13.256  0.2949  0.3703  0.5808
 4820TIP3    H135951   3.373   2.425  13.190 -2.1246 -0.0757 -1.1520
 4820TIP3    H235952   3.243   2.378  13.253 -0.0207 -1.2584  2.4523
 4821TIP3   OH235953   2.314   6.420  12.279 -0.1543 -0.1105 -0.3156
 4821TIP3    H135954   2.219   6.432  12.279 -0.3100 -1.2422 -1.7317
 4821TIP3    H235955   2.332   6.372  12.360 -0.8337 -0.1973 -0.2153
 4822TIP3   OH235956   4.777   1.313   3.889 -0.1709 -0.3547  0.6567
 4822TIP3    H135957   4.683   1.303   3.906 -0.0683  0.6287  1.8942
 4822TIP3    H235958   4.809   1.363   3.964  1.0929  0.5297 -0.4727
 4823TIP3   OH235959   4.113   6.261  12.646  0.4416 -0.8308 -0.2736
 4823TIP3    H135960   4.198   6.260  12.688 -0.6743 -1.4012  2.0447
 4823TIP3    H235961   4.100   6.353  12.620  0.7009 -0.2443  1.6147
 4824TIP3   OH235962   0.135   5.609   4.746 -0.4735  0.2239 -0.1827
 4824TIP3    H135963   0.218   5.561   4.754  1.1263  2.9195 -0.0702
 4824TIP3    H235964   0.134   5.640   4.655 -1.1938  0.5158 -0.0762
 4825TIP3   OH235965   3.177   2.990   1.362 -0.6284  0.0165  0.2124
 4825TIP3    H135966   3.217   3.066   1.405 -1.1110  0.7103 -0.5427
 4825TIP3    H235967   3.227   2.915   1.395  0.4214  0.7379  0.3022
 4826TIP3   OH235968   1.685   1.352   2.623  0.2067 -0.3770  0.2312
 4826TIP3    H135969   1.616   1.392   2.570 -0.9198 -0.3863  1.6655
 4826TIP3    H235970   1.765   1.398   2.597 -0.7858  1.5746  0.5340
 4827TIP3   OH235971   0.879   2.387   1.377  0.0749  0.3962  0.6118
 4827TIP3    H135972   0.927   2.393   1.460 -1.3408  3.1077  1.3021
 4827TIP3    H235973   0.940   2.422   1.312  1.1313 -1.5898  0.4810
 4828TIP3   OH235974   1.186   3.979  14.088  0.4372 -0.2744 -0.1616
 4828TIP3    H135975   1.099   4.002  14.122  0.8608  1.8747 -0.4404
 4828TIP3    H235976   1.181   3.885  14.071 -1.1686 -0.5650  1.7627
 4829TIP3   OH235977   0.182   3.858   4.198 -0.0187  0.0503 -0.2668
 4829TIP3    H135978   0.172   3.951   4.221 -2.2867 -0.5465  1.3527
 4829TIP3    H235979   0.215   3.817   4.278 -0.3322 -0.7447 -0.5367
 4830TIP3   OH235980   6.803   3.639   1.567 -0.3929  0.2034 -0.2584
 4830TIP3    H135981   6.870   3.706   1.585  1.1847 -1.9195  2.0414
 4830TIP3    H235982   6.845   3.578   1.507 -1.0609  0.0425 -0.5692
 4831TIP3   OH235983   0.686   0.568   2.197 -0.7893  0.1833  0.6895
 4831TIP3    H135984   0.742   0.491   2.197 -0.6935  0.2375  2.5462
 4831TIP3    H235985   0.649   0.571   2.108 -0.0099 -1.4095  0.2981
 4832TIP3   OH235986   6.392   1.007  16.838  0.0254 -0.1812 -0.0998
 4832TIP3    H135987   6.329   1.044  16.775  0.0937  0.3048  0.1182
 4832TIP3    H235988   6.392   0.913  16.818 -0.1690 -0.0718 -0.6370
 4833TIP3   OH235989   0.010   0.036   1.959 -0.6212 -0.0808 -0.5324
 4833TIP3    H135990   0.056   0.118   1.978 -0.8607  0.7609 -3.3502
 4833TIP3    H235991  -0.074   0.064   1.924 -0.2862 -1.4965 -2.5265
 4834TIP3   OH235992   4.694   2.886  12.994  0.1567 -0.5104 -0.3543
 4834TIP3    H135993   4.760   2.830  13.035 -0.0417  0.7109  1.7198
 4834TIP3    H235994   4.703   2.870  12.900  2.7406 -1.0692 -0.0328
 4835TIP3   OH235995   0.002   0.667   5.399  0.1414 -0.1226  0.0937
 4835TIP3    H135996  -0.022   0.697   5.312  0.1978  0.0842  0.1481
 4835TIP3    H235997   0.020   0.747   5.448  0.6220 -0.2602  0.1462
 4836TIP3   OH235998   6.362   3.688  12.351  0.1143 -0.2746 -0.8482
 4836TIP3    H135999   6.387   3.711  12.440  0.8649 -2.0781 -0.5584
 4836TIP3    H236000   6.418   3.742  12.296 -0.1902  0.6777 -0.2245
 4837TIP3   OH236001   3.530   5.830  11.798  0.3726 -0.1691 -0.2503
 4837TIP3    H136002   3.598   5.850  11.862  1.3183 -1.0736 -0.9623
 4837TIP3    H236003   3.461   5.895  11.816  1.2952  0.5866  0.6472
 4838TIP3   OH236004   0.494   4.334  16.014 -0.1245 -0.4496  0.1742
 4838TIP3    H136005   0.449   4.394  16.073  1.6046  1.2906 -0.2555
 4838TIP3    H236006   0.581   4.371  16.003  0.8651 -2.8464 -0.3908
 4839TIP3   OH236007   2.019   1.736   1.011 -0.1330 -0.3772  0.0508
 4839TIP3    H136008   2.031   1.642   1.023  1.0826 -0.0615  1.4064
 4839TIP3    H236009   1.925   1.750   1.026  0.0587 -1.0751  2.0059
 4840TIP3   OH236010   6.546   4.518   4.454 -0.1445 -0.0954 -0.3948
 4840TIP3    H136011   6.480   4.532   4.522  2.4638 -0.7821  2.3892
 4840TIP3    H236012   6.507   4.556   4.375 -3.2800  0.7255  1.4468
 4841TIP3   OH236013   0.853   2.276   3.577  0.2034  0.1705  0.0162
 4841TIP3    H136014   0.758   2.283   3.590  0.2729  0.6824  0.2314
 4841TIP3    H236015   0.866   2.185   3.549 -0.4181  0.2587 -0.5805
 4842TIP3   OH236016   3.878   2.889  15.621  0.4887 -0.5653 -0.5002
 4842TIP3    H136017   3.813   2.880  15.551 -0.4837 -3.7586  0.7179
 4842TIP3    H236018   3.857   2.972  15.663 -0.6920  0.0267 -2.2104
 4843TIP3   OH236019   0.732   4.106  10.461 -0.1816 -0.3845 -0.3289
 4843TIP3    H136020   0.771   4.182  10.505  0.0014 -1.1838  0.9344
 4843TIP3    H236021   0.801   4.040  10.462 -1.7351 -2.1226  2.7063
 4844TIP3   OH236022   5.147   0.245   5.166 -0.1421  0.2092 -0.3474
 4844TIP3    H136023   5.070   0.300   5.176 -0.5066 -0.5565  1.0597
 4844TIP3    H236024   5.207   0.273   5.236 -0.3348 -1.1757  0.3877
 4845TIP3   OH236025   1.064   0.412   3.588 -0.4354 -0.1812  1.2682
 4845TIP3    H136026   1.030   0.493   3.626 -0.5293 -0.5117  1.9034
 4845TIP3    H236027   1.097   0.437   3.502 -0.3368  0.5570  1.5208
 4846TIP3   OH236028   6.281   6.152  13.334  0.0402 -1.1310 -0.1854
 4846TIP3    H136029   6.215   6.089  13.363 -0.1846 -1.3556 -1.1812
 4846TIP3    H236030   6.364   6.107  13.347 -0.1195 -1.6482 -0.8909
 4847TIP3   OH236031   3.955   5.591   1.101  0.3975  0.2605  0.0274
 4847TIP3    H136032   4.043   5.622   1.079  0.5953  0.4387  1.0332
 4847TIP3    H236033   3.968   5.539   1.180 -0.2051 -0.8666 -0.6178
 4848TIP3   OH236034   3.528   4.427   2.590 -0.1479 -0.5960  0.0111
 4848TIP3    H136035   3.506   4.492   2.524 -0.4299  1.1571  1.7675
 4848TIP3    H236036   3.516   4.343   2.546 -0.7896  0.5107 -2.0034
 4849TIP3   OH236037   5.580   3.287   6.104  0.4367 -0.3111  0.4823
 4849TIP3    H136038   5.589   3.316   6.013  0.9262 -2.0643 -0.0504
 4849TIP3    H236039   5.561   3.193   6.098 -2.0190  0.0035  2.1211
 4850TIP3   OH236040   3.484   4.793  10.411 -0.3061  0.2090 -0.6201
 4850TIP3    H136041   3.517   4.835  10.491  0.1347 -0.7288 -0.3066
 4850TIP3    H236042   3.465   4.866  10.352  0.5746  0.8406 -0.1297
 4851TIP3   OH236043   1.726   2.197  13.487  0.3741 -0.1372  0.3655
 4851TIP3    H136044   1.729   2.212  13.582  2.2321  0.2606  0.2760
 4851TIP3    H236045   1.782   2.120  13.474  0.7801  0.2886 -0.4788
 4852TIP3   OH236046   5.126   4.370   2.369 -0.0169  0.0627  0.5226
 4852TIP3    H136047   5.182   4.443   2.344  0.0315 -0.1336  0.0590
 4852TIP3    H236048   5.075   4.350   2.291  1.4353 -1.7301 -0.0140
 4853TIP3   OH236049   1.997   4.727  15.731  0.0913 -0.0054 -0.1441
 4853TIP3    H136050   1.966   4.706  15.643  0.2224 -1.0236  0.0477
 4853TIP3    H236051   1.973   4.819  15.743  0.2490  0.2018 -1.3154
 4854TIP3   OH236052   3.228   6.030  12.571 -0.3676 -0.1364  0.2773
 4854TIP3    H136053   3.285   6.106  12.563 -1.4754  0.7455  0.6074
 4854TIP3    H236054   3.266   5.965  12.511  0.6865  0.6091  0.1304
 4855TIP3   OH236055   4.629   6.530   2.828 -0.0780 -0.4106 -0.4706
 4855TIP3    H136056   4.700   6.475   2.860  0.8203  0.1559 -1.4935
 4855TIP3    H236057   4.669   6.615   2.811 -1.1686  0.1685 -0.2478
 4856TIP3   OH236058   3.812   4.364   1.926 -1.0025  0.5455  0.5814
 4856TIP3    H136059   3.832   4.271   1.925  0.9392  0.9248  1.4283
 4856TIP3    H236060   3.762   4.378   2.006 -0.5970  0.3505  0.8707
 4857TIP3   OH236061   2.105   0.840  17.216 -0.2320  0.3649  0.0480
 4857TIP3    H136062   2.199   0.844  17.230  0.1204  2.1647 -2.5494
 4857TIP3    H236063   2.080   0.929  17.191 -2.5925 -0.1368  0.4241
 4858TIP3   OH236064   0.995   1.113   0.972 -0.5154  0.6363 -0.3189
 4858TIP3    H136065   1.050   1.037   0.993  1.2505  1.2967 -2.4116
 4858TIP3    H236066   1.041   1.187   1.012 -1.1352  0.8912 -0.0668
 4859TIP3   OH236067   4.900   5.759   1.898 -0.2370  0.2360  0.2239
 4859TIP3    H136068   4.881   5.741   1.806  1.4545 -0.0264 -0.0769
 4859TIP3    H236069   4.902   5.674   1.940 -0.0077  0.2828  0.3087
 4860TIP3   OH236070   5.759   3.694   6.284  0.7042  0.4812  0.2931
 4860TIP3    H136071   5.710   3.615   6.262  1.3296 -0.0080  0.6683
 4860TIP3    H236072   5.691   3.760   6.299  0.1659 -0.1153  0.5127
 4861TIP3   OH236073   0.586   4.516   2.106 -0.6077 -0.2009 -0.3779
 4861TIP3    H136074   0.637   4.543   2.029  1.6510 -0.6712  0.9108
 4861TIP3    H236075   0.547   4.597   2.138 -2.8527 -0.2426 -2.9066
 4862TIP3   OH236076   4.585   5.823   5.673 -0.2785 -0.1769  0.3856
 4862TIP3    H136077   4.594   5.905   5.721  1.9744 -0.5431  0.6534
 4862TIP3    H236078   4.566   5.758   5.741  2.0464 -0.5473  0.7207
 4863TIP3   OH236079   6.349   1.744   5.346  0.6787 -0.1825  0.1736
 4863TIP3    H136080   6.378   1.750   5.255 -1.3453 -1.2488 -0.5572
 4863TIP3    H236081   6.254   1.754   5.343  0.4888 -1.0464  2.0753
 4864TIP3   OH236082   1.499   3.586   4.459 -0.0919 -0.2275 -0.3514
 4864TIP3    H136083   1.435   3.565   4.391 -0.3463 -0.0178 -0.1784
 4864TIP3    H236084   1.539   3.501   4.481 -2.2244 -0.8176  1.4502
 4865TIP3   OH236085   3.247   1.913   6.121 -0.5390  0.0420  0.2386
 4865TIP3    H136086   3.284   1.928   6.208 -1.1288 -1.0341  0.6903
 4865TIP3    H236087   3.204   1.996   6.099 -1.5470 -0.0848  1.5697
 4866TIP3   OH236088   3.641   4.514   1.347  0.3984 -0.5450  0.0344
 4866TIP3    H136089   3.647   4.526   1.252 -0.4381  0.0697  0.0588
 4866TIP3    H236090   3.651   4.420   1.360  3.1456 -0.3660 -0.4640
 4867TIP3   OH236091   6.670   3.180   0.917  0.2107 -0.6287 -0.3658
 4867TIP3    H136092   6.606   3.136   0.973  0.5628  0.0943  0.6144
 4867TIP3    H236093   6.617   3.217   0.845 -0.4229 -0.3551  0.2376
 4868TIP3   OH236094   0.883   2.974  17.257 -0.3734 -0.0443 -0.2238
 4868TIP3    H136095   0.821   2.907  17.286 -1.1554  0.5208 -0.5815
 4868TIP3    H236096   0.828   3.045  17.224  0.4536  0.8164  0.2342
 4869TIP3   OH236097   6.224   5.513  14.338 -0.4988  0.4470 -0.1028
 4869TIP3    H136098   6.282   5.486  14.268 -0.1349  0.7126  0.0974
 4869TIP3    H236099   6.280   5.521  14.415 -1.2295 -1.8893  0.7331
 4870TIP3   OH236100   1.212   3.835   4.201 -0.5163 -0.0591  0.0157
 4870TIP3    H136101   1.143   3.868   4.258  1.2587  4.9153 -0.4802
 4870TIP3    H236102   1.171   3.828   4.115 -1.1500  0.0832  0.3055
 4871TIP3   OH236103   6.576   2.152  11.862  0.2103  0.1252 -0.2576
 4871TIP3    H136104   6.634   2.227  11.851  0.8710 -0.4274 -0.5338
 4871TIP3    H236105   6.501   2.172  11.806  0.6988  0.2586 -0.8736
 4872TIP3   OH236106   5.740   6.398   2.521 -0.4615 -0.1736  0.0901
 4872TIP3    H136107   5.809   6.337   2.497 -0.3180 -0.3072  0.8387
 4872TIP3    H236108   5.679   6.346   2.574 -0.7029  0.1554  0.1363
 4873TIP3   OH236109   5.652   1.089  15.744 -0.1102 -0.1392  0.0344
 4873TIP3    H136110   5.655   1.088  15.648  0.3704 -3.0059  0.0432
 4873TIP3    H236111   5.565   1.123  15.765  0.3875  2.1310 -1.3620
 4874TIP3   OH236112   3.561   5.049   4.407  0.0135 -0.0621 -0.1309
 4874TIP3    H136113   3.642   5.068   4.360  1.5145 -0.5482  2.1799
 4874TIP3    H236114   3.584   4.975   4.464 -2.1711 -0.4542  0.2753
 4875TIP3   OH236115   4.674   2.278  17.246  0.3861 -0.1771 -0.0587
 4875TIP3    H136116   4.683   2.353  17.187 -1.2572 -1.1945 -1.6727
 4875TIP3    H236117   4.673   2.202  17.188 -0.6004 -1.2414  1.3201
 4876TIP3   OH236118   1.912   3.618  15.469  0.2345  0.0294 -0.4093
 4876TIP3    H136119   1.846   3.647  15.532  0.8960  0.9641 -0.1338
 4876TIP3    H236120   1.982   3.682  15.476  0.2348  0.2737 -2.2469
 4877TIP3   OH236121   0.716   5.490   1.005 -0.8638 -0.6183 -0.3283
 4877TIP3    H136122   0.690   5.411   1.052  1.2782  0.0200  2.0881
 4877TIP3    H236123   0.682   5.562   1.059  0.4019  0.1233 -0.4895
 4878TIP3   OH236124   4.781   1.760   2.799 -0.9006  0.4213  0.4028
 4878TIP3    H136125   4.729   1.699   2.746 -0.2016 -1.1870  1.4900
 4878TIP3    H236126   4.866   1.763   2.755  0.1542 -2.0397  2.1313
 4879TIP3   OH236127   4.074   1.386  11.600 -0.4576 -0.1320  0.5896
 4879TIP3    H136128   4.098   1.296  11.576  1.0489  0.4644 -0.2574
 4879TIP3    H236129   4.023   1.418  11.525  0.5090  0.2836  0.0950
 4880TIP3   OH236130   1.628   2.346  15.405 -0.4998  0.1100 -0.4641
 4880TIP3    H136131   1.630   2.255  15.375 -1.3458 -0.1237  0.1597
 4880TIP3    H236132   1.719   2.366  15.429 -0.0981 -0.1942 -1.6902
 4881TIP3   OH236133   2.227   6.295   4.006 -0.1603 -0.2633 -0.9771
 4881TIP3    H136134   2.213   6.267   4.097  0.2082  1.3719 -0.3984
 4881TIP3    H236135   2.268   6.381   4.014 -2.2133  0.9371 -2.6807
 4882TIP3   OH236136   5.597   3.353  14.575 -0.1962  0.0464 -0.2409
 4882TIP3    H136137   5.586   3.258  14.584  1.3094 -0.3227 -1.7924
 4882TIP3    H236138   5.670   3.362  14.513  0.3568  2.2227  0.6745
 4883TIP3   OH236139   3.396   3.770  14.498  0.3153 -0.3902  0.1744
 4883TIP3    H136140   3.307   3.733  14.501  0.5315 -0.9254  0.1117
 4883TIP3    H236141   3.438   3.738  14.578  0.7205 -0.8527 -0.2153
 4884TIP3   OH236142   1.194   0.391  13.105 -0.4630  0.4482 -0.1908
 4884TIP3    H136143   1.233   0.462  13.054 -1.3769  0.6821 -0.5689
 4884TIP3    H236144   1.110   0.426  13.135 -0.7516 -0.3375 -0.0670
 4885TIP3   OH236145   6.439   4.636   2.087  0.0747 -0.2368 -0.1663
 4885TIP3    H136146   6.511   4.579   2.112  0.0812  0.1596  0.7650
 4885TIP3    H236147   6.482   4.714   2.052  0.0591 -1.0155 -1.9542
 4886TIP3   OH236148   5.310   4.628  15.353 -0.7591  0.5768  0.2914
 4886TIP3    H136149   5.370   4.591  15.418  0.5052 -0.4116 -1.3655
 4886TIP3    H236150   5.228   4.580  15.365 -0.9003  1.1891  1.8710
 4887TIP3   OH236151   3.868   1.564  14.631 -0.3239  0.1536  0.2616
 4887TIP3    H136152   3.868   1.527  14.719 -2.2264  0.6969  0.5164
 4887TIP3    H236153   3.909   1.497  14.577 -0.7098 -0.9233  1.2833
 4888TIP3   OH236154   1.521   3.893   5.802  0.2983  0.4851 -0.2969
 4888TIP3    H136155   1.470   3.972   5.783 -0.0542  0.4239  0.3386
 4888TIP3    H236156   1.461   3.839   5.853  0.7418  0.0682 -0.2167
 4889TIP3   OH236157   2.652   0.284  15.863  0.2451 -0.3436  0.2589
 4889TIP3    H136158   2.726   0.225  15.881 -0.0025  0.1135  3.1550
 4889TIP3    H236159   2.581   0.226  15.836  1.6232 -0.7895 -2.5639
 4890TIP3   OH236160   6.801   4.248  13.241 -0.6730 -0.4004 -0.3699
 4890TIP3    H136161   6.809   4.282  13.152 -0.5594 -1.2480 -0.6950
 4890TIP3    H236162   6.711   4.215  13.245 -0.8310  0.0854 -0.0116
 4891TIP3   OH236163   2.470   6.404   1.926  0.6155  0.2657 -0.2469
 4891TIP3    H136164   2.462   6.467   1.997 -0.7112 -1.6026  1.2863
 4891TIP3    H236165   2.555   6.362   1.942  0.2100 -0.3177  0.3515
 4892TIP3   OH236166   0.651   6.260   3.451  0.8650 -0.0103  0.5804
 4892TIP3    H136167   0.683   6.226   3.534  1.2905 -0.6931  0.1419
 4892TIP3    H236168   0.706   6.337   3.433  1.0630 -0.1221  0.7118
 4893TIP3   OH236169   5.729   4.625   0.657 -0.4738  0.5319  0.2915
 4893TIP3    H136170   5.787   4.691   0.697  0.3800 -1.1724  1.9385
 4893TIP3    H236171   5.680   4.589   0.731 -1.1856 -0.4339 -0.6523
 4894TIP3   OH236172   5.495   0.876  14.087 -0.1309 -0.4368  0.0817
 4894TIP3    H136173   5.521   0.933  14.014  3.3094 -1.0787  0.7202
 4894TIP3    H236174   5.471   0.793  14.046  2.1852 -0.9294 -0.3655
 4895TIP3   OH236175   2.893   5.198   4.411 -0.0503 -0.1909 -0.0056
 4895TIP3    H136176   2.866   5.169   4.498  0.3071 -1.1604 -0.2117
 4895TIP3    H236177   2.847   5.139   4.351 -1.2962  1.2853 -0.5234
 4896TIP3   OH236178   0.328   0.986  16.531 -0.3372 -0.0994  0.0352
 4896TIP3    H136179   0.367   0.985  16.444  0.5318 -0.7559  0.4203
 4896TIP3    H236180   0.328   1.078  16.557 -0.8381  0.1273 -0.7575
 4897TIP3   OH236181   6.125   0.797  11.110 -0.1427 -0.0622  0.7211
 4897TIP3    H136182   6.165   0.881  11.085  0.4086 -0.6669 -0.4760
 4897TIP3    H236183   6.106   0.754  11.027  0.2251 -1.4371  1.3366
 4898TIP3   OH236184   2.476   4.634  12.813 -0.7834 -0.6054  0.3507
 4898TIP3    H136185   2.522   4.695  12.871 -0.8176  2.0334 -2.3124
 4898TIP3    H236186   2.544   4.598  12.757 -1.2815 -0.1716 -0.5418
 4899TIP3   OH236187   4.408   3.019  14.070  0.3251  0.2331  0.2165
 4899TIP3    H136188   4.452   3.013  13.985 -1.7148 -0.6310 -0.8027
 4899TIP3    H236189   4.447   2.948  14.121  0.4382 -0.2378 -0.5137
 4900TIP3   OH236190   2.985   2.312  15.402  0.1301 -0.0989  0.0591
 4900TIP3    H136191   2.909   2.263  15.370  0.3775 -0.7045  0.3794
 4900TIP3    H236192   3.058   2.250  15.391  0.9360  1.1833 -2.2033
 4901TIP3   OH236193   4.996   4.764   4.997  0.1328  0.3552  0.5533
 4901TIP3    H136194   4.925   4.736   4.940  0.9511 -0.4174 -0.0836
 4901TIP3    H236195   4.995   4.702   5.069  0.0774  0.4292  0.6166
 4902TIP3   OH236196   2.179   2.015  11.699 -0.0078  0.0243  0.7364
 4902TIP3    H136197   2.091   1.979  11.700  0.4151 -1.0932 -0.3492
 4902TIP3    H236198   2.235   1.942  11.728  0.8138 -0.0999 -1.0845
 4903TIP3   OH236199   6.438   1.474   4.516  0.1217  0.2088 -0.0550
 4903TIP3    H136200   6.504   1.493   4.450  0.7245  1.7995  1.0031
 4903TIP3    H236201   6.464   1.389   4.553  1.7618  1.0002  0.6102
 4904TIP3   OH236202   0.421   2.130  12.016  0.2778 -0.5703 -0.3436
 4904TIP3    H136203   0.416   2.183  12.096  2.4552 -1.0631  0.1571
 4904TIP3    H236204   0.339   2.146  11.971  0.1872  1.8980  0.6462
 4905TIP3   OH236205   2.175   1.554   4.855 -0.3090 -0.1324 -0.2783
 4905TIP3    H136206   2.263   1.573   4.823  0.6804 -1.3806  1.5639
 4905TIP3    H236207   2.148   1.475   4.808  0.6506 -1.2613  1.0040
 4906TIP3   OH236208   4.100   5.800   4.951  0.6355  0.2393  0.2283
 4906TIP3    H136209   4.044   5.728   4.980  0.6021  0.4566  0.7266
 4906TIP3    H236210   4.184   5.759   4.933  0.6385  0.0871  0.5818
 4907TIP3   OH236211   3.411   5.877  13.606 -1.0984 -0.3575 -0.3005
 4907TIP3    H136212   3.326   5.836  13.591 -1.2308 -0.3893  0.5091
 4907TIP3    H236213   3.418   5.884  13.702 -1.1316  1.5881 -0.4176
 4908TIP3   OH236214   2.405   5.118  14.256  0.1900 -0.8230  0.0767
 4908TIP3    H136215   2.441   5.155  14.176 -0.7418 -0.4912 -0.2057
 4908TIP3    H236216   2.359   5.191  14.298 -2.4584 -1.8367 -0.9470
 4909TIP3   OH236217   3.971   4.410  15.764 -0.1760 -0.1624 -0.7021
 4909TIP3    H136218   3.969   4.456  15.848 -0.4568  2.1924 -1.9764
 4909TIP3    H236219   3.879   4.385  15.749 -0.4096  0.9384 -1.1289
 4910TIP3   OH236220   5.586   4.914  12.821 -0.7640  0.3708 -0.0667
 4910TIP3    H136221   5.599   4.833  12.870  0.4675 -0.4942 -1.7693
 4910TIP3    H236222   5.625   4.982  12.876 -1.7708 -0.1739  1.3572
 4911TIP3   OH236223   0.368   4.924  12.646 -0.7084 -0.3623 -0.0575
 4911TIP3    H136224   0.312   4.972  12.586 -1.6000 -1.3359 -0.0190
 4911TIP3    H236225   0.386   4.986  12.717  2.1567  1.5580 -2.3232
 4912TIP3   OH236226   5.936   3.021  10.661 -0.3475  0.4667 -0.5676
 4912TIP3    H136227   5.884   2.941  10.674 -0.4672  0.6550  0.1715
 4912TIP3    H236228   5.874   3.092  10.674  0.2866  0.7144  1.3825
 4913TIP3   OH236229   1.289   2.566  13.670  0.2577  0.0961  0.7119
 4913TIP3    H136230   1.213   2.624  13.670 -0.9863 -1.4251  3.1416
 4913TIP3    H236231   1.362   2.621  13.640 -1.5885  1.8567 -0.6452
 4914TIP3   OH236232   6.630   2.622  16.206  0.0317 -0.1322 -0.0190
 4914TIP3    H136233   6.624   2.585  16.294 -1.7206 -0.5097 -0.2813
 4914TIP3    H236234   6.703   2.685  16.212  1.1413 -1.4853  1.1904
 4915TIP3   OH236235   3.775   2.046  14.078  0.4171  0.4292 -0.3131
 4915TIP3    H136236   3.704   2.053  14.014 -0.9263 -1.0931  0.9652
 4915TIP3    H236237   3.731   2.028  14.161  2.3053 -0.5281  0.5153
 4916TIP3   OH236238   4.773   0.625  11.963  0.1470  0.3599 -0.2320
 4916TIP3    H136239   4.757   0.617  12.057  1.0569  2.4592  0.1321
 4916TIP3    H236240   4.685   0.630  11.925 -0.2214 -0.0254  0.5608
 4917TIP3   OH236241   2.901   0.439  16.344 -0.0126 -0.2118 -0.5133
 4917TIP3    H136242   2.841   0.505  16.311  0.2784  0.5433  0.4233
 4917TIP3    H236243   2.916   0.380  16.270  0.4148  1.2605 -1.6184
 4918TIP3   OH236244   2.325   2.133  15.582 -0.2759 -0.0117  0.3713
 4918TIP3    H136245   2.247   2.146  15.635 -0.2505 -0.1868  0.4531
 4918TIP3    H236246   2.367   2.055  15.620 -0.5164 -0.4256 -0.2143
 4919TIP3   OH236247   3.778   2.859   5.286 -0.6357  0.0660 -0.3688
 4919TIP3    H136248   3.869   2.836   5.266  0.0228  2.2932 -0.0568
 4919TIP3    H236249   3.763   2.821   5.373  0.5331  1.0199  0.2762
 4920TIP3   OH236250   6.702   2.025   5.560  0.3200  0.5349  0.0276
 4920TIP3    H136251   6.630   1.963   5.563  0.8886 -0.1039  0.4610
 4920TIP3    H236252   6.707   2.062   5.648  0.5652  0.5224  0.0211
 4921TIP3   OH236253   5.574   2.282  16.040  0.0391  0.0597 -0.3998
 4921TIP3    H136254   5.540   2.361  16.082  0.4207 -0.3166  0.6426
 4921TIP3    H236255   5.512   2.213  16.065 -0.0777 -0.0473 -0.9789
 4922TIP3   OH236256   1.202   4.005  12.902 -0.4793  0.0442  0.2272
 4922TIP3    H136257   1.191   3.985  12.995 -1.9223 -1.9660 -0.3361
 4922TIP3    H236258   1.262   3.937  12.870 -1.0514 -0.0921 -0.5720
 4923TIP3   OH236259   4.152   1.087   0.535 -0.4063 -0.1592  0.1659
 4923TIP3    H136260   4.063   1.052   0.532 -0.9298  1.2335 -1.5736
 4923TIP3    H236261   4.177   1.097   0.443  0.9552  0.9210  0.6373
 4924TIP3   OH236262   5.580   3.532  16.622 -0.2009 -0.0447  0.0922
 4924TIP3    H136263   5.509   3.500  16.567  1.3767 -0.5587 -1.6789
 4924TIP3    H236264   5.545   3.611  16.664 -1.3372  0.4833 -1.8252
 4925TIP3   OH236265   0.331   1.260  16.637 -0.2204 -0.1345 -0.5814
 4925TIP3    H136266   0.373   1.342  16.613  0.3162 -0.7270 -1.7113
 4925TIP3    H236267   0.381   1.228  16.712  2.7897 -1.8975 -3.2163
 4926TIP3   OH236268   6.051   3.919  16.167 -0.5522 -0.1326 -0.2794
 4926TIP3    H136269   6.092   3.833  16.165  0.3370  0.3235 -2.8057
 4926TIP3    H236270   5.992   3.915  16.242  0.3871 -2.5106  0.3809
 4927TIP3   OH236271   3.450   2.235  11.623  0.1194 -1.1333  0.0143
 4927TIP3    H136272   3.508   2.211  11.551  0.8435 -1.2338  0.6281
 4927TIP3    H236273   3.407   2.316  11.595  1.3265 -0.4969 -0.0044
 4928TIP3   OH236274   6.648   0.040   3.435  0.2001 -0.2671 -0.3244
 4928TIP3    H136275   6.690   0.087   3.507  1.0086 -2.8614  0.9417
 4928TIP3    H236276   6.650   0.102   3.362 -0.6298  2.4167  1.8455
 4929TIP3   OH236277   1.969   5.017   5.737  0.1731  0.4344 -0.0011
 4929TIP3    H136278   2.030   4.949   5.708  0.3512  1.0602 -1.1018
 4929TIP3    H236279   1.911   4.972   5.798 -0.9100 -1.1719 -2.1576
 4930TIP3   OH236280   0.102   1.945  13.568 -0.5557 -0.3173  0.2358
 4930TIP3    H136281   0.034   1.992  13.618 -0.3355  0.1479  0.1033
 4930TIP3    H236282   0.174   2.008  13.561  0.6492 -1.4289  1.9889
 4931TIP3   OH236283   0.549   4.679  12.329  0.1427 -0.5920 -0.5947
 4931TIP3    H136284   0.546   4.683  12.425 -0.1428  0.2291 -0.6371
 4931TIP3    H236285   0.486   4.611  12.306  0.4038 -0.9779 -0.1899
 4932TIP3   OH236286   1.415   5.130   0.187 -0.0382 -0.2445 -0.4711
 4932TIP3    H136287   1.388   5.128   0.279 -0.3810 -0.2658 -0.5746
 4932TIP3    H236288   1.334   5.145   0.138  0.0660 -0.7757 -0.8068
 4933TIP3   OH236289   2.954   0.103  13.466  0.0924 -0.5242  0.2234
 4933TIP3    H136290   2.978   0.011  13.455  0.9711 -0.2579 -0.0697
 4933TIP3    H236291   2.974   0.144  13.382 -0.4988 -0.1012  0.2847
 4934TIP3   OH236292   6.667   2.581   3.460 -0.4383 -0.0150  0.3837
 4934TIP3    H136293   6.600   2.635   3.419 -0.5075 -0.6272 -0.3236
 4934TIP3    H236294   6.651   2.590   3.554  0.7683  2.7572  0.3839
 4935TIP3   OH236295   2.788   5.766   1.496  0.2053  0.4380  0.0736
 4935TIP3    H136296   2.722   5.707   1.459  1.1404  0.9827 -2.5885
 4935TIP3    H236297   2.769   5.767   1.590 -1.2556 -2.2895 -0.1283
 4936TIP3   OH236298   4.698   4.397   3.169 -0.0266  0.5832  0.2737
 4936TIP3    H136299   4.672   4.371   3.081 -1.9208  0.0804  0.9564
 4936TIP3    H236300   4.675   4.490   3.174  1.1209  0.8976 -0.1239
 4937TIP3   OH236301   3.431   4.080  15.465 -0.5243 -0.3788  0.0498
 4937TIP3    H136302   3.379   4.133  15.404 -0.5090 -1.9007 -1.3173
 4937TIP3    H236303   3.440   3.996  15.421  2.1592 -0.5139  0.7618
 4938TIP3   OH236304   4.768   0.507  16.602  0.9140  0.0145  0.0539
 4938TIP3    H136305   4.858   0.486  16.625  1.1429  0.3056 -0.5673
 4938TIP3    H236306   4.729   0.538  16.684  2.4343  3.4498 -0.4120
 4939TIP3   OH236307   2.103   1.688  13.444  0.4001 -0.0479 -0.0374
 4939TIP3    H136308   2.042   1.659  13.512  0.2274  0.9964  0.2634
 4939TIP3    H236309   2.190   1.671  13.481  0.3108  0.8447  0.5959
 4940TIP3   OH236310   4.156   4.285  10.470  0.3973 -0.0507 -0.0201
 4940TIP3    H136311   4.214   4.362  10.465 -1.5295  1.4287 -0.1201
 4940TIP3    H236312   4.144   4.259  10.379  0.5243 -0.0580 -0.0342
 4941TIP3   OH236313   4.311   6.008  14.840  0.1404  0.2960  0.0715
 4941TIP3    H136314   4.359   5.961  14.908 -1.5401  1.8988  2.4351
 4941TIP3    H236315   4.340   6.099  14.848 -0.2265  0.5400 -1.2310
 4942TIP3   OH236316   5.737   5.839  13.614 -0.5559  0.0899 -0.2013
 4942TIP3    H136317   5.747   5.892  13.694  0.8950  0.3129 -0.5314
 4942TIP3    H236318   5.643   5.842  13.597 -0.6670  1.5309  0.4991
 4943TIP3   OH236319   2.529   3.485   2.162 -0.5842 -0.1524  0.6090
 4943TIP3    H136320   2.625   3.480   2.158 -0.5930 -0.2800  0.5715
 4943TIP3    H236321   2.510   3.579   2.155 -0.3534  0.0819  2.6535
 4944TIP3   OH236322   6.051   2.391   4.146  0.0179 -0.0766 -0.2113
 4944TIP3    H136323   6.094   2.349   4.220 -1.4356 -1.6206 -0.2371
 4944TIP3    H236324   6.119   2.449   4.109  0.7554  0.6721  2.2594
 4945TIP3   OH236325   0.245   4.137   5.312  0.3786 -0.2704 -0.2588
 4945TIP3    H136326   0.323   4.099   5.353  0.0985 -0.3928  0.1552
 4945TIP3    H236327   0.234   4.086   5.231  0.4550 -0.5565 -0.0882
 4946TIP3   OH236328   0.976   5.649  17.229 -0.1059  0.4268 -0.3725
 4946TIP3    H136329   0.972   5.598  17.309  2.2019 -1.1514 -1.2033
 4946TIP3    H236330   1.065   5.685  17.227 -0.0619  0.2895 -2.2957
 4947TIP3   OH236331   5.775   3.594  10.975  0.0253 -0.1756  0.2594
 4947TIP3    H136332   5.820   3.524  10.927 -2.9301 -1.6500 -0.4702
 4947TIP3    H236333   5.725   3.549  11.043  0.0363  1.4664  1.3914
 4948TIP3   OH236334   4.662   3.085  10.256  0.9097 -0.2562 -0.1365
 4948TIP3    H136335   4.706   3.093  10.171  1.0462 -1.0080 -0.1388
 4948TIP3    H236336   4.603   3.160  10.259 -0.3909 -1.1760 -1.6587
 4949TIP3   OH236337   0.808   0.166  13.730  0.0017  0.1005 -0.5082
 4949TIP3    H136338   0.806   0.256  13.762 -2.3223 -0.6373  1.6546
 4949TIP3    H236339   0.777   0.171  13.640 -0.3432  1.4496 -0.3212
 4950TIP3   OH236340   1.800   2.881   6.021  0.8656  0.0226 -0.5299
 4950TIP3    H136341   1.878   2.929   6.046 -0.2370  1.3073  0.4996
 4950TIP3    H236342   1.751   2.941   5.966 -0.2112 -0.1334  0.2388
 4951TIP3   OH236343   1.665   6.702  14.911  0.0583  0.0433  0.0547
 4951TIP3    H136344   1.722   6.668  14.842 -0.3060  0.0391 -0.2450
 4951TIP3    H236345   1.725   6.742  14.974  0.5291 -1.4563  0.5923
 4952TIP3   OH236346   1.083   4.440   6.098 -0.5627 -0.0641  0.2576
 4952TIP3    H136347   1.144   4.367   6.085 -3.7246 -2.5612 -1.3815
 4952TIP3    H236348   1.102   4.471   6.187  0.7793 -2.9848  1.0606
 4953TIP3   OH236349   4.290   3.615   1.004 -0.6634 -0.2906 -0.4262
 4953TIP3    H136350   4.268   3.636   0.914  0.9011 -0.3901 -0.8413
 4953TIP3    H236351   4.386   3.619   1.008 -0.7866  1.9865  1.7757
 4954TIP3   OH236352   1.984   6.004   6.417  0.3983 -0.3197  0.2780
 4954TIP3    H136353   2.001   5.993   6.510  1.2827  1.3605  0.3235
 4954TIP3    H236354   1.888   6.005   6.410  0.3085 -2.3347  0.9158
 4955TIP3   OH236355   3.548   4.278  10.451  0.5499 -0.0524 -0.2456
 4955TIP3    H136356   3.503   4.203  10.491  0.8197  0.6202  1.3317
 4955TIP3    H236357   3.640   4.266  10.475  0.9615 -0.4252 -1.9203
 4956TIP3   OH236358   5.056   3.862  14.409 -0.4417  0.2848  0.2379
 4956TIP3    H136359   5.104   3.870  14.326 -2.1880 -0.1623 -0.8312
 4956TIP3    H236360   5.064   3.948  14.450 -1.9102  1.3592 -1.6958
 4957TIP3   OH236361   5.597   3.394   5.852 -0.2116 -0.4689  0.1090
 4957TIP3    H136362   5.573   3.456   5.783 -2.0064  0.3444  1.4057
 4957TIP3    H236363   5.667   3.342   5.815 -0.0712  1.0070 -1.7535
 4958TIP3   OH236364   5.554   1.876  15.929 -0.3230 -0.1422 -0.1164
 4958TIP3    H136365   5.647   1.896  15.938 -0.4822  1.0258 -0.9857
 4958TIP3    H236366   5.540   1.800  15.985  0.9353  0.3199  0.8404
 4959TIP3   OH236367   2.809   3.028  15.904 -0.3515  0.1099  0.6080
 4959TIP3    H136368   2.768   2.965  15.963  2.0839 -0.1755  2.0580
 4959TIP3    H236369   2.839   2.976  15.829  0.5413 -0.2697  1.2243
 4960TIP3   OH236370   1.563   1.998   5.331  0.4177  0.0111  0.2332
 4960TIP3    H136371   1.549   2.036   5.418 -0.3469  0.3379 -0.0283
 4960TIP3    H236372   1.640   1.942   5.342 -0.0483 -0.4441  1.2691
 4961TIP3   OH236373   1.471   2.466   5.046 -0.8884 -0.5621  0.2079
 4961TIP3    H136374   1.482   2.543   5.101 -0.3592 -0.1110 -0.5071
 4961TIP3    H236375   1.533   2.402   5.080  0.3810  0.1801 -0.6617
 4962TIP3   OH236376   5.877   0.141   3.211 -0.0401 -0.2443  0.8617
 4962TIP3    H136377   5.891   0.223   3.257  0.1727 -0.5969  1.4258
 4962TIP3    H236378   5.935   0.145   3.135  0.1370  0.0274  1.0133
 4963TIP3   OH236379   1.576   3.385  16.632 -0.0566  0.2337 -0.3918
 4963TIP3    H136380   1.505   3.393  16.696 -0.4039 -1.1851 -0.5729
 4963TIP3    H236381   1.538   3.415  16.550 -0.9356 -1.9178 -0.8022
 4964TIP3   OH236382   0.013   1.735   3.166 -0.6168  0.3141 -0.1532
 4964TIP3    H136383   0.070   1.660   3.184 -0.8624  0.5377  1.6462
 4964TIP3    H236384  -0.065   1.697   3.125 -0.1087 -0.2303 -0.6313
 4965TIP3   OH236385   2.907   2.992   1.421  0.1266  0.1157  0.1548
 4965TIP3    H136386   2.993   2.986   1.381  0.3708 -0.3071  0.7281
 4965TIP3    H236387   2.856   2.921   1.382 -0.0646  0.5692 -0.4245
 4966TIP3   OH236388   6.075   0.012   6.014  0.1096 -0.2195  0.1233
 4966TIP3    H136389   6.137  -0.022   6.079 -0.6384 -1.8239  0.0251
 4966TIP3    H236390   6.131   0.037   5.939  0.8024 -0.0130  0.7025
 4967TIP3   OH236391   1.354   3.472  17.290  0.4961 -0.2904 -0.1846
 4967TIP3    H136392   1.424   3.532  17.316  0.0800  0.5692 -1.0385
 4967TIP3    H236393   1.275   3.525  17.294  0.2419 -0.5233 -1.8416
 4968TIP3   OH236394   5.874   4.247  13.187  0.0020 -0.2744 -0.6287
 4968TIP3    H136395   5.816   4.273  13.115 -1.1701 -1.0791  0.0057
 4968TIP3    H236396   5.945   4.200  13.145 -0.6824 -0.7449 -1.2724
 4969TIP3   OH236397   6.256   0.634   2.246 -0.0012 -0.2021 -0.2460
 4969TIP3    H136398   6.198   0.558   2.254 -1.1378  0.7887  1.2385
 4969TIP3    H236399   6.203   0.700   2.202  0.8805 -0.1576 -1.2407
 4970TIP3   OH236400   4.595   2.567  15.157 -0.1490  0.2318  0.2000
 4970TIP3    H136401   4.505   2.599  15.159 -0.7294 -1.2842 -0.8823
 4970TIP3    H236402   4.610   2.531  15.244 -0.7377  0.1470  0.2672
 4971TIP3   OH236403   3.386   6.087  12.197 -1.0167 -0.4549 -0.4975
 4971TIP3    H136404   3.301   6.111  12.233 -1.4350 -0.9776 -1.1185
 4971TIP3    H236405   3.375   5.997  12.166 -0.6328 -0.0676 -1.8006
 4972TIP3   OH236406   1.490   4.499  10.764 -0.1069  0.2166 -0.4454
 4972TIP3    H136407   1.566   4.449  10.790 -0.8079 -0.8538 -0.4473
 4972TIP3    H236408   1.526   4.576  10.719  0.9690 -0.0208  0.0032
 4973TIP3   OH236409   6.162   6.411  13.951 -0.1906  0.0846 -0.8106
 4973TIP3    H136410   6.182   6.445  14.039 -0.5131 -1.4891 -0.1119
 4973TIP3    H236411   6.126   6.486  13.904 -2.3790  0.3358  1.1806
 4974TIP3   OH236412   2.062   5.616  12.586  0.0688  0.1520  0.2569
 4974TIP3    H136413   2.045   5.697  12.538  1.3369 -0.2816 -0.9360
 4974TIP3    H236414   2.137   5.637  12.643 -0.5443  0.2450  1.0464
 4975TIP3   OH236415   0.194   0.184  13.150  0.1405  0.5126  0.2774
 4975TIP3    H136416   0.116   0.148  13.194  0.9370 -0.9470  0.5480
 4975TIP3    H236417   0.169   0.190  13.058  0.1348 -1.2552  0.1386
 4976TIP3   OH236418   5.960   5.762   4.089  0.2574  0.2674  0.2037
 4976TIP3    H136419   6.009   5.699   4.038  0.8964  0.5380  0.4779
 4976TIP3    H236420   5.911   5.813   4.024  0.5478  0.1760 -0.0872
 4977TIP3   OH236421   6.562   5.194  16.721  0.6986  0.9106 -0.0965
 4977TIP3    H136422   6.473   5.174  16.692  1.4093 -0.1282 -1.6609
 4977TIP3    H236423   6.616   5.125  16.682  2.0901  1.0489  1.5115
 4978TIP3   OH236424   1.374   0.006   5.389 -0.7268  0.3933 -0.6659
 4978TIP3    H136425   1.430   0.010   5.312 -1.5378  2.1822 -1.1873
 4978TIP3    H236426   1.306  -0.058   5.366  1.2562 -2.0680  0.1194
 4979TIP3   OH236427   0.860   0.331   0.814 -0.4839 -0.3248 -0.3337
 4979TIP3    H136428   0.790   0.297   0.759 -1.3785 -0.7132  1.0326
 4979TIP3    H236429   0.884   0.257   0.871  1.4899 -0.4077 -1.2257
 4980TIP3   OH236430   0.154   2.497  11.464  0.3144 -0.2472  0.0309
 4980TIP3    H136431   0.087   2.459  11.521 -2.0316  2.5802 -0.7320
 4980TIP3    H236432   0.230   2.507  11.521 -0.4663 -1.8416  1.4149
 4981TIP3   OH236433   0.997   1.098  13.710  0.5885 -0.0515  0.7462
 4981TIP3    H136434   1.040   1.012  13.705 -0.1719 -0.3864 -0.0996
 4981TIP3    H236435   0.910   1.083  13.674  0.7333  1.2738 -0.1804
 4982TIP3   OH236436   6.664   2.076   4.560  0.5677  0.3254 -0.4833
 4982TIP3    H136437   6.733   2.126   4.516  1.4824 -1.5713 -1.3117
 4982TIP3    H236438   6.646   2.003   4.500 -1.9267  0.5911 -0.1106
 4983TIP3   OH236439   0.625   5.317  16.701  0.0780 -0.6744  0.2185
 4983TIP3    H136440   0.641   5.223  16.698 -0.9015 -0.8470  0.3226
 4983TIP3    H236441   0.574   5.331  16.781  0.6927  0.0162  0.4997
 4984TIP3   OH236442   2.783   4.968  16.964 -0.3501  0.3074 -0.4120
 4984TIP3    H136443   2.724   4.961  16.890 -2.6536 -2.0013  1.5424
 4984TIP3    H236444   2.844   4.895  16.954 -0.4317  0.2146 -0.2434
 4985TIP3   OH236445   4.174   5.374  13.693 -0.3952  0.5507 -0.2892
 4985TIP3    H136446   4.105   5.430  13.729  1.5018  3.1451 -0.5239
 4985TIP3    H236447   4.181   5.402  13.601 -0.3201 -1.0453 -0.7834
 4986TIP3   OH236448   1.518   1.492   2.399  0.5773  0.3593 -0.3155
 4986TIP3    H136449   1.423   1.482   2.407  0.4667  0.8950 -0.9924
 4986TIP3    H236450   1.531   1.539   2.317  1.4446  0.0655 -0.3503
 4987TIP3   OH236451   6.004   4.580  16.544  0.0219 -0.4724 -0.0713
 4987TIP3    H136452   6.099   4.568  16.547  0.0027 -0.4282  0.8287
 4987TIP3    H236453   5.970   4.494  16.523  0.2545 -0.5121 -0.2862
 4988TIP3   OH236454   6.294   6.532   2.325 -0.6375 -0.0608  0.3426
 4988TIP3    H136455   6.303   6.545   2.231 -1.3403 -1.2450  0.1002
 4988TIP3    H236456   6.369   6.478   2.349 -1.3511 -1.1436  0.1639
 4989TIP3   OH236457   3.585   5.400  12.066  0.3148 -0.4334  0.3752
 4989TIP3    H136458   3.568   5.314  12.029 -2.3967 -0.1131  0.7985
 4989TIP3    H236459   3.641   5.443  12.002 -0.2895 -1.6392 -0.9806
 4990TIP3   OH236460   4.611   1.676  15.867 -0.1271  0.0244 -0.0279
 4990TIP3    H136461   4.639   1.748  15.923 -2.5398  2.7341 -2.1451
 4990TIP3    H236462   4.639   1.597  15.913  1.7976  2.2674  2.7960
 4991TIP3   OH236463   6.443   6.118  16.073  0.6109  0.7338 -0.1239
 4991TIP3    H136464   6.393   6.036  16.075  1.3669  0.1147 -3.5207
 4991TIP3    H236465   6.525   6.096  16.117  1.1397 -0.6081 -1.7097
 4992TIP3   OH236466   1.187   0.779   4.190  0.4322  0.0924  0.5415
 4992TIP3    H136467   1.132   0.734   4.126 -1.6325  1.3425  1.3444
 4992TIP3    H236468   1.246   0.833   4.138  0.6892 -1.0223 -0.3440
 4993TIP3   OH236469   3.191   5.039   2.281  0.0369 -0.0204 -0.2157
 4993TIP3    H136470   3.230   5.126   2.291  0.6809 -0.4150  0.7354
 4993TIP3    H236471   3.154   5.040   2.192 -1.4883  1.8361  0.4029
 4994TIP3   OH236472   6.639   2.387  16.800 -0.1110  0.3586 -0.0823
 4994TIP3    H136473   6.559   2.408  16.751 -0.0661  0.3932 -0.1403
 4994TIP3    H236474   6.696   2.463  16.787 -0.8487  1.2346  1.5698
 4995TIP3   OH236475   4.675   6.610   4.381  0.0089 -0.2999 -0.0619
 4995TIP3    H136476   4.579   6.608   4.389  0.0943  1.1889  1.5756
 4995TIP3    H236477   4.699   6.700   4.401  1.5870 -0.0272 -2.8801
 4996TIP3   OH236478   3.487   4.637   0.323  0.3614 -0.0964  0.1888
 4996TIP3    H136479   3.571   4.592   0.311 -0.0003 -0.5704 -0.5951
 4996TIP3    H236480   3.510   4.718   0.369  1.2399 -0.2667  0.0646
 4997TIP3   OH236481   1.995   6.421  16.257 -0.5537 -0.1469 -0.6100
 4997TIP3    H136482   1.968   6.332  16.278  1.1279 -0.7339 -0.9256
 4997TIP3    H236483   2.075   6.436  16.307  0.0098  0.6455 -1.7090
 4998TIP3   OH236484   5.295   2.759   2.691  0.0084  0.0298 -0.2066
 4998TIP3    H136485   5.240   2.769   2.768  1.2801 -1.0258  0.8658
 4998TIP3    H236486   5.333   2.671   2.699  0.8201  0.2227 -1.5950
 4999TIP3   OH236487   4.598   0.483  15.266  0.8316  0.1917 -0.4425
 4999TIP3    H136488   4.537   0.432  15.212 -0.2313  1.3005 -0.2972
 4999TIP3    H236489   4.655   0.527  15.203  1.7727 -1.1812 -0.5674
 5000TIP3   OH236490   2.327   5.658  16.188  0.4087 -0.2965  0.2997
 5000TIP3    H136491   2.327   5.654  16.092  0.8707 -0.3069  0.2994
 5000TIP3    H236492   2.387   5.588  16.214  1.8681  1.0177  0.5341
 5001TIP3   OH236493   2.628   0.563  14.156  0.1453 -0.0181 -0.0686
 5001TIP3    H136494   2.643   0.627  14.225  0.4728 -0.3360  0.1582
 5001TIP3    H236495   2.699   0.576  14.093 -0.0055  0.0984 -0.2160
 5002TIP3   OH236496   6.337   4.269   5.927 -0.5284  0.4623  0.6399
 5002TIP3    H136497   6.325   4.250   6.021 -1.2311  0.0874  0.4806
 5002TIP3    H236498   6.265   4.221   5.884 -0.4676  0.9877 -0.0494
 5003TIP3   OH236499   2.339   2.398  12.314 -0.7930 -0.0449 -0.3595
 5003TIP3    H136500   2.354   2.468  12.250 -0.0663 -0.8591 -1.1099
 5003TIP3    H236501   2.257   2.357  12.286 -0.9200  0.1389 -0.2587
 5004TIP3   OH236502   0.192   4.004   5.575  0.4265 -0.1547  0.2139
 5004TIP3    H136503   0.260   3.989   5.509 -0.1447  1.7172 -0.8250
 5004TIP3    H236504   0.206   4.094   5.604 -2.4269  0.7220 -0.9964
 5005TIP3   OH236505   4.330   5.031  12.200  0.1151  0.1299 -0.1250
 5005TIP3    H136506   4.377   5.034  12.117 -2.8502 -0.9109 -1.9083
 5005TIP3    H236507   4.264   5.099  12.194  1.2603  1.5255  2.3174
 5006TIP3   OH236508   0.697   5.277   2.024  0.1976 -0.6024  0.1993
 5006TIP3    H136509   0.757   5.203   2.011  0.8085 -0.0695 -0.0231
 5006TIP3    H236510   0.709   5.332   1.947 -1.3387 -1.0019 -0.3619
 5007TIP3   OH236511   3.341   3.186   1.459  0.0662  0.4059  0.3332
 5007TIP3    H136512   3.424   3.154   1.422  0.5575  1.7120  0.2949
 5007TIP3    H236513   3.360   3.200   1.551  0.0376  1.1752  0.2271
 5008TIP3   OH236514   3.951   0.270   3.051  0.7869 -0.0722 -0.1046
 5008TIP3    H136515   3.970   0.176   3.049  0.5207 -0.1249 -0.1957
 5008TIP3    H236516   3.999   0.305   2.976 -2.3925 -0.7730 -2.6070
 5009TIP3   OH236517   2.960   6.252  15.586  0.2226 -0.7821 -0.2120
 5009TIP3    H136518   2.958   6.348  15.584 -0.0777 -0.7506  1.1084
 5009TIP3    H236519   2.974   6.227  15.495  0.4191  0.5202 -0.5579
 5010TIP3   OH236520   1.767   0.900   5.301 -0.2208 -0.2739 -0.1579
 5010TIP3    H136521   1.829   0.845   5.349 -1.2745  0.2171  1.8492
 5010TIP3    H236522   1.800   0.989   5.312 -0.0304 -0.2401 -1.0204
 5011TIP3   OH236523   4.666   2.879   0.837 -0.7344 -0.1226  0.3240
 5011TIP3    H136524   4.718   2.931   0.775 -0.7022 -1.2474 -0.6029
 5011TIP3    H236525   4.695   2.789   0.823 -0.8310 -0.4091  1.8880
 5012TIP3   OH236526   4.727   5.178  14.588 -0.3206 -0.0762  0.7557
 5012TIP3    H136527   4.653   5.173  14.528  0.2510  1.2145 -0.0741
 5012TIP3    H236528   4.691   5.152  14.673 -1.4571 -0.5545  0.1291
 5013TIP3   OH236529   4.835   2.087  16.788 -0.0233  0.7090  0.4446
 5013TIP3    H136530   4.809   2.176  16.810 -1.5286  0.0849  1.1899
 5013TIP3    H236531   4.866   2.093  16.697 -0.7405  1.8523  0.2710
 5014TIP3   OH236532   2.517   2.758   1.827 -0.1242 -0.6296  0.3456
 5014TIP3    H136533   2.513   2.803   1.911  0.0870 -1.3805  0.7665
 5014TIP3    H236534   2.502   2.666   1.849 -1.3634 -0.6653 -0.5906
 5015TIP3   OH236535   2.624   5.268  12.474  0.0846 -0.2942 -0.0763
 5015TIP3    H136536   2.619   5.197  12.410  1.4402  0.1453 -0.6861
 5015TIP3    H236537   2.713   5.303  12.465 -0.6748  1.7274 -0.0392
 5016TIP3   OH236538   1.873   2.910   4.367 -1.3586  0.0626 -0.4978
 5016TIP3    H136539   1.848   2.981   4.426  1.5378 -0.4477  1.4511
 5016TIP3    H236540   1.844   2.831   4.411  2.1226 -0.4275  1.0684
 5017TIP3   OH236541   1.695   2.249  16.931  0.5851  0.1466  0.1341
 5017TIP3    H136542   1.773   2.258  16.986  0.7823  0.5067 -0.2094
 5017TIP3    H236543   1.696   2.325  16.874  1.6481 -1.4070 -1.9840
 5018TIP3   OH236544   4.176   6.659  16.840 -0.2113  0.1038 -0.2707
 5018TIP3    H136545   4.139   6.644  16.927  1.1370 -2.9117 -0.1323
 5018TIP3    H236546   4.104   6.637  16.779 -0.0423 -1.3844  0.0501
 5019TIP3   OH236547   4.529   1.205  12.280  0.9783 -0.7903 -0.3846
 5019TIP3    H136548   4.571   1.128  12.319  1.3381  0.4427  1.6904
 5019TIP3    H236549   4.576   1.280  12.317 -2.8237  0.6385  1.8597
 5020TIP3   OH236550   4.185   2.441   1.430  0.3223  0.4384  0.5590
 5020TIP3    H136551   4.253   2.463   1.494  1.4135 -0.9583 -0.0887
 5020TIP3    H236552   4.182   2.345   1.430 -2.1249  0.4919  1.0601
 5021TIP3   OH236553   6.125   6.555   0.125  0.3841 -0.4143  0.0148
 5021TIP3    H136554   6.120   6.635   0.176  0.5014 -0.0413 -0.5484
 5021TIP3    H236555   6.035   6.522   0.122 -0.0048  0.6886 -1.2981
 5022TIP3   OH236556   6.646   1.300   0.200  0.3952 -0.2332  0.1062
 5022TIP3    H136557   6.678   1.233   0.260  0.5560 -1.9909 -1.8946
 5022TIP3    H236558   6.554   1.278   0.186  0.8614 -1.0298 -1.8306
 5023TIP3   OH236559   1.857   3.925   3.137  0.3979  0.1484  0.3065
 5023TIP3    H136560   1.915   3.932   3.061  0.0616  2.6262  0.2240
 5023TIP3    H236561   1.917   3.909   3.211  1.1165  1.7253  0.0838
 5024TIP3   OH236562   0.369   1.948  12.748 -0.6833  0.1258 -0.4274
 5024TIP3    H136563   0.438   1.891  12.715 -0.1776  1.2034 -1.2365
 5024TIP3    H236564   0.355   2.013  12.679  0.0209  2.1013  1.2179
 5025TIP3   OH236565   2.536   1.014   5.111 -0.2890  0.1860  0.2208
 5025TIP3    H136566   2.631   1.013   5.101 -0.2190  0.0879  0.8765
 5025TIP3    H236567   2.521   0.976   5.198 -0.8865  0.8788  0.4191
 5026TIP3   OH236568   3.096   5.275  16.537  0.2055  0.6287  0.2169
 5026TIP3    H136569   3.166   5.316  16.486  1.0719 -1.8827 -0.6829
 5026TIP3    H236570   3.135   5.260  16.623  1.5305 -2.5041 -0.8281
 5027TIP3   OH236571   6.645   3.177   2.085  0.5274  0.0916 -0.0860
 5027TIP3    H136572   6.563   3.153   2.041  1.0182 -2.5652  0.3261
 5027TIP3    H236573   6.623   3.254   2.137 -1.8990 -0.9657  0.5444
 5028TIP3   OH236574   1.896   2.155  14.733  0.4438  0.4492 -0.5319
 5028TIP3    H136575   1.887   2.139  14.639  0.5324  0.2866 -0.5119
 5028TIP3    H236576   1.990   2.148  14.750  0.4058  0.2676 -0.3920
 5029TIP3   OH236577   4.460   1.724  11.682 -0.2086 -0.6819 -0.0728
 5029TIP3    H136578   4.409   1.644  11.673  0.0316 -0.9785  1.1607
 5029TIP3    H236579   4.450   1.750  11.774 -1.6142  1.6054 -0.8276
 5030TIP3   OH236580   0.459   3.346  13.070 -0.1691  0.0389 -0.4287
 5030TIP3    H136581   0.549   3.319  13.052  0.8717  1.6045  2.1002
 5030TIP3    H236582   0.440   3.307  13.156 -1.5231  0.5769 -0.4803
 5031TIP3   OH236583   3.386   0.908  12.920  0.3984 -0.4735 -0.5170
 5031TIP3    H136584   3.461   0.870  12.875  0.5401 -0.1562 -0.5445
 5031TIP3    H236585   3.327   0.834  12.934  0.7393 -0.7337 -0.4445
 5032TIP3   OH236586   3.328   0.741   2.350  0.1557 -0.3482 -0.1384
 5032TIP3    H136587   3.294   0.771   2.266 -0.3345  1.5435  0.6975
 5032TIP3    H236588   3.395   0.805   2.373 -0.5564 -0.1686  1.4736
 5033TIP3   OH236589   1.236   4.492   2.306  0.0187  0.0383  0.4404
 5033TIP3    H136590   1.286   4.539   2.372  1.0131  1.0595 -1.0298
 5033TIP3    H236591   1.281   4.408   2.297  0.9960  0.6294 -0.2792
 5034TIP3   OH236592   5.099   6.711  10.936 -0.0893  0.4089  0.1251
 5034TIP3    H136593   5.005   6.699  10.938 -0.1848  0.9719 -0.5081
 5034TIP3    H236594   5.123   6.733  11.026 -0.4099 -0.7574  0.5037
 5035TIP3   OH236595   5.370   5.968   0.086 -0.0579 -0.7326 -0.5261
 5035TIP3    H136596   5.326   5.887   0.112  0.4845 -0.5358  1.1222
 5035TIP3    H236597   5.327   6.036   0.139  0.4628 -0.1654 -0.8272
 5036TIP3   OH236598   2.726   4.288  15.215  0.5186  0.6326 -0.3634
 5036TIP3    H136599   2.719   4.350  15.288 -1.9688  1.4497 -1.2265
 5036TIP3    H236600   2.799   4.321  15.163 -0.2112  2.3524 -0.3299
 5037TIP3   OH236601   4.606   2.378  11.790  0.1790  0.2728 -0.7134
 5037TIP3    H136602   4.625   2.472  11.792  0.0070  0.3064  1.4152
 5037TIP3    H236603   4.534   2.369  11.727 -0.5976  1.7493 -0.0649
 5038TIP3   OH236604   4.485   4.891   3.758 -0.0909  0.4232  0.9552
 5038TIP3    H136605   4.521   4.976   3.785 -1.9033  1.3664  0.4317
 5038TIP3    H236606   4.560   4.845   3.720  0.4964  2.5126 -0.4904
 5039TIP3   OH236607   0.853   4.927   2.610 -0.2482  0.2722  0.4617
 5039TIP3    H136608   0.801   4.915   2.531  1.5252  2.5995 -1.1257
 5039TIP3    H236609   0.788   4.940   2.679 -1.8095 -0.8354 -0.7444
 5040TIP3   OH236610   4.577   3.612   5.229 -0.0019  0.6046  0.8207
 5040TIP3    H136611   4.556   3.687   5.173 -0.7178  1.4916  2.2717
 5040TIP3    H236612   4.580   3.538   5.168  1.5031  1.9021 -0.7629
 5041TIP3   OH236613   1.687   0.480  15.365 -0.0208  0.7915  0.2104
 5041TIP3    H136614   1.610   0.424  15.363  1.0283 -0.6242 -1.3602
 5041TIP3    H236615   1.682   0.531  15.284  2.7574 -2.1996 -1.9636
 5042TIP3   OH236616   5.371   6.625   5.074 -0.4338  0.3386 -0.0577
 5042TIP3    H136617   5.341   6.559   5.136  1.1910 -0.2465  0.1223
 5042TIP3    H236618   5.355   6.709   5.117 -1.4256  0.0329  0.1856
 5043TIP3   OH236619   2.220   3.916   4.495 -0.3597  0.4998  0.2336
 5043TIP3    H136620   2.306   3.896   4.459  0.3754  0.5572  1.9379
 5043TIP3    H236621   2.159   3.863   4.443  0.8795 -0.9187  0.2196
 5044TIP3   OH236622   2.019   5.664  15.248 -0.0931 -0.2008  0.2989
 5044TIP3    H136623   2.089   5.677  15.311  1.4100 -0.1461 -1.3403
 5044TIP3    H236624   1.944   5.711  15.285  1.8722  3.2189  0.1754
 5045TIP3   OH236625   1.377   3.052   1.287  0.4839 -0.6911 -0.0383
 5045TIP3    H136626   1.354   3.140   1.258 -0.4553 -0.9611 -0.1485
 5045TIP3    H236627   1.294   3.005   1.287  1.3183 -2.2363 -2.2503
 5046TIP3   OH236628   1.576   5.849   0.716 -0.0051  0.5732 -0.0706
 5046TIP3    H136629   1.540   5.785   0.777  0.5724  0.2914 -0.0259
 5046TIP3    H236630   1.517   5.847   0.641  1.1928 -1.5466 -0.9960
 5047TIP3   OH236631   3.613   5.055   3.466 -0.0024 -0.2799 -0.3330
 5047TIP3    H136632   3.628   5.130   3.409 -0.6925 -0.1427 -0.3386
 5047TIP3    H236633   3.534   5.014   3.431  0.3756 -1.0078 -0.3282
 5048TIP3   OH236634   2.541   3.100   1.541  0.0582  0.1747  0.8224
 5048TIP3    H136635   2.467   3.043   1.564  0.1355 -0.6721 -1.0158
 5048TIP3    H236636   2.612   3.071   1.599  0.3299 -2.1342 -0.5992
 5049TIP3   OH236637   5.266   1.589   2.959  0.1998 -0.1398 -0.2911
 5049TIP3    H136638   5.284   1.499   2.931 -1.3076  0.0965 -2.0811
 5049TIP3    H236639   5.351   1.633   2.954  1.3190 -1.8538  2.2624
 5050TIP3   OH236640   1.355   4.084  15.898 -0.0189  0.7730  0.4820
 5050TIP3    H136641   1.434   4.077  15.951  1.8880  0.9917 -2.2424
 5050TIP3    H236642   1.366   4.166  15.849 -0.9117 -0.2804 -1.5146
 5051TIP3   OH236643   4.362   2.383  15.732 -0.2215  0.5742 -0.0443
 5051TIP3    H136644   4.283   2.392  15.679 -1.1525 -1.2386  0.9848
 5051TIP3    H236645   4.413   2.316  15.686 -0.4331 -0.0486  0.6179
 5052TIP3   OH236646   6.301   1.726  10.935  1.0263 -0.4233  0.1471
 5052TIP3    H136647   6.310   1.714  10.840  1.4565  0.0507  0.1239
 5052TIP3    H236648   6.220   1.681  10.958  2.0379 -2.4020 -0.1004
 5053TIP3   OH236649   1.748   0.507   0.375  1.0734 -0.5893  0.0123
 5053TIP3    H136650   1.659   0.500   0.411  0.9635 -1.4927 -0.3987
 5053TIP3    H236651   1.758   0.599   0.353 -0.2185 -0.6887 -1.0629
 5054TIP3   OH236652   1.933   2.316  10.375 -0.5566 -0.0955  0.1224
 5054TIP3    H136653   1.889   2.250  10.321  0.0627  0.4624 -1.0721
 5054TIP3    H236654   1.882   2.396  10.362 -1.6777 -0.4613  2.0588
 5055TIP3   OH236655   5.013   6.643   5.281  0.0295  0.2911  0.2551
 5055TIP3    H136656   5.032   6.584   5.208 -1.4765 -0.6262  0.5965
 5055TIP3    H236657   4.948   6.704   5.247  0.4047  0.7791  0.3969
 5056TIP3   OH236658   5.177   3.631   0.978  0.2476 -0.3834 -0.3344
 5056TIP3    H136659   5.231   3.637   0.899 -0.8123  1.4908 -0.9420
 5056TIP3    H236660   5.199   3.709   1.029 -1.7092  0.3044 -0.4979
 5057TIP3   OH236661   4.186   4.872  17.163  0.0940  0.8996 -0.5215
 5057TIP3    H136662   4.109   4.922  17.135 -0.2928  0.2366 -0.6512
 5057TIP3    H236663   4.152   4.813  17.231 -0.0603 -1.3011 -2.4730
 5058TIP3   OH236664   1.850   6.681  11.676  0.6791  0.5222  0.0628
 5058TIP3    H136665   1.786   6.611  11.678  0.1484  1.0240  0.7483
 5058TIP3    H236666   1.874   6.688  11.583  0.0172  0.0854 -0.1469
 5059TIP3   OH236667   2.454   4.548   4.560 -0.0288  0.3441  0.0053
 5059TIP3    H136668   2.527   4.527   4.619  0.3773 -0.2788 -0.7113
 5059TIP3    H236669   2.399   4.470   4.561 -0.3028  0.5364 -0.0318
 5060TIP3   OH236670   4.716   2.370  15.028 -0.0122 -0.5812 -0.2622
 5060TIP3    H136671   4.733   2.406  14.941  0.0524  0.2600  0.0872
 5060TIP3    H236672   4.661   2.436  15.070  1.5340 -0.0480  0.9961
 5061TIP3   OH236673   1.600   4.209  11.452  0.0727 -0.0024 -0.0267
 5061TIP3    H136674   1.618   4.302  11.466 -1.5400  0.5944 -1.5650
 5061TIP3    H236675   1.512   4.197  11.487  0.1038 -0.8447 -0.2435
 5062TIP3   OH236676   1.029   5.309  14.326 -0.1480 -0.1638 -0.3769
 5062TIP3    H136677   0.974   5.329  14.402 -1.5446 -2.4100 -0.7281
 5062TIP3    H236678   1.002   5.372  14.259 -1.1705 -0.2034 -0.0108
 5063TIP3   OH236679   5.608   1.493  12.053 -0.3547  0.3711  0.4113
 5063TIP3    H136680   5.526   1.465  12.012  0.3914 -2.5286  0.7546
 5063TIP3    H236681   5.580   1.543  12.130 -1.7746  1.1497 -0.5961
 5064TIP3   OH236682   6.597   0.956   5.565 -0.5868  0.5901  0.7080
 5064TIP3    H136683   6.554   0.870   5.571 -1.1191  0.7746 -0.3694
 5064TIP3    H236684   6.556   1.008   5.635  0.1368 -0.1969  1.7271
 5065TIP3   OH236685   2.845   5.476  13.412  0.1857  0.1837 -0.3329
 5065TIP3    H136686   2.882   5.435  13.334  1.2648 -0.3119  0.4326
 5065TIP3    H236687   2.794   5.550  13.378  1.1271  0.3250 -1.4601
 5066TIP3   OH236688   4.444   1.094   5.352  0.0647 -0.0845 -0.3084
 5066TIP3    H136689   4.464   1.101   5.445 -0.0388  1.2197 -0.3643
 5066TIP3    H236690   4.359   1.137   5.342  0.5327  0.6733 -1.1506
 5067TIP3   OH236691   4.429   4.420   0.669 -0.1654  0.0190 -0.1547
 5067TIP3    H136692   4.487   4.453   0.738 -0.6860 -0.7621  0.6638
 5067TIP3    H236693   4.359   4.484   0.664  1.2310  1.4637 -1.7967
 5068TIP3   OH236694   2.574   0.342   2.357 -0.2594 -0.2204  0.6086
 5068TIP3    H136695   2.586   0.298   2.441 -2.0526  0.7723  1.4137
 5068TIP3    H236696   2.482   0.329   2.336 -0.1580  0.7830 -0.5018
 5069TIP3   OH236697   0.333   5.395   0.084  0.5489 -0.1610 -0.5835
 5069TIP3    H136698   0.365   5.480   0.054 -1.1823  0.6342 -0.1995
 5069TIP3    H236699   0.390   5.373   0.158 -0.0899  1.4993  0.4386
 5070TIP3   OH236700   4.769   6.171   5.134 -0.0389  0.3666 -0.0529
 5070TIP3    H136701   4.681   6.133   5.129 -0.1679  0.5938  0.4502
 5070TIP3    H236702   4.817   6.114   5.195  0.1787  0.2155 -0.3645
 5071TIP3   OH236703   5.029   2.522  16.469  0.0901  0.1120 -0.0553
 5071TIP3    H136704   5.033   2.485  16.558 -1.6323 -0.8438 -0.3447
 5071TIP3    H236705   5.108   2.489  16.426  0.5971  0.0342  0.9221
 5072TIP3   OH236706   2.921   4.991  12.044  0.2508  0.3294 -0.1501
 5072TIP3    H136707   2.935   5.079  12.009 -2.4935 -0.0235 -2.2988
 5072TIP3    H236708   2.826   4.981  12.046  0.5178 -3.0572 -1.1495
 5073TIP3   OH236709   1.058   6.810  12.087  0.0890  0.0473 -0.9202
 5073TIP3    H136710   1.108   6.751  12.144  0.0621  0.6996 -0.2187
 5073TIP3    H236711   1.088   6.898  12.110 -0.8135  0.3983 -1.0533
 5074TIP3   OH236712   5.766   4.192   5.534  0.5997  0.3189  0.6502
 5074TIP3    H136713   5.759   4.136   5.612 -0.9160  0.5581  0.6841
 5074TIP3    H236714   5.798   4.275   5.568  0.9460  0.0994  0.8726
 5075TIP3   OH236715   4.621   2.659  13.400  0.3412 -0.0656  0.1331
 5075TIP3    H136716   4.698   2.703  13.435  0.1097  1.1235 -0.8063
 5075TIP3    H236717   4.575   2.626  13.477  1.4274 -0.1765  0.7387
 5076TIP3   OH236718   1.715   6.804  16.543  0.1065 -0.7798 -0.0487
 5076TIP3    H136719   1.751   6.893  16.545  1.0360 -1.1064 -1.4892
 5076TIP3    H236720   1.633   6.811  16.591 -0.3848  1.1074 -1.0958
 5077TIP3   OH236721   3.040   1.365   4.416 -0.0646 -0.1515 -0.5126
 5077TIP3    H136722   2.990   1.308   4.473  0.5503  0.8024  0.9997
 5077TIP3    H236723   3.127   1.370   4.457 -0.2243  2.1614 -0.4171
 5078TIP3   OH236724   6.540   1.194  16.107  0.0392  0.4675 -0.2655
 5078TIP3    H136725   6.447   1.172  16.120 -0.0229  0.2536 -1.0211
 5078TIP3    H236726   6.578   1.113  16.072  0.3521  0.7906 -0.6674
 5079TIP3   OH236727   3.519   3.117  11.741  0.0021  0.5423 -0.5146
 5079TIP3    H136728   3.493   3.196  11.789  0.6403  0.5589 -0.1977
 5079TIP3    H236729   3.436   3.081  11.709 -0.4287  0.5540  0.5730
 5080TIP3   OH236730   2.459   3.831  11.477  0.5217 -0.1585  0.4369
 5080TIP3    H136731   2.430   3.838  11.387  0.7692 -1.8419  0.2145
 5080TIP3    H236732   2.389   3.872  11.528 -0.2681 -0.4374 -0.4125
 5081TIP3   OH236733   0.901   2.761  14.233  0.3083 -0.5479 -0.1996
 5081TIP3    H136734   0.863   2.693  14.289  0.6499  0.3641  1.1676
 5081TIP3    H236735   0.995   2.741  14.233  0.2765 -0.6870 -0.6379
 5082TIP3   OH236736   2.285   2.067  13.668 -0.6349 -0.0470  0.6197
 5082TIP3    H136737   2.235   2.094  13.746  0.4259 -0.3433  1.4250
 5082TIP3    H236738   2.351   2.007  13.703  0.2711  0.3402 -0.4271
 5083TIP3   OH236739   4.938   0.445   2.872  0.0964 -0.4529  0.3774
 5083TIP3    H136740   4.998   0.516   2.893  2.0496 -2.6248  2.5737
 5083TIP3    H236741   4.889   0.430   2.952 -2.4640  0.3782 -0.9836
 5084TIP3   OH236742   5.709   3.980  13.125 -0.1745  0.2484 -0.0723
 5084TIP3    H136743   5.677   3.912  13.186 -1.0786 -0.4564 -1.3136
 5084TIP3    H236744   5.799   3.955  13.108  1.0553  2.0919  3.2365
 5085TIP3   OH236745   3.090   1.375   1.943  0.1631 -0.5499  0.0682
 5085TIP3    H136746   3.088   1.469   1.923 -1.6264 -0.4724  0.4971
 5085TIP3    H236747   3.027   1.365   2.014  0.0231 -2.1583 -0.2731
 5086TIP3   OH236748   2.466   6.272  16.792 -0.0250 -0.2133 -0.1642
 5086TIP3    H136749   2.514   6.289  16.874  0.4594 -0.0664 -0.4744
 5086TIP3    H236750   2.374   6.271  16.818  0.1042  0.1810  0.3297
 5087TIP3   OH236751   1.474   2.134   1.059 -0.0569  0.0776  0.2635
 5087TIP3    H136752   1.502   2.060   1.005 -0.9278 -1.3897  1.7588
 5087TIP3    H236753   1.523   2.209   1.025 -0.7365 -0.7451 -2.6624
 5088TIP3   OH236754   5.908   5.919  15.210 -0.7287 -0.1670  0.1514
 5088TIP3    H136755   5.930   6.001  15.254 -0.9913  1.2671 -2.2704
 5088TIP3    H236756   5.989   5.867  15.215 -0.7256  0.0103  2.1685
 5089TIP3   OH236757   3.876   6.319  12.412 -0.5790  0.2022  0.0111
 5089TIP3    H136758   3.796   6.289  12.368 -0.6092 -0.4646  0.5317
 5089TIP3    H236759   3.846   6.388  12.471 -0.7193  0.1973 -0.0539
 5090TIP3   OH236760   5.700   5.064  14.113  0.3389 -0.1672  0.0371
 5090TIP3    H136761   5.699   5.147  14.160  0.3270  2.2954 -4.0492
 5090TIP3    H236762   5.792   5.051  14.090  0.2120 -0.8615 -0.1038
 5091TIP3   OH236763   1.349   0.968   1.616  0.0009  0.4332  0.0214
 5091TIP3    H136764   1.265   0.940   1.581  0.9659  0.5208 -2.4848
 5091TIP3    H236765   1.389   0.888   1.649 -0.0319 -0.0424 -1.0689
 5092TIP3   OH236766   6.691   3.766  11.155 -0.4925  0.1946  0.3683
 5092TIP3    H136767   6.615   3.728  11.112 -0.4892 -1.5271  1.8326
 5092TIP3    H236768   6.739   3.811  11.085 -2.1157  0.1275 -0.8120
 5093TIP3   OH236769   3.460   5.241   1.778  0.0063 -0.5772  0.1144
 5093TIP3    H136770   3.510   5.204   1.706  0.3942 -0.2700  0.2204
 5093TIP3    H236771   3.507   5.213   1.857  0.3294  0.1723  0.1930
 5094TIP3   OH236772   1.891   0.134  13.719  0.0724  0.6176  0.2215
 5094TIP3    H136773   1.883   0.157  13.627  0.8648  0.3994  0.0911
 5094TIP3    H236774   1.802   0.137  13.753 -0.5802 -1.8393 -1.1588
 5095TIP3   OH236775   0.051   3.358  11.614  0.3545 -0.4516 -0.4152
 5095TIP3    H136776  -0.034   3.402  11.616 -0.0812 -1.3101 -0.0405
 5095TIP3    H236777   0.080   3.365  11.523  0.6725  1.3371 -0.1888
 5096TIP3   OH236778   0.091   3.992  15.696  0.0364  0.4915 -0.1027
 5096TIP3    H136779   0.031   4.009  15.768 -0.5119 -0.7836 -0.2419
 5096TIP3    H236780   0.049   4.032  15.620  0.1167  0.9419  0.0874
 5097TIP3   OH236781   3.885   0.326   4.950 -0.3445 -0.2068  0.1670
 5097TIP3    H136782   3.966   0.279   4.926 -1.8662 -1.9937 -1.6614
 5097TIP3    H236783   3.848   0.274   5.021 -1.0337 -0.7079 -0.5456
 5098TIP3   OH236784   5.888   6.387  14.826  0.5846  0.6087 -0.2794
 5098TIP3    H136785   5.865   6.317  14.887 -0.3950 -0.9243 -2.3568
 5098TIP3    H236786   5.820   6.453  14.839  0.4394  0.3422  0.3511
 5099TIP3   OH236787   1.573   5.455  12.174 -0.2625  0.0458  0.7675
 5099TIP3    H136788   1.509   5.394  12.137 -1.3019  0.2090  2.2374
 5099TIP3    H236789   1.616   5.405  12.243  0.3943  0.3010  0.5404
 5100TIP3   OH236790   6.121   1.454  15.540  0.1884  0.0595 -0.3809
 5100TIP3    H136791   6.095   1.369  15.506  1.8903  0.1384 -1.9556
 5100TIP3    H236792   6.039   1.497  15.564 -0.6989 -1.9048  0.1966
 5101TIP3   OH236793   2.408   0.503  13.575  0.3180 -0.0770  0.0173
 5101TIP3    H136794   2.426   0.588  13.615 -1.6807  0.1216  0.5552
 5101TIP3    H236795   2.475   0.444  13.611  0.4104  0.7871  1.2689
 5102TIP3   OH236796   2.210   5.724  13.894  0.6689  0.1444  0.1115
 5102TIP3    H136797   2.244   5.800  13.846  1.8884 -1.1354 -1.1103
 5102TIP3    H236798   2.289   5.678  13.923 -0.0766 -0.0056  1.9060
 5103TIP3   OH236799   1.649   1.133   5.821 -0.1425 -0.3102  0.3276
 5103TIP3    H136800   1.562   1.099   5.842  0.3138 -1.2343  0.7424
 5103TIP3    H236801   1.699   1.125   5.902  0.2603  0.4746  0.1704
 5104TIP3   OH236802   1.748   5.328   3.169 -1.2750  0.5543  0.7238
 5104TIP3    H136803   1.760   5.383   3.247 -2.5530  0.1820  1.1976
 5104TIP3    H236804   1.686   5.261   3.197 -2.3629  0.8899 -0.8736
 5105TIP3   OH236805   3.505   1.957   3.420  0.5443 -0.0106 -0.6216
 5105TIP3    H136806   3.432   1.979   3.362 -1.2002 -2.2753  0.5917
 5105TIP3    H236807   3.560   1.898   3.368 -0.2651 -0.9109 -0.4772
 5106TIP3   OH236808   1.469   0.251  15.345 -0.4461 -0.1761 -0.4150
 5106TIP3    H136809   1.494   0.176  15.291  0.3590  1.0055 -1.7207
 5106TIP3    H236810   1.450   0.213  15.431  4.3771 -1.3955  0.3028
 5107TIP3   OH236811   1.082   1.354  14.916  0.0200  0.2413  0.2975
 5107TIP3    H136812   1.036   1.405  14.983  0.5662  0.9472  0.1278
 5107TIP3    H236813   1.098   1.416  14.845  0.4523 -0.2281 -0.0148
 5108TIP3   OH236814   3.838   1.540  17.021  0.2483 -0.5188 -0.0438
 5108TIP3    H136815   3.805   1.595  17.092  0.8076 -1.0646  0.6344
 5108TIP3    H236816   3.790   1.571  16.944  0.2604  0.6436  0.4031
 5109TIP3   OH236817   3.923   6.281  13.343 -0.8751  0.1485 -0.8377
 5109TIP3    H136818   3.902   6.335  13.419 -0.2318  2.6064 -2.3557
 5109TIP3    H236819   3.996   6.226  13.372  0.1984  1.9583 -0.0413
 5110TIP3   OH236820   5.046   4.123   2.837 -0.3531  0.5456  0.1921
 5110TIP3    H136821   5.134   4.094   2.812 -0.5479  0.5066 -0.4744
 5110TIP3    H236822   5.021   4.186   2.769 -1.3581 -0.4432 -0.3909
 5111TIP3   OH236823   0.874   1.114   1.235  0.4381 -1.0544 -0.0494
 5111TIP3    H136824   0.917   1.029   1.226  2.3494  0.0068 -1.1487
 5111TIP3    H236825   0.822   1.123   1.155  0.6375 -0.9635 -0.1686
 5112TIP3   OH236826   0.639   1.566   3.491  0.4707  0.7514 -0.0586
 5112TIP3    H136827   0.682   1.486   3.462  1.9474  1.4080  0.2958
 5112TIP3    H236828   0.602   1.603   3.410 -0.6381 -0.4969 -0.1574
 5113TIP3   OH236829   6.275   1.665   2.303 -0.3032  0.4404 -1.3481
 5113TIP3    H136830   6.304   1.750   2.270 -0.1839  0.1487 -2.0048
 5113TIP3    H236831   6.243   1.619   2.225 -0.6890  0.0151 -0.9423
 5114TIP3   OH236832   2.934   1.119   2.856  0.4473  0.3300  0.1551
 5114TIP3    H136833   2.993   1.162   2.794  0.9790  0.6754  0.8966
 5114TIP3    H236834   2.990   1.057   2.902  0.0241 -0.0133  0.2043
 5115TIP3   OH236835   0.183   0.891   5.023 -0.4778  0.0366 -0.4893
 5115TIP3    H136836   0.157   0.929   5.108  0.3342  0.9727 -0.6495
 5115TIP3    H236837   0.176   0.797   5.036 -1.3519  0.2022  0.3071
 5116TIP3   OH236838   3.785   2.007   3.740 -0.0464 -0.0494  0.7205
 5116TIP3    H136839   3.796   2.073   3.672  2.1967  0.7352  1.7865
 5116TIP3    H236840   3.701   2.027   3.780 -0.3774  0.8317 -0.3962
 5117TIP3   OH236841   6.085   4.103   4.191 -0.5171  0.0553  0.0632
 5117TIP3    H136842   6.163   4.150   4.219  1.1500 -1.6249 -1.6193
 5117TIP3    H236843   6.055   4.151   4.113 -0.2098 -0.2303 -0.2356
 5118TIP3   OH236844   3.268   2.888  11.377 -0.3722  0.5753 -0.0893
 5118TIP3    H136845   3.322   2.840  11.441  0.5644  0.8064 -0.6858
 5118TIP3    H236846   3.225   2.819  11.327  0.5362  0.3475 -0.5811
 5119TIP3   OH236847   5.006   1.454  14.143  0.1388 -0.0394  0.0278
 5119TIP3    H136848   4.991   1.492  14.056 -2.8565 -0.2381  0.3909
 5119TIP3    H236849   5.047   1.370  14.126  1.1998  0.6743 -1.0758
 5120TIP3   OH236850   6.143   3.885  10.538  0.2393  0.8318  0.4688
 5120TIP3    H136851   6.148   3.792  10.514 -1.0822  0.9754 -0.4764
 5120TIP3    H236852   6.234   3.913  10.542  0.6190  0.0859 -1.7295
 5121TIP3   OH236853   0.790   1.228  12.399  0.6346  0.5982  0.7772
 5121TIP3    H136854   0.820   1.229  12.490  2.0617  1.4383  0.3194
 5121TIP3    H236855   0.824   1.146  12.363  1.1724  0.8637  0.6641
 5122TIP3   OH236856   4.102   6.406  12.312  0.6534  0.0681  0.1709
 5122TIP3    H136857   4.029   6.373  12.365  1.7105 -0.2004  1.4744
 5122TIP3    H236858   4.082   6.499  12.300 -0.3160 -0.1754 -0.1698
 5123TIP3   OH236859   3.150   0.885  10.925  0.1482 -0.2172 -0.6522
 5123TIP3    H136860   3.223   0.910  10.981  1.4422  0.6787 -2.7187
 5123TIP3    H236861   3.167   0.793  10.903 -0.3971 -0.5909  0.4554
 5124TIP3   OH236862   4.730   1.717   0.789 -0.1378 -0.0048  0.6304
 5124TIP3    H136863   4.797   1.745   0.852  2.3492  0.0487 -1.9342
 5124TIP3    H236864   4.667   1.790   0.788  0.0011  0.1836  2.6951
 5125TIP3   OH236865   3.745   1.891  15.994  0.2360  0.2977 -0.3489
 5125TIP3    H136866   3.715   1.808  15.956 -1.7868  0.1365  1.5687
 5125TIP3    H236867   3.730   1.882  16.088  1.0010  2.4513  0.0102
 5126TIP3   OH236868   5.093   3.686  16.026 -0.3622 -0.7868  0.0224
 5126TIP3    H136869   5.095   3.632  15.947  1.0683  1.3932 -1.4739
 5126TIP3    H236870   5.164   3.652  16.080  1.0306  0.0523 -1.2484
 5127TIP3   OH236871   6.574   5.659   2.065  0.2120 -0.1682 -0.6270
 5127TIP3    H136872   6.560   5.653   2.160 -2.6009 -1.6077 -1.0669
 5127TIP3    H236873   6.537   5.744   2.041 -1.5346 -0.9349 -0.7652
 5128TIP3   OH236874   1.940   6.628  13.292 -0.1307  0.2757 -0.2251
 5128TIP3    H136875   1.913   6.708  13.339 -0.1743  1.0103 -1.4796
 5128TIP3    H236876   1.949   6.562  13.361 -3.0025  0.5662  0.4864
 5129TIP3   OH236877   1.552   4.789  14.477  0.0645  0.0239 -0.9359
 5129TIP3    H136878   1.534   4.721  14.412 -0.9176  0.7604 -1.4497
 5129TIP3    H236879   1.493   4.861  14.454 -1.7619 -0.4424  1.9383
 5130TIP3   OH236880   0.868   6.809   6.208  0.3039 -0.7511 -0.3088
 5130TIP3    H136881   0.916   6.891   6.195  0.7321 -0.9752 -0.1416
 5130TIP3    H236882   0.827   6.792   6.123 -0.7130  0.2193 -0.0339
 5131TIP3   OH236883   0.487   1.458  16.451  0.3638  0.0277  0.6971
 5131TIP3    H136884   0.492   1.508  16.370  0.3087  0.9425  1.2435
 5131TIP3    H236885   0.515   1.370  16.427  0.7621  0.3955 -0.2210
 5132TIP3   OH236886   6.559   0.734   6.264  0.2185  0.4568 -0.2789
 5132TIP3    H136887   6.551   0.686   6.347 -0.0324  0.0276 -0.5480
 5132TIP3    H236888   6.610   0.812   6.286  0.6940  0.0285  0.1473
 5133TIP3   OH236889   6.586   4.212  17.043 -0.0803 -0.4237  0.4801
 5133TIP3    H136890   6.584   4.175  17.131 -1.2799 -0.9464  0.2484
 5133TIP3    H236891   6.642   4.152  16.993 -1.4612 -1.5890  0.2755
 5134TIP3   OH236892   6.064   3.546  12.075 -0.2452 -0.0285  0.3485
 5134TIP3    H136893   6.019   3.586  12.001 -2.4410 -0.3837  1.4310
 5134TIP3    H236894   6.054   3.452  12.061  1.5664 -0.1634 -0.2026
 5135TIP3   OH236895   0.036   6.568   0.342 -0.0420  0.5833 -0.1992
 5135TIP3    H136896  -0.013   6.551   0.262  1.2363 -1.3688 -0.6002
 5135TIP3    H236897  -0.018   6.531   0.412 -1.2234  2.4088 -0.1055
 5136TIP3   OH236898   4.912   3.279   4.298  0.1525 -0.1671  0.1173
 5136TIP3    H136899   4.884   3.188   4.309  1.4182 -1.0262 -3.1621
 5136TIP3    H236900   4.839   3.320   4.251 -0.5869  0.6336  1.9426
 5137TIP3   OH236901   6.687   1.115  14.235  0.1751 -0.0392 -0.5784
 5137TIP3    H136902   6.758   1.061  14.269  1.2919  2.3754  1.0620
 5137TIP3    H236903   6.636   1.139  14.312 -0.0369  1.5933 -1.2074
 5138TIP3   OH236904   0.074   5.557   5.625 -0.1367 -0.2503 -0.1252
 5138TIP3    H136905   0.139   5.594   5.565  0.1077  0.7925  0.7721
 5138TIP3    H236906  -0.010   5.588   5.592  0.0308  0.6947  0.3291
 5139TIP3   OH236907   1.377   5.407  15.461 -0.2361  0.3675  0.1008
 5139TIP3    H136908   1.331   5.365  15.534 -0.6603 -0.1190 -0.4417
 5139TIP3    H236909   1.307   5.445  15.407 -0.0671 -1.1859 -1.2380
 5140TIP3   OH236910   3.926   0.065   3.478 -0.0472 -0.3066 -0.1335
 5140TIP3    H136911   3.966  -0.022   3.468 -0.6688 -0.4767 -1.2124
 5140TIP3    H236912   3.968   0.118   3.410 -0.8217 -0.1904 -0.5265
 5141TIP3   OH236913   0.041   4.253  13.869 -0.1526  0.6532 -0.0685
 5141TIP3    H136914   0.136   4.248  13.881 -0.1147  1.7106  0.0704
 5141TIP3    H236915   0.016   4.338  13.906 -1.2845 -0.0301  0.7776
 5142TIP3   OH236916   1.863   4.784  15.480 -0.3933  0.2828  0.1935
 5142TIP3    H136917   1.890   4.873  15.500  0.0722  0.3839 -0.8395
 5142TIP3    H236918   1.810   4.793  15.400 -1.6082 -0.1781  0.9437
 5143TIP3   OH236919   2.268   2.435   4.972 -0.6024  0.1729  0.6158
 5143TIP3    H136920   2.228   2.507   5.021 -1.9654  1.3128 -2.0372
 5143TIP3    H236921   2.194   2.384   4.940  0.2753 -0.9543  0.3571
 5144TIP3   OH236922   1.597   6.487   0.566  0.4105  0.6085 -0.6888
 5144TIP3    H136923   1.641   6.415   0.611 -1.4238  2.3560  4.2493
 5144TIP3    H236924   1.651   6.564   0.585 -1.7277  1.8121  0.7019
 5145TIP3   OH236925   0.570   3.587  12.591  0.4413  0.1878 -0.1307
 5145TIP3    H136926   0.521   3.505  12.585 -1.6493  1.3874  0.0145
 5145TIP3    H236927   0.651   3.570  12.543 -0.1985 -1.7936 -0.5547
 5146TIP3   OH236928   5.228   0.204  11.413 -0.1040  0.6410 -0.2658
 5146TIP3    H136929   5.174   0.137  11.455 -0.8008 -0.8245 -3.3799
 5146TIP3    H236930   5.314   0.162  11.404  0.5890  1.6491  1.3343
 5147TIP3   OH236931   0.782   5.751  17.087  0.2519  0.2299  0.2450
 5147TIP3    H136932   0.785   5.838  17.127  0.2564 -0.1411  1.0669
 5147TIP3    H236933   0.859   5.706  17.123  0.4899  0.0246 -0.5062
 5148TIP3   OH236934   5.819   4.233  11.565 -0.0824  0.6670  0.6527
 5148TIP3    H136935   5.734   4.220  11.524  1.3196  1.2202 -2.5246
 5148TIP3    H236936   5.829   4.157  11.623 -1.5427 -0.8778 -1.0377
 5149TIP3   OH236937   5.233   1.212  15.064 -0.5835  0.4794 -0.2427
 5149TIP3    H136938   5.156   1.216  15.007 -0.8237 -1.1823 -0.0705
 5149TIP3    H236939   5.303   1.252  15.012 -0.7091 -1.3406 -1.8914
 5150TIP3   OH236940   4.930   4.188   4.487 -0.9863  0.0993  0.3593
 5150TIP3    H136941   4.994   4.118   4.501 -2.5017 -0.9139  2.4541
 5150TIP3    H236942   4.888   4.166   4.404  1.5367  0.9448 -1.2085
 5151TIP3   OH236943   1.093   3.663  16.612 -0.4393 -0.4069 -0.0234
 5151TIP3    H136944   1.118   3.632  16.525  0.2990  0.1125 -0.0033
 5151TIP3    H236945   1.056   3.587  16.655  0.7991 -1.1200 -0.1882
 5152TIP3   OH236946   6.416   5.866  11.945 -0.0228 -0.2494 -0.0279
 5152TIP3    H136947   6.511   5.869  11.950  0.0509  1.2923 -1.8040
 5152TIP3    H236948   6.398   5.807  11.872 -0.3692  0.8630 -0.8592
 5153TIP3   OH236949   0.731   4.418  13.761 -0.1960 -0.1478 -0.1019
 5153TIP3    H136950   0.716   4.336  13.715  1.3365 -0.2002 -0.5220
 5153TIP3    H236951   0.646   4.440  13.799 -1.4134 -0.3142 -2.6070
 5154TIP3   OH236952   2.121   0.829   0.345 -0.3364 -0.1858  0.2855
 5154TIP3    H136953   2.157   0.890   0.280  1.5314 -1.1951  0.3442
 5154TIP3    H236954   2.183   0.832   0.418  0.1420 -2.6196  0.0282
 5155TIP3   OH236955   5.927   4.838  12.369 -0.0506 -0.1619 -0.1169
 5155TIP3    H136956   5.900   4.772  12.433 -0.3734  0.0763 -0.0080
 5155TIP3    H236957   6.020   4.853  12.389  0.1460 -0.9204 -0.4438
 5156TIP3   OH236958   4.899   1.325  15.788  0.0826  0.5361 -0.0404
 5156TIP3    H136959   4.809   1.320  15.821 -0.4061 -0.8783 -1.5044
 5156TIP3    H236960   4.954   1.310  15.864 -0.8752  3.0737  1.2015
 5157TIP3   OH236961   6.227   3.938  15.277  0.1538  0.0289 -0.3927
 5157TIP3    H136962   6.165   4.010  15.291 -0.1299 -0.4971  1.1567
 5157TIP3    H236963   6.255   3.913  15.365  0.8942 -1.1999 -0.9614
 5158TIP3   OH236964   6.720   4.881   2.541 -0.4106 -0.1714  0.0279
 5158TIP3    H136965   6.759   4.966   2.520 -0.8060  0.1846  0.7260
 5158TIP3    H236966   6.748   4.823   2.470  2.3763 -0.2353  1.1438
 5159TIP3   OH236967   3.931   6.472  16.481 -0.4771 -0.0016  0.0484
 5159TIP3    H136968   3.890   6.385  16.477 -0.7096  0.0875  0.4920
 5159TIP3    H236969   3.947   6.487  16.574  0.2264  0.1237 -0.0891
 5160TIP3   OH236970   1.223   1.631  15.090  0.0723  0.0209 -0.5775
 5160TIP3    H136971   1.129   1.637  15.074  0.3031 -1.1192 -2.4348
 5160TIP3    H236972   1.231   1.577  15.169 -0.8468  0.5301 -0.1395
 5161TIP3   OH236973   2.714   4.621   0.577  0.6131 -0.2779  0.2310
 5161TIP3    H136974   2.745   4.704   0.613  1.2649 -0.1239 -0.6636
 5161TIP3    H236975   2.791   4.565   0.575  0.2817 -0.7492  0.3616
 5162TIP3   OH236976   5.635   3.384  15.607 -0.1683  0.2392  0.1143
 5162TIP3    H136977   5.624   3.453  15.542  0.4139  0.1914 -0.0424
 5162TIP3    H236978   5.560   3.327  15.594  0.8326 -0.7277 -1.7061
 5163TIP3   OH236979   6.430   0.363  16.530 -0.1306  0.0040 -0.3586
 5163TIP3    H136980   6.413   0.341  16.622  0.5702  0.2661 -0.1649
 5163TIP3    H236981   6.354   0.414  16.502  0.6095  1.7238  0.6918
 5164TIP3   OH236982   1.284   4.983  13.665 -0.0060 -0.0368 -0.8871
 5164TIP3    H136983   1.314   4.893  13.646  0.8836  0.5827 -2.5828
 5164TIP3    H236984   1.198   4.988  13.625 -0.3832 -0.3510 -0.1347
 5165TIP3   OH236985   4.785   0.543  12.436  0.2373 -0.3387  0.2082
 5165TIP3    H136986   4.875   0.512  12.433  0.6078  0.7037  0.3970
 5165TIP3    H236987   4.750   0.524  12.348  0.6140 -0.8241  0.1683
 5166TIP3   OH236988   3.657   1.052   4.566  0.0096 -0.5256  0.5377
 5166TIP3    H136989   3.699   1.079   4.647 -1.8742 -1.0125  1.6883
 5166TIP3    H236990   3.617   1.132   4.531  2.7837  0.2080 -1.1794
 5167TIP3   OH236991   6.662   6.691  14.542  0.0067 -0.0481 -0.2587
 5167TIP3    H136992   6.692   6.706  14.631  1.6200  4.3147 -1.3943
 5167TIP3    H236993   6.734   6.642  14.501 -0.0310 -0.6670  0.4089
 5168TIP3   OH236994   4.534   5.328   3.753 -0.4279 -0.6007 -0.1438
 5168TIP3    H136995   4.576   5.249   3.787 -1.1261 -0.7869  0.2932
 5168TIP3    H236996   4.585   5.400   3.788  0.7345 -0.8777 -1.2405
 5169TIP3   OH236997   1.157   0.558  11.653 -0.1176  0.4441 -0.4491
 5169TIP3    H136998   1.245   0.559  11.689 -0.3721  1.0538  0.1607
 5169TIP3    H236999   1.135   0.465  11.647  0.6675  0.2817 -0.8612
 5170TIP3   OH237000   4.699   5.194   2.457  0.2038 -0.5701 -0.2927
 5170TIP3    H137001   4.710   5.107   2.418  1.4410 -1.2543  1.5077
 5170TIP3    H237002   4.704   5.179   2.551 -1.4810  1.2221  0.1006
 5171TIP3   OH237003   4.763   3.613  11.102 -0.0506  0.0792 -0.7021
 5171TIP3    H137004   4.765   3.621  11.197  1.2062  2.7886 -0.9232
 5171TIP3    H237005   4.683   3.658  11.075 -0.8247 -1.3882 -0.8804
 5172TIP3   OH237006   4.335   5.278  16.255 -0.5565  0.2993  0.2508
 5172TIP3    H137007   4.282   5.358  16.248  0.3532  0.9339  0.5007
 5172TIP3    H237008   4.311   5.227  16.178  1.7292  2.5740 -2.0759
 5173TIP3   OH237009   6.724   5.107  15.633 -0.1060 -0.7430  0.8022
 5173TIP3    H137010   6.758   5.138  15.717 -2.1036 -1.7351  2.0090
 5173TIP3    H237011   6.704   5.187  15.584  1.2617 -0.1631  1.1769
 5174TIP3   OH237012   1.402   6.067  14.701  0.2047  0.6784  0.5185
 5174TIP3    H137013   1.490   6.044  14.731  0.0689  0.0464  0.4439
 5174TIP3    H237014   1.416   6.110  14.617  0.2772 -1.8707 -0.8233
 5175TIP3   OH237015   3.623   6.042  11.613 -0.1670  0.5589  1.0498
 5175TIP3    H137016   3.626   5.976  11.681  0.0104  1.1390  1.6105
 5175TIP3    H237017   3.606   6.124  11.660  1.2157  1.1468  0.5257
 5176TIP3   OH237018   2.283   4.354  16.887  0.4283  0.2008 -0.1912
 5176TIP3    H137019   2.263   4.394  16.802  0.2121 -0.1158 -0.2881
 5176TIP3    H237020   2.335   4.420  16.932  0.9143  0.2036 -0.7384
 5177TIP3   OH237021   1.326   1.853   5.259 -0.4153  0.0200  0.5799
 5177TIP3    H137022   1.346   1.921   5.324  1.9517 -0.2557  0.1754
 5177TIP3    H237023   1.292   1.901   5.184  1.1589  0.7860  0.3321
 5178TIP3   OH237024   0.245   4.410   5.326 -0.0865 -0.7167 -0.6464
 5178TIP3    H137025   0.247   4.314   5.321  1.5740 -0.8146  1.3406
 5178TIP3    H237026   0.337   4.435   5.324 -0.4833  0.7904 -0.1815
 5179TIP3   OH237027   1.943   2.777   6.828 -0.8681  0.1775 -0.3507
 5179TIP3    H137028   1.873   2.725   6.866 -0.7719  0.2170 -0.1213
 5179TIP3    H237029   1.931   2.865   6.865 -1.4329  0.4871 -1.2383
 5180TIP3   OH237030   1.383   0.552   2.870  0.2143  0.3340  0.6269
 5180TIP3    H137031   1.322   0.594   2.931  1.3713  1.1199  1.2862
 5180TIP3    H237032   1.468   0.590   2.893  1.0538 -1.2264  0.1749
 5181TIP3   OH237033   4.908   4.483   2.901  0.2899  0.3825 -0.4387
 5181TIP3    H137034   4.942   4.484   2.990 -0.3295  0.8946 -0.2082
 5181TIP3    H237035   4.976   4.526   2.849  0.8076 -0.2296 -0.2719
 5182TIP3   OH237036   2.736   1.603   1.017  1.1019 -0.3134  0.3550
 5182TIP3    H137037   2.649   1.575   0.986  1.6291 -1.3392 -0.2252
 5182TIP3    H237038   2.718   1.677   1.075 -0.1088 -0.0521 -0.3365
 5183TIP3   OH237039   4.109   2.411  12.036  0.0511 -0.0132  0.3926
 5183TIP3    H137040   4.113   2.427  11.942  1.2398 -1.0740  0.2514
 5183TIP3    H237041   4.110   2.499  12.075  2.1902  0.3952 -0.5062
 5184TIP3   OH237042   4.614   0.145  15.107  0.6787 -0.2427 -0.1883
 5184TIP3    H137043   4.521   0.129  15.092  1.2794 -3.1975 -1.2524
 5184TIP3    H237044   4.634   0.097  15.188  1.5119 -0.7281 -0.6691
 5185TIP3   OH237045   3.750   4.550  16.148  0.7153  0.4974  0.5274
 5185TIP3    H137046   3.668   4.529  16.104  0.7342  0.3221  0.5758
 5185TIP3    H237047   3.817   4.544  16.080  1.1457 -2.5849  1.1565
 5186TIP3   OH237048   1.820   5.043  12.249  0.1392  0.0460  0.5406
 5186TIP3    H137049   1.904   5.052  12.294  0.2703 -0.5870  0.4271
 5186TIP3    H237050   1.838   4.985  12.175 -0.8768 -1.9764  1.8153
 5187TIP3   OH237051   6.772   2.325   3.227  0.3179 -0.4568 -0.0177
 5187TIP3    H137052   6.721   2.265   3.282  0.1402  0.2830  0.6336
 5187TIP3    H237053   6.762   2.410   3.269  2.1371 -0.3093  0.1490
 5188TIP3   OH237054   2.658   3.387  11.219 -0.3515  1.1004  0.1832
 5188TIP3    H137055   2.668   3.341  11.135 -1.9558  1.6090 -0.2950
 5188TIP3    H237056   2.747   3.414  11.242  0.1783  0.4943 -1.0915
 5189TIP3   OH237057   4.821   5.207  12.799 -0.3981 -0.1393  0.4341
 5189TIP3    H137058   4.823   5.118  12.835  0.0183 -0.1745  0.3209
 5189TIP3    H237059   4.728   5.224  12.784 -0.3160 -1.4319 -1.7103
 5190TIP3   OH237060   3.838   0.940  10.587  0.9744 -0.1628 -0.3031
 5190TIP3    H137061   3.886   0.864  10.554  0.8629 -1.7425  2.9529
 5190TIP3    H237062   3.747   0.923  10.563  1.4809  1.1013 -3.3488
 5191TIP3   OH237063   3.017   3.500   1.960  0.2424 -0.8219 -0.1216
 5191TIP3    H137064   3.002   3.420   2.011  1.6453 -1.8309 -1.2527
 5191TIP3    H237065   3.091   3.479   1.904  0.7727  1.3641 -0.2862
 5192TIP3   OH237066   3.469   2.668   2.209  0.1187 -0.1147 -0.3352
 5192TIP3    H137067   3.489   2.704   2.123 -0.7654 -1.7787 -1.2654
 5192TIP3    H237068   3.531   2.596   2.220  0.4325  0.2894  0.5627
 5193TIP3   OH237069   2.792   4.798   5.887  0.7155 -0.1728  0.2043
 5193TIP3    H137070   2.831   4.728   5.940 -1.7420 -1.2987  0.6238
 5193TIP3    H237071   2.813   4.879   5.935 -0.3015 -1.0556  2.2012
 5194TIP3   OH237072   3.597   1.980  12.649  0.3260 -0.3640  0.2750
 5194TIP3    H137073   3.644   1.915  12.703  1.8914  0.8659  0.4272
 5194TIP3    H237074   3.564   2.044  12.712  1.9243  0.9286 -0.1795
 5195TIP3   OH237075   1.115   2.389  14.781 -0.3447 -0.4310  0.2468
 5195TIP3    H137076   1.062   2.447  14.836 -0.9677 -0.9468  0.1989
 5195TIP3    H237077   1.200   2.385  14.825 -0.6418 -0.3435  0.8358
 5196TIP3   OH237078   0.370   2.983   3.228  0.6288 -0.6667 -0.4623
 5196TIP3    H137079   0.462   2.972   3.254  0.2162 -1.3783  0.7265
 5196TIP3    H237080   0.333   2.895   3.233 -0.3092 -0.2561 -0.2186
 5197TIP3   OH237081   0.314   4.435  11.378  0.2682 -0.3541 -0.0756
 5197TIP3    H137082   0.354   4.442  11.465 -0.2035  1.5125  0.0049
 5197TIP3    H237083   0.265   4.516  11.367  0.5589 -0.4392 -2.2191
 5198TIP3   OH237084   1.567   6.535  13.273  0.0780  0.2107 -0.0204
 5198TIP3    H137085   1.609   6.452  13.248  0.0743 -1.3431  4.5608
 5198TIP3    H237086   1.478   6.528  13.239  0.4129 -1.2107 -0.6378
 5199TIP3   OH237087   2.105   1.579  15.525  0.0318 -0.1138  0.4661
 5199TIP3    H137088   2.114   1.509  15.459 -1.2236 -1.5945  1.8154
 5199TIP3    H237089   2.079   1.533  15.605  1.9467  1.6090  2.1223
 5200TIP3   OH237090   4.432   1.306  17.288 -0.1406 -0.0154  0.4655
 5200TIP3    H137091   4.448   1.400  17.296  0.2154 -0.0167 -0.2218
 5200TIP3    H237092   4.513   1.265  17.318  0.7099 -0.0450 -1.7782
 5201TIP3   OH237093   1.715   0.847  14.133  0.1464  0.4992 -0.3448
 5201TIP3    H137094   1.756   0.769  14.171  0.9216  0.0895 -1.9496
 5201TIP3    H237095   1.788   0.895  14.092 -0.3121  2.1197  0.7018
 5202TIP3   OH237096   3.409   2.703  14.940  0.3087  0.1450 -0.4831
 5202TIP3    H137097   3.327   2.660  14.966  0.4385 -0.2311 -0.6839
 5202TIP3    H237098   3.396   2.724  14.847  1.2018 -1.7638 -1.0832
 5203TIP3   OH237099   4.872   6.804  15.928  0.0115  0.0960 -0.3865
 5203TIP3    H137100   4.864   6.848  16.013  0.1562  0.4226 -0.5429
 5203TIP3    H237101   4.784   6.809  15.890  0.4973  2.0185 -1.2817
 5204TIP3   OH237102   2.808   1.187  16.143  0.0708  0.2509  0.4767
 5204TIP3    H137103   2.894   1.198  16.104 -0.4259  0.1471 -0.6780
 5204TIP3    H237104   2.823   1.190  16.237  1.1981  1.2267  0.2657
 5205TIP3   OH237105   5.664   2.498   1.118  0.6121 -0.2523  0.6876
 5205TIP3    H137106   5.665   2.450   1.035 -1.3684 -1.8852  1.5588
 5205TIP3    H237107   5.574   2.490   1.149  0.8009  2.1586  1.9802
 5206TIP3   OH237108   5.084   4.563   5.154  0.0760  0.4154 -0.4024
 5206TIP3    H137109   5.068   4.529   5.242 -0.0235 -1.8394 -1.2641
 5206TIP3    H237110   5.179   4.575   5.150  0.2658 -0.9932 -0.4961
 5207TIP3   OH237111   6.092   0.214   1.803  0.7661  0.4860  0.0957
 5207TIP3    H137112   6.058   0.256   1.725 -0.1416  0.9011  0.7097
 5207TIP3    H237113   6.161   0.273   1.834  2.2476 -0.4700 -1.2749
 5208TIP3   OH237114   1.291   5.999  14.953  0.1448 -0.5333 -0.3683
 5208TIP3    H137115   1.196   5.995  14.947  0.1255  0.4552 -0.7715
 5208TIP3    H237116   1.320   6.018  14.863  0.7569 -1.3744 -0.3598
 5209TIP3   OH237117   0.381   6.146   3.876  0.5258  0.0013 -0.0735
 5209TIP3    H137118   0.343   6.115   3.794  0.4056 -1.2772  0.4663
 5209TIP3    H237119   0.326   6.221   3.900 -0.7216 -0.9087 -0.0760
 5210TIP3   OH237120   1.896   5.786  14.709  0.6409  0.5863 -0.0150
 5210TIP3    H137121   1.983   5.798  14.746  0.8899  1.0409 -0.7451
 5210TIP3    H237122   1.911   5.778  14.615 -0.0216 -0.1970 -0.0640
 5211TIP3   OH237123   6.314   6.194   5.398  0.1743  0.1208  0.6564
 5211TIP3    H137124   6.278   6.128   5.457 -0.0825  0.6583  1.1042
 5211TIP3    H237125   6.247   6.263   5.397  1.1582  1.0937  1.4262
 5212TIP3   OH237126   3.279   0.336  14.428  0.4682 -0.1427 -0.0708
 5212TIP3    H137127   3.291   0.331  14.523 -1.6992  0.9134  0.2963
 5212TIP3    H237128   3.224   0.260  14.407 -3.3581  2.4067  0.3317
 5213TIP3   OH237129   2.844   4.419  12.881  0.1851  0.6545  0.5534
 5213TIP3    H137130   2.827   4.388  12.792  1.3899 -0.3590  0.6627
 5213TIP3    H237131   2.919   4.478  12.872  0.5248  0.2853  0.9422
 5214TIP3   OH237132   2.377   0.137  16.452 -0.7859 -0.0743  0.3099
 5214TIP3    H137133   2.301   0.145  16.510 -1.3127  0.3425 -0.4356
 5214TIP3    H237134   2.355   0.064  16.394 -1.5845  1.4059 -1.3231
 5215TIP3   OH237135   2.708   4.854  13.230  0.0577 -0.2212  0.0308
 5215TIP3    H137136   2.642   4.875  13.296 -0.4581 -1.9958  0.1093
 5215TIP3    H237137   2.773   4.924  13.238 -1.0570  0.7300  0.9674
 5216TIP3   OH237138   3.738   6.661  11.720 -0.2046 -0.1865 -0.0449
 5216TIP3    H137139   3.669   6.725  11.739 -0.4801 -0.0762 -1.3989
 5216TIP3    H237140   3.750   6.615  11.803 -1.3807  0.2983  0.4143
 5217TIP3   OH237141   4.723   0.397   4.204  0.4097  0.3910 -0.5211
 5217TIP3    H137142   4.697   0.340   4.131  0.6651 -0.5996  0.1564
 5217TIP3    H237143   4.806   0.361   4.234  0.5621  1.1110 -0.0732
 5218TIP3   OH237144   5.057   4.224  11.601 -0.0161 -0.2637  0.1699
 5218TIP3    H137145   5.092   4.308  11.630 -0.0703 -0.0068 -0.5076
 5218TIP3    H237146   5.064   4.168  11.678  0.2972  0.2743  0.5392
 5219TIP3   OH237147   0.959   5.562  10.733  1.0102 -0.7257 -0.0034
 5219TIP3    H137148   0.936   5.650  10.702  1.1263 -0.7489 -0.1568
 5219TIP3    H237149   0.875   5.518  10.742  0.7262  0.2582  2.7136
 5220TIP3   OH237150   3.688   4.915  14.669  0.1974 -0.1551  0.1784
 5220TIP3    H137151   3.743   4.866  14.608  1.0863  0.1687  0.7005
 5220TIP3    H237152   3.677   5.000  14.628  1.9010  0.5181  1.0557
 5221TIP3   OH237153   6.711   1.287  12.189  0.5545  0.1613 -0.7494
 5221TIP3    H137154   6.649   1.331  12.246  1.3813  0.4417 -0.0451
 5221TIP3    H237155   6.727   1.349  12.118 -1.3354 -0.6409 -1.9154
 5222TIP3   OH237156   1.827   5.521  14.532 -0.3834  0.0774  0.2938
 5222TIP3    H137157   1.733   5.509  14.544 -0.5367  1.7543  0.8881
 5222TIP3    H237158   1.841   5.504  14.439 -0.8357 -2.7214  0.6969
 5223TIP3   OH237159   2.118   4.566  14.169  0.3972 -0.4674  0.3745
 5223TIP3    H137160   2.148   4.535  14.083 -0.7644 -0.7291  0.0515
 5223TIP3    H237161   2.049   4.504  14.193  0.6067 -0.2923  1.4242
 5224TIP3   OH237162   2.919   4.449  13.831 -0.5136  0.5769 -0.2061
 5224TIP3    H137163   3.011   4.427  13.844 -0.1372  1.1913 -1.8100
 5224TIP3    H237164   2.902   4.518  13.895  0.1551  0.5125  0.0456
 5225TIP3   OH237165   3.175   4.377  13.902  0.1878 -0.1717  0.4022
 5225TIP3    H137166   3.230   4.391  13.979 -0.7655 -2.7889  1.6121
 5225TIP3    H237167   3.209   4.298  13.861 -3.1638 -2.4226  1.7307
 5226TIP3   OH237168   6.417   5.164  16.456 -0.8842 -0.0476 -0.4259
 5226TIP3    H137169   6.365   5.112  16.517  2.3408 -0.9956  1.6415
 5226TIP3    H237170   6.422   5.111  16.376  0.3214 -1.8015  0.8012
 5227TIP3   OH237171   0.631   0.148   3.008 -0.0593 -0.5882  0.3562
 5227TIP3    H137172   0.590   0.062   3.014 -2.7054  0.5327 -0.6275
 5227TIP3    H237173   0.576   0.197   2.946  0.5282  2.2495  1.9597
 5228TIP3   OH237174   2.583   6.077  16.177 -0.0453 -0.1387  0.4418
 5228TIP3    H137175   2.617   6.115  16.258  2.0378 -2.5235  0.7455
 5228TIP3    H237176   2.554   5.989  16.201 -1.4840 -0.0920 -0.9674
 5229TIP3   OH237177   0.178   0.771  14.519 -0.0386 -0.3454 -0.7035
 5229TIP3    H137178   0.254   0.794  14.572 -0.1456 -1.0861 -0.2201
 5229TIP3    H237179   0.214   0.745  14.435  0.1918 -0.0295 -0.7028
 5230TIP3   OH237180   4.268   3.905  11.521  0.5744  0.3031 -0.4088
 5230TIP3    H137181   4.344   3.858  11.556  0.9812 -0.0563 -1.7475
 5230TIP3    H237182   4.201   3.896  11.589  1.7304  0.6278  0.7915
 5231TIP3   OH237183   6.593   4.137  12.582 -0.3108  0.3281 -0.2899
 5231TIP3    H137184   6.575   4.218  12.628  1.2040  0.3283  0.3554
 5231TIP3    H237185   6.614   4.074  12.651 -3.5771 -1.2204 -0.6272
 5232TIP3   OH237186   5.407   3.043   1.921  0.8705  0.0640 -0.3463
 5232TIP3    H137187   5.467   3.019   1.849  1.2939 -1.3761  0.4613
 5232TIP3    H237188   5.326   2.996   1.901  1.0145 -0.3977  0.1648
 5233TIP3   OH237189   1.556   4.338  13.561 -0.0494 -0.3193 -0.1040
 5233TIP3    H137190   1.534   4.250  13.531 -1.8320  0.7123 -1.9434
 5233TIP3    H237191   1.502   4.396  13.507  1.7812  1.9605  0.4341
 5234TIP3   OH237192   1.721   2.416  11.870  0.5268 -0.0573  0.4569
 5234TIP3    H137193   1.675   2.484  11.821  0.3106 -1.1382 -0.8895
 5234TIP3    H237194   1.795   2.392  11.813  1.5131  0.1618  1.6325
 5235TIP3   OH237195   6.402   5.536   3.746  0.0553  0.0770  0.6959
 5235TIP3    H137196   6.432   5.571   3.830  0.7338  0.2552  0.3839
 5235TIP3    H237197   6.368   5.449   3.766  1.3820 -0.3922  0.9549
 5236TIP3   OH237198   1.733   1.349   4.046 -0.5082  0.1366  0.5523
 5236TIP3    H137199   1.656   1.401   4.024 -0.1092  0.7452  0.5784
 5236TIP3    H237200   1.795   1.368   3.975  0.1174  0.7117  1.2448
 5237TIP3   OH237201   4.296   5.750  10.284 -0.6576 -0.1846 -0.5732
 5237TIP3    H137202   4.233   5.692  10.325 -0.8043  0.3957  0.0331
 5237TIP3    H237203   4.288   5.833  10.332 -0.0163  0.1456 -1.0173
 5238TIP3   OH237204   1.968   5.071  10.740 -0.3172  0.4532  0.4199
 5238TIP3    H137205   1.995   5.153  10.782 -1.2820  0.9644  0.0703
 5238TIP3    H237206   1.957   5.010  10.813 -0.2130  0.8218  0.7477
 5239TIP3   OH237207   0.311   4.608  16.938  0.2112  0.1999 -0.4054
 5239TIP3    H137208   0.325   4.584  17.030  1.2528 -0.3079 -0.6933
 5239TIP3    H237209   0.383   4.566  16.891 -0.1579  0.6941 -1.4225
 5240TIP3   OH237210   0.164   6.378   2.577 -0.2094 -0.0827 -0.2678
 5240TIP3    H137211   0.071   6.365   2.558 -0.0829 -1.5632  0.1111
 5240TIP3    H237212   0.209   6.351   2.497 -0.1625  2.1187 -1.0339
 5241TIP3   OH237213   4.272   4.868  15.569  0.1518  0.0289  0.2283
 5241TIP3    H137214   4.323   4.833  15.643 -2.1245 -0.0384  1.8148
 5241TIP3    H237215   4.207   4.800  15.551  0.1158  0.4464 -1.2493
 5242TIP3   OH237216   1.211   4.580  13.246  0.2645  0.2658 -1.1268
 5242TIP3    H137217   1.227   4.521  13.173 -0.6823  0.4941 -1.5277
 5242TIP3    H237218   1.116   4.593  13.246  0.2844  0.4704 -0.0215
 5243TIP3   OH237219   5.549   0.647   4.360 -0.4299 -0.0843  0.1304
 5243TIP3    H137220   5.618   0.701   4.399  0.2277 -1.9157  1.6141
 5243TIP3    H237221   5.519   0.592   4.432  1.1225 -3.9360 -2.0673
 5244TIP3   OH237222   1.246   4.895  17.055  0.2735  0.1349 -0.1601
 5244TIP3    H137223   1.188   4.846  16.996  0.2279  0.3485 -0.2927
 5244TIP3    H237224   1.323   4.839  17.065  1.1967  0.9967 -2.0754
 5245TIP3   OH237225   6.365   0.729  14.092 -0.1645 -0.0450  0.2603
 5245TIP3    H137226   6.401   0.807  14.136 -2.0537  2.2054 -2.0282
 5245TIP3    H237227   6.418   0.720  14.012 -2.4283  1.2975 -1.4495
 5246TIP3   OH237228   6.548   4.100  16.548  0.3319 -0.3436 -0.4100
 5246TIP3    H137229   6.517   4.130  16.463  2.4303  1.7804 -0.4907
 5246TIP3    H237230   6.621   4.159  16.569 -0.4165 -0.5477  3.0431
 5247TIP3   OH237231   5.299   1.074  14.160  0.5045  0.2368  0.1250
 5247TIP3    H137232   5.232   1.068  14.092  0.4551  0.7373  0.1286
 5247TIP3    H237233   5.356   0.999  14.144  1.0800  0.9299 -1.1057
 5248TIP3   OH237234   0.670   3.705   4.528  0.8258  0.3520  0.0465
 5248TIP3    H137235   0.722   3.678   4.604  0.0873 -1.2476 -0.0110
 5248TIP3    H237236   0.688   3.639   4.462  0.3804  0.9780 -0.7069
 5249TIP3   OH237237   4.513   4.885   2.075  0.3273  0.1790 -0.2748
 5249TIP3    H137238   4.588   4.899   2.018 -0.9697  2.1739 -1.5121
 5249TIP3    H237239   4.478   4.972   2.093 -2.1851 -0.7444 -0.3917
 5250TIP3   OH237240   2.798   1.368   0.016  0.6044 -0.6341 -0.2284
 5250TIP3    H137241   2.841   1.327  -0.059  1.1536 -1.3712  0.4894
 5250TIP3    H237242   2.870   1.400   0.070  0.2418 -1.3540  0.6907
 5251TIP3   OH237243   1.689   0.988  17.103  0.0537 -0.1510  0.1112
 5251TIP3    H137244   1.739   1.055  17.151  0.2962  0.1367 -0.5361
 5251TIP3    H237245   1.609   1.032  17.077  0.2781 -0.0677 -0.4394
 5252TIP3   OH237246   1.117   1.767   4.698 -0.2659  0.0116  0.5262
 5252TIP3    H137247   1.070   1.730   4.773  0.2603 -1.6521  0.0693
 5252TIP3    H237248   1.207   1.735   4.708  0.2231  1.2181  0.1205
 5253TIP3   OH237249   2.948   6.309  16.597 -0.2267  0.2957  0.2040
 5253TIP3    H137250   2.912   6.221  16.609  0.1766  0.3022  1.6657
 5253TIP3    H237251   2.872   6.365  16.585 -0.4948 -0.2345 -0.6216
 5254TIP3   OH237252   3.284   5.019   1.829 -0.2089  1.0555 -0.0229
 5254TIP3    H137253   3.259   5.067   1.907 -0.9347  0.3826  0.1623
 5254TIP3    H237254   3.357   5.069   1.792  1.2056  0.4990  1.9523
 5255TIP3   OH237255   2.504   6.550   4.327  0.1683 -0.0990  1.0942
 5255TIP3    H137256   2.467   6.548   4.238 -1.7823  0.7113  1.8480
 5255TIP3    H237257   2.541   6.463   4.340 -0.6387 -0.6247 -0.0681
 5256TIP3   OH237258   6.819   4.619   5.335 -0.6225  0.0405 -0.5108
 5256TIP3    H137259   6.750   4.591   5.395 -0.9623 -0.1286 -0.9733
 5256TIP3    H237260   6.780   4.692   5.287  0.0872  1.0064  0.3489
 5257TIP3   OH237261   1.976   4.420  15.209 -0.4520 -0.8102 -0.0746
 5257TIP3    H137262   2.034   4.355  15.170  0.0958 -0.6528  0.4586
 5257TIP3    H237263   1.917   4.370  15.264 -0.5692 -0.9368 -0.3181
 5258TIP3   OH237264   6.689   1.729   3.787  0.0700 -0.5347  0.1228
 5258TIP3    H137265   6.620   1.735   3.720  0.6336 -0.9294 -0.4967
 5258TIP3    H237266   6.757   1.675   3.747  0.7174 -0.2016  0.7581
 5259TIP3   OH237267   5.071   0.671  13.822 -0.1970  0.1151 -0.0206
 5259TIP3    H137268   5.095   0.727  13.895 -2.4434  1.7136 -0.4515
 5259TIP3    H237269   4.999   0.617  13.855 -0.5217  0.1146 -0.7169
 5260TIP3   OH237270   0.571   2.606   4.803 -0.2337 -0.0595  0.0792
 5260TIP3    H137271   0.617   2.572   4.727  1.2251  0.7587  0.5612
 5260TIP3    H237272   0.493   2.648   4.768 -0.4212 -1.1334 -0.7977
 5261TIP3   OH237273   1.117   6.428   2.419 -0.0513 -0.7261  0.2990
 5261TIP3    H137274   1.029   6.390   2.425  0.3298 -1.3969  1.8567
 5261TIP3    H237275   1.108   6.497   2.354 -1.4184 -1.6725 -0.5500
 5262TIP3   OH237276   1.072   1.762   5.243 -0.3916  1.1807 -0.0904
 5262TIP3    H137277   1.167   1.767   5.245 -0.3745  1.1360 -0.7739
 5262TIP3    H237278   1.050   1.754   5.150 -0.9976 -0.1727  0.1571
 5263TIP3   OH237279   2.875   0.108  13.187  0.4073  0.0004 -0.1545
 5263TIP3    H137280   2.795   0.160  13.186  0.9115  0.7875 -0.5523
 5263TIP3    H237281   2.911   0.118  13.098  0.8865 -0.4303 -0.0131
 5264TIP3   OH237282   3.624   5.870   1.936 -0.3963 -0.3323 -0.2881
 5264TIP3    H137283   3.543   5.901   1.897 -0.7394 -0.6677  0.1505
 5264TIP3    H237284   3.682   5.946   1.935 -1.4684  0.5349  1.4376
 5265TIP3   OH237285   6.808   3.564   5.343  0.6498 -0.3734  0.6484
 5265TIP3    H137286   6.727   3.599   5.382  0.7224 -0.3154  0.7482
 5265TIP3    H237287   6.875   3.629   5.365  0.5576 -0.0058 -0.1570
 5266TIP3   OH237288   0.146   6.587  14.882 -0.0227 -0.0576  0.0021
 5266TIP3    H137289   0.051   6.597  14.874 -0.0522 -0.5193 -0.2383
 5266TIP3    H237290   0.182   6.650  14.820 -0.1865 -0.5325 -0.5762
 5267TIP3   OH237291   0.893   1.566  15.307  0.5221  0.6245 -0.3392
 5267TIP3    H137292   0.904   1.596  15.216 -0.7024  1.5402 -0.1988
 5267TIP3    H237293   0.893   1.647  15.358  0.0856  0.1841  0.3557
 5268TIP3   OH237294   6.205   1.202  14.181 -0.4508 -0.5912 -0.4615
 5268TIP3    H137295   6.277   1.183  14.241 -0.4546  0.9810  0.0541
 5268TIP3    H237296   6.226   1.287  14.145 -2.8394  0.6217  0.8952
 5269TIP3   OH237297   4.860   3.441   2.681 -0.4541  0.6044  0.3248
 5269TIP3    H137298   4.913   3.452   2.759 -0.0441  0.9981 -0.0148
 5269TIP3    H237299   4.893   3.360   2.641 -0.4645  0.5652  0.3957
 5270TIP3   OH237300   2.631   0.147  16.549 -0.4285 -0.1941  0.4983
 5270TIP3    H137301   2.554   0.097  16.520 -1.2564 -0.5943  3.2593
 5270TIP3    H237302   2.594   0.227  16.586  0.4523 -0.5221  2.1025
 5271TIP3   OH237303   2.874   6.243   1.589 -0.1003 -0.0549 -0.2503
 5271TIP3    H137304   2.870   6.325   1.638 -2.5157  0.3164 -1.0052
 5271TIP3    H237305   2.839   6.177   1.649  0.5901 -0.3017 -0.1149
 5272TIP3   OH237306   0.674   1.485   4.759  0.3240  0.3762  0.9032
 5272TIP3    H137307   0.765   1.456   4.750  0.2577  0.5917 -0.5234
 5272TIP3    H237308   0.631   1.455   4.679 -0.2552  2.5308  0.3697
 5273TIP3   OH237309   2.252   3.212  15.168 -0.8932  0.8851 -0.5635
 5273TIP3    H137310   2.240   3.179  15.079  0.2292 -1.1459  0.0094
 5273TIP3    H237311   2.308   3.289  15.159 -1.5889  1.2711 -1.6889
 5274TIP3   OH237312   1.163   0.351   0.924  0.1624  0.6614  0.1086
 5274TIP3    H137313   1.119   0.266   0.920  0.9314  0.2162  0.8920
 5274TIP3    H237314   1.098   0.410   0.962 -0.0240  0.1846  0.5407
 5275TIP3   OH237315   2.577   4.261  12.850  0.0157  0.0719 -0.1502
 5275TIP3    H137316   2.665   4.257  12.888  0.7506 -0.9675 -1.9066
 5275TIP3    H237317   2.574   4.346  12.808 -0.2526  0.5909  0.8914
 5276TIP3   OH237318   0.356   2.785   1.442  0.1855  0.8167  0.0226
 5276TIP3    H137319   0.366   2.840   1.520  1.4204  0.7600 -0.0745
 5276TIP3    H237320   0.266   2.753   1.446  0.2553  0.7638  1.4597
 5277TIP3   OH237321   2.922   3.985  12.458  0.6422  0.4734 -0.2918
 5277TIP3    H137322   2.967   3.901  12.459 -1.1518 -0.5124  0.5221
 5277TIP3    H237323   2.830   3.963  12.442  0.0053  2.1949  0.8224
 5278TIP3   OH237324   0.652   4.871  14.086 -0.6192  0.7404 -0.1793
 5278TIP3    H137325   0.710   4.941  14.057  1.3384 -0.7473  0.0080
 5278TIP3    H237326   0.690   4.840  14.169 -1.8137 -0.1036  0.0768
 5279TIP3   OH237327   4.558   4.290  10.555 -0.0858 -0.0399 -0.1745
 5279TIP3    H137328   4.525   4.200  10.557  1.6795 -0.6771  1.5316
 5279TIP3    H237329   4.486   4.341  10.517 -3.1806 -1.2874  3.7289
 5280TIP3   OH237330   5.203   3.727  12.020 -0.0590  0.0469  0.1127
 5280TIP3    H137331   5.182   3.722  11.927  0.3323  1.1976 -0.0439
 5280TIP3    H237332   5.170   3.812  12.047 -1.0176 -0.6646  1.2480
 5281TIP3   OH237333   5.880   2.975   3.061 -0.6084 -0.3914  0.4886
 5281TIP3    H137334   5.936   2.923   3.003  0.5285 -0.1741  1.3726
 5281TIP3    H237335   5.824   2.910   3.104 -0.5316 -0.6934  0.1333
 5282TIP3   OH237336   6.588   1.363   1.240 -0.3517  0.2938 -0.1443
 5282TIP3    H137337   6.607   1.430   1.305  0.2425  1.2506 -1.2763
 5282TIP3    H237338   6.493   1.350   1.246 -0.0921 -0.7109  1.9168
 5283TIP3   OH237339   0.557   4.831   4.819  0.6599  0.8535  0.2321
 5283TIP3    H137340   0.515   4.873   4.895 -0.7385  0.8049 -0.4950
 5283TIP3    H237341   0.608   4.900   4.778 -0.5769  1.5261 -0.1961
 5284TIP3   OH237342   3.695   1.644   1.519 -0.8173 -0.5236 -0.2245
 5284TIP3    H137343   3.631   1.586   1.478 -0.5886 -1.2339  0.4252
 5284TIP3    H237344   3.683   1.632   1.613  1.2389 -1.7595 -0.0808
 5285TIP3   OH237345   5.257   2.676   1.927  0.4279 -0.1344  0.1313
 5285TIP3    H137346   5.278   2.593   1.971  0.0677 -0.3332 -0.0719
 5285TIP3    H237347   5.238   2.650   1.837 -1.6246 -0.0747  0.5210
 5286TIP3   OH237348   4.140   6.595  11.135  0.0744  0.3114  0.7316
 5286TIP3    H137349   4.176   6.577  11.048  2.4707 -1.1480  1.9599
 5286TIP3    H237350   4.046   6.581  11.126  0.5289 -1.8079 -1.1579
 5287TIP3   OH237351   4.828   3.303   0.115 -0.4297 -0.7381 -0.1831
 5287TIP3    H137352   4.849   3.379   0.060  0.3810 -0.9050 -0.1075
 5287TIP3    H237353   4.761   3.336   0.176 -1.9354 -0.7729 -1.7681
 5288TIP3   OH237354   4.635   3.007   3.945  0.1671  0.2427 -0.3049
 5288TIP3    H137355   4.602   2.918   3.934  0.9812 -0.1585  0.4103
 5288TIP3    H237356   4.570   3.050   4.002  0.2132 -0.1475  0.0386
 5289TIP3   OH237357   0.527   4.090  14.485  0.3996 -0.4164 -0.7244
 5289TIP3    H137358   0.563   4.004  14.463 -2.5090 -1.5011 -1.4569
 5289TIP3    H237359   0.492   4.078  14.574 -0.2487 -0.0621 -0.9334
 5290TIP3   OH237360   1.464   0.096   3.159 -0.3637  0.2666  0.5435
 5290TIP3    H137361   1.504   0.178   3.131 -1.4649  0.3006 -1.0269
 5290TIP3    H237362   1.509   0.028   3.108 -1.5434  0.2115 -0.4702
 5291TIP3   OH237363   4.536   3.755  13.912  0.2768  0.3186  0.9243
 5291TIP3    H137364   4.513   3.740  14.004  0.7077  0.9883  1.1379
 5291TIP3    H237365   4.451   3.761  13.868  0.0498  1.0693  1.4485
 5292TIP3   OH237366   3.880   0.244  12.270  0.2929 -0.0793 -0.4351
 5292TIP3    H137367   3.803   0.300  12.277 -1.1663 -2.1172  0.4191
 5292TIP3    H237368   3.924   0.253  12.354 -0.3650 -0.7884 -0.0075
 5293TIP3   OH237369   0.069   5.770  15.755 -0.2935  0.0849 -0.2554
 5293TIP3    H137370   0.136   5.808  15.811 -1.7442 -0.2592  1.7302
 5293TIP3    H237371   0.069   5.677  15.778 -0.5196 -0.1624 -1.2285
 5294TIP3   OH237372   2.158   0.409  14.315  0.5706 -0.2624  0.2712
 5294TIP3    H137373   2.110   0.384  14.394  0.6084 -1.5303 -0.1041
 5294TIP3    H237374   2.212   0.483  14.342  0.7021 -0.7933  1.4692
 5295TIP3   OH237375   5.405   1.037   5.689 -0.5435 -0.4030  0.4428
 5295TIP3    H137376   5.372   1.041   5.599  1.3488  0.5701 -0.2477
 5295TIP3    H237377   5.435   0.947   5.699  1.0874  0.0030 -0.6098
 5296TIP3   OH237378   1.614   2.341  12.767  0.4933 -0.4601  0.2432
 5296TIP3    H137379   1.705   2.354  12.743  0.7091 -1.5307  0.4557
 5296TIP3    H237380   1.612   2.357  12.862  0.5691 -1.0264  0.3372
 5297TIP3   OH237381   4.777   0.552  15.068  0.5028 -0.0484 -0.3171
 5297TIP3    H137382   4.831   0.586  15.139 -0.5446 -0.1654  0.5423
 5297TIP3    H237383   4.751   0.629  15.019  0.2664  0.1507  0.1178
 5298TIP3   OH237384   1.798   0.046  15.109 -0.6053  0.3565 -0.0063
 5298TIP3    H137385   1.792   0.136  15.075 -0.4293  0.5407  0.4518
 5298TIP3    H237386   1.864   0.004  15.054 -3.0667 -0.4985 -2.4516
 5299TIP3   OH237387   4.159   1.800   4.202 -0.0543 -0.6557 -0.2942
 5299TIP3    H137388   4.098   1.854   4.253  0.6136  1.5210 -1.7133
 5299TIP3    H237389   4.112   1.780   4.121  0.5084 -0.3122 -0.7151
 5300TIP3   OH237390   5.585   1.013   2.846  0.2775 -0.4217  0.5159
 5300TIP3    H137391   5.573   1.108   2.840 -0.3189 -0.4073  1.7814
 5300TIP3    H237392   5.670   1.003   2.889 -0.0241 -0.4523  1.1074
 5301TIP3   OH237393   4.544   0.798   1.477  0.2522  0.2430 -0.0198
 5301TIP3    H137394   4.593   0.800   1.560  0.8290  1.7348 -0.3659
 5301TIP3    H237395   4.508   0.887   1.469 -0.3007 -0.0669 -1.0831
 5302TIP3   OH237396   0.134   0.653  11.059  0.0883 -0.3960 -0.2719
 5302TIP3    H137397   0.168   0.667  11.147 -0.0239 -0.5012 -0.2102
 5302TIP3    H237398   0.159   0.731  11.010  1.1942 -0.8657 -0.4673
 5303TIP3   OH237399   3.472   5.727   3.745 -0.2547  0.3445 -0.1828
 5303TIP3    H137400   3.396   5.767   3.702  0.0637  0.7324 -0.3982
 5303TIP3    H237401   3.469   5.635   3.718  0.4226  0.7588 -1.7702
 5304TIP3   OH237402   5.051   5.167  17.276  0.8524  0.4476  0.5549
 5304TIP3    H137403   4.964   5.205  17.262  0.4045 -1.2066 -1.4932
 5304TIP3    H237404   5.052   5.089  17.220  2.8360 -0.8347  2.3238
 5305TIP3   OH237405   1.456   5.932   3.088 -0.0906  0.7384 -0.7285
 5305TIP3    H137406   1.499   5.964   3.167 -1.5481  0.9462  0.0050
 5305TIP3    H237407   1.526   5.922   3.024  1.0696  0.7939  0.5212
 5306TIP3   OH237408   2.253   2.155  12.529 -0.4092 -0.1316 -0.6113
 5306TIP3    H137409   2.219   2.073  12.565  0.5029  0.1129  0.8655
 5306TIP3    H237410   2.285   2.203  12.606 -0.1921  1.2514 -1.5510
 5307TIP3   OH237411   1.036   2.838  15.530 -0.5376 -0.3765  0.0790
 5307TIP3    H137412   1.048   2.923  15.488 -2.6862  1.3915  2.8555
 5307TIP3    H237413   0.970   2.794  15.477  1.1972 -0.7055 -1.8682
 5308TIP3   OH237414   4.659   6.184  15.537 -0.1736  0.5373  0.5012
 5308TIP3    H137415   4.718   6.259  15.529  0.5131  0.1663  1.9500
 5308TIP3    H237416   4.604   6.204  15.613 -1.0545  0.2948 -0.0673
 5309TIP3   OH237417   5.415   6.627   0.532 -0.4975 -0.1367 -0.0580
 5309TIP3    H137418   5.330   6.628   0.576 -1.5956 -0.2906 -2.1191
 5309TIP3    H237419   5.438   6.534   0.524 -0.0477 -0.0908  0.6338
 5310TIP3   OH237420   5.041   1.965  17.069  0.4549  0.3633 -0.2645
 5310TIP3    H137421   4.967   1.952  17.129  1.7141 -0.6673  1.1058
 5310TIP3    H237422   5.098   1.890  17.085  2.6620  2.0485  0.0019
 5311TIP3   OH237423   4.883   5.982  14.970 -0.2176 -0.6721 -0.3317
 5311TIP3    H137424   4.831   6.003  14.893 -0.1867  1.7118  0.2487
 5311TIP3    H237425   4.958   6.043  14.965 -0.1891 -0.5282  1.5246
 5312TIP3   OH237426   6.024   6.558   4.823  0.3228 -0.5286 -0.4442
 5312TIP3    H137427   6.054   6.589   4.737 -0.8193  0.0806 -0.6320
 5312TIP3    H237428   5.944   6.509   4.804 -1.1646  1.4710  0.4897
 5313TIP3   OH237429   4.093   3.459   0.571  0.0747 -0.0428 -0.6845
 5313TIP3    H137430   4.013   3.510   0.581 -0.7249 -0.7896 -3.0315
 5313TIP3    H237431   4.136   3.497   0.494  1.9071  0.2314  0.4430
 5314TIP3   OH237432   4.891   3.174  14.768  0.2548 -0.1208  0.7582
 5314TIP3    H137433   4.882   3.173  14.673 -0.3487  0.1303  0.8109
 5314TIP3    H237434   4.932   3.091  14.790 -2.9311 -1.8088  0.6060
 5315TIP3   OH237435   6.224   5.327   3.236  0.0023  0.2846 -0.1584
 5315TIP3    H137436   6.190   5.285   3.315  1.2637 -0.7395 -0.1483
 5315TIP3    H237437   6.158   5.308   3.169 -1.7420  2.2797  0.9161
 5316TIP3   OH237438   4.329   5.623   1.577 -0.3281 -0.3419 -0.1156
 5316TIP3    H137439   4.398   5.596   1.638 -2.1859  0.6357  2.5090
 5316TIP3    H237440   4.334   5.718   1.576 -3.4510 -0.0475  2.4514
 5317TIP3   OH237441   6.718   3.287  12.207 -0.0962 -0.3676  0.3500
 5317TIP3    H137442   6.731   3.306  12.115 -1.7139  0.9517  0.3727
 5317TIP3    H237443   6.698   3.193  12.210  1.9899 -0.8492 -0.3995
 5318TIP3   OH237444   1.617   2.707  16.283  0.4936 -0.0742  0.0107
 5318TIP3    H137445   1.684   2.775  16.272 -1.3190  1.8945  0.9077
 5318TIP3    H237446   1.535   2.755  16.293 -1.0510 -2.4418 -0.8253
 5319TIP3   OH237447   6.183   0.425   0.477 -0.0826 -0.0195 -0.1741
 5319TIP3    H137448   6.242   0.499   0.491  2.2029 -1.5704 -1.1180
 5319TIP3    H237449   6.170   0.388   0.564  0.8556 -0.0122 -0.0254
 5320TIP3   OH237450   5.188   6.621  14.315  0.2022 -0.1995 -0.0664
 5320TIP3    H137451   5.266   6.575  14.284  1.0283  0.9198  0.3154
 5320TIP3    H237452   5.185   6.602  14.408 -0.7765 -1.3946 -0.3462
 5321TIP3   OH237453   3.243   4.577  11.387  0.2968  0.0080 -0.0187
 5321TIP3    H137454   3.335   4.550  11.379  0.5258  0.9701 -0.7485
 5321TIP3    H237455   3.226   4.576  11.481  0.9119 -0.6445  0.0921
 5322TIP3   OH237456   0.974   0.074  14.068 -0.3184  0.0004  0.7593
 5322TIP3    H137457   0.997   0.070  13.975  0.6079 -0.3820  0.9966
 5322TIP3    H237458   0.903   0.138  14.072  2.2558  3.0699  0.2529
 5323TIP3   OH237459   1.837   6.286   4.791  0.2342  0.1046 -0.1501
 5323TIP3    H137460   1.912   6.294   4.849 -0.8643  2.3276  1.0443
 5323TIP3    H237461   1.857   6.344   4.718 -0.2476  0.6374  0.1308
 5324TIP3   OH237462   5.741   1.896  12.624  0.3592 -0.0245 -0.1589
 5324TIP3    H137463   5.782   1.950  12.556  1.2727  0.1481  0.5128
 5324TIP3    H237464   5.675   1.844  12.578 -0.6712  1.8083 -0.7871
 5325TIP3   OH237465   4.820   6.528  12.843  0.3447 -0.3757  0.2035
 5325TIP3    H137466   4.895   6.584  12.823  0.8727 -0.7690  1.0628
 5325TIP3    H237467   4.810   6.473  12.765  0.5768  0.0721 -0.1499
 5326TIP3   OH237468   1.580   2.024   6.001 -0.0712  0.3489  0.3007
 5326TIP3    H137469   1.546   2.103   6.041  0.2412  1.4510 -1.5523
 5326TIP3    H237470   1.671   2.045   5.979  1.6915 -2.2819  4.4718
 5327TIP3   OH237471   0.013   6.367   4.846 -0.2388  0.1005 -0.5627
 5327TIP3    H137472   0.047   6.279   4.828 -0.0237 -0.1656  1.1343
 5327TIP3    H237473  -0.007   6.402   4.759  0.3911 -1.3316 -1.3103
 5328TIP3   OH237474   0.820   1.938   2.667  0.4641 -0.0737  0.0926
 5328TIP3    H137475   0.904   1.956   2.710 -0.5515  0.9776  1.6887
 5328TIP3    H237476   0.778   2.024   2.660 -1.3662 -0.8408  1.1962
 5329TIP3   OH237477   2.908   4.753   1.959 -0.3736 -0.5079 -0.4447
 5329TIP3    H137478   2.928   4.799   2.041 -1.6812 -0.4643 -0.1374
 5329TIP3    H237479   2.863   4.819   1.905  1.3463 -0.2402 -1.6041
 5330TIP3   OH237480   0.994   6.290  13.454  0.2331 -0.6841 -0.1437
 5330TIP3    H137481   1.008   6.262  13.544  0.0257  0.0116  0.1001
 5330TIP3    H237482   1.011   6.211  13.402  0.4438 -1.0586  0.4921
 5331TIP3   OH237483   5.979   0.624   5.416  0.2263 -0.4274  0.8897
 5331TIP3    H137484   6.000   0.715   5.392  1.3575 -0.5996  1.1815
 5331TIP3    H237485   6.013   0.615   5.505  0.8899 -1.3887  0.5471
 5332TIP3   OH237486   2.730   2.078  13.473  0.8994  0.7636  0.6265
 5332TIP3    H137487   2.711   2.066  13.566  0.5696 -0.1935  0.4445
 5332TIP3    H237488   2.805   2.136  13.471  1.1387  0.4921  1.5082
 5333TIP3   OH237489   1.253   6.718  16.278 -0.1033 -0.0157  0.5208
 5333TIP3    H137490   1.230   6.662  16.204 -2.7017 -0.4107  1.5705
 5333TIP3    H237491   1.226   6.805  16.252 -1.8331 -0.2962  1.3156
 5334TIP3   OH237492   5.246   3.811  15.331 -0.0294 -0.4101  0.2998
 5334TIP3    H137493   5.279   3.728  15.367 -2.3800 -1.5086  0.0094
 5334TIP3    H237494   5.197   3.785  15.253 -1.6999  1.1340  0.7970
 5335TIP3   OH237495   5.191   6.087  16.897 -0.2410 -0.2892 -0.1978
 5335TIP3    H137496   5.268   6.100  16.841  1.2695 -1.5434  1.5224
 5335TIP3    H237497   5.224   6.034  16.970 -2.9460 -1.5776  0.1242
 5336TIP3   OH237498   5.380   6.591  11.786 -0.3137  0.8321  0.7051
 5336TIP3    H137499   5.460   6.636  11.814 -0.5377  1.6249  0.1078
 5336TIP3    H237500   5.320   6.601  11.859  0.4723 -0.6503  1.5708
 5337TIP3   OH237501   6.767   2.730  12.637  0.0618 -0.0771  0.4841
 5337TIP3    H137502   6.751   2.700  12.548  0.8859  0.3564  0.1798
 5337TIP3    H237503   6.680   2.735  12.677 -0.3131 -0.2627 -0.2966
 5338TIP3   OH237504   6.815   4.324  11.509 -0.0085 -0.7009 -0.0048
 5338TIP3    H137505   6.783   4.235  11.520  0.3965 -0.9465 -0.7527
 5338TIP3    H237506   6.858   4.323  11.423 -2.1817  0.8266 -1.1750
 5339TIP3   OH237507   2.289   1.707  14.387 -0.0610  0.5643 -0.0158
 5339TIP3    H137508   2.332   1.638  14.336  0.3817  1.9300 -1.5082
 5339TIP3    H237509   2.334   1.787  14.363 -2.4323  1.8151 -0.4887
 5340TIP3   OH237510   1.880   4.980  11.145 -0.3105 -0.3253 -0.2127
 5340TIP3    H137511   1.930   4.942  11.073  0.8661 -0.4801  0.6792
 5340TIP3    H237512   1.854   5.066  11.114 -1.2451 -1.0364 -1.4644
 5341TIP3   OH237513   6.178   2.389  13.476  0.6759 -0.4431 -0.3095
 5341TIP3    H137514   6.159   2.376  13.384 -1.7106  1.2874 -0.1164
 5341TIP3    H237515   6.228   2.470  13.479 -0.5508  0.3201  0.0116
 5342TIP3   OH237516   6.309   4.121  12.757  0.1918  0.1830 -0.2482
 5342TIP3    H137517   6.214   4.118  12.753  0.2190  1.3950 -3.4244
 5342TIP3    H237518   6.330   4.214  12.749  1.6519  0.0592  1.6436
 5343TIP3   OH237519   6.051   0.951  11.830  0.0533  0.0066  0.2214
 5343TIP3    H137520   6.087   0.998  11.904 -0.0879  0.5350 -0.0416
 5343TIP3    H237521   6.072   0.859  11.846  0.5527  0.1927  0.6061
 5344TIP3   OH237522   2.837   3.218  13.139 -1.0706 -0.1369 -0.6969
 5344TIP3    H137523   2.796   3.295  13.099 -0.8904  0.6171  0.5413
 5344TIP3    H237524   2.767   3.153  13.145 -1.7447  0.6463  0.1068
 5345TIP3   OH237525   2.810   1.248  12.153  0.1383  0.2132  0.2078
 5345TIP3    H137526   2.847   1.221  12.238  0.9696  0.3837 -0.0941
 5345TIP3    H237527   2.874   1.310  12.118  0.0363 -0.2211 -0.7647
 5346TIP3   OH237528   0.332   6.466   3.318  0.0271 -0.5849  0.1135
 5346TIP3    H137529   0.239   6.489   3.317  0.4316  1.0779 -1.8829
 5346TIP3    H237530   0.369   6.516   3.392 -0.5375 -0.7946  0.5404
 5347TIP3   OH237531   6.482   2.254   1.899 -0.1521 -0.1716  0.2355
 5347TIP3    H137532   6.425   2.321   1.861  1.3496  1.4068  0.6890
 5347TIP3    H237533   6.494   2.282   1.990 -0.8342 -1.9719  0.9018
 5348TIP3   OH237534   4.848   6.053  15.876  0.4824 -0.3329  0.6699
 5348TIP3    H137535   4.788   6.090  15.811  0.8378  1.9183  1.5743
 5348TIP3    H237536   4.802   5.976  15.910 -0.6285 -0.3024 -0.7080
 5349TIP3   OH237537   5.367   3.300   5.003 -0.2630  0.2036  0.4141
 5349TIP3    H137538   5.459   3.300   4.977 -0.0877 -1.8011  0.9571
 5349TIP3    H237539   5.369   3.293   5.099 -0.9899  1.2646  0.5274
 5350TIP3   OH237540   1.120   4.973   2.627 -0.7246 -0.6435 -0.0832
 5350TIP3    H137541   1.166   4.911   2.570 -1.0400 -1.0924  0.1507
 5350TIP3    H237542   1.027   4.954   2.613 -0.9293  1.6236 -2.1083
 5351TIP3   OH237543   0.711   1.361   1.140  0.0755 -0.1115  0.5041
 5351TIP3    H137544   0.655   1.420   1.191 -0.4568  1.2820 -1.6318
 5351TIP3    H237545   0.798   1.401   1.143  0.4167 -0.9171  1.6814
 5352TIP3   OH237546   3.920   3.252   2.014 -0.7450 -1.0541  0.3788
 5352TIP3    H137547   3.870   3.254   1.933  0.4100 -0.6542 -0.3493
 5352TIP3    H237548   3.987   3.185   1.999 -0.1842 -0.5891  0.7935
 5353TIP3   OH237549   6.039   2.785  13.720 -0.3044  0.3747  0.0063
 5353TIP3    H137550   6.130   2.772  13.745 -0.5277  0.5700  0.9090
 5353TIP3    H237551   6.040   2.779  13.624  0.4665 -0.7763  0.0823
 5354TIP3   OH237552   0.057   4.184   4.796 -0.3158  0.2191 -0.2314
 5354TIP3    H137553   0.046   4.142   4.711 -0.6996 -0.7201  0.2809
 5354TIP3    H237554   0.152   4.182   4.811 -0.5090 -2.4264  0.7711
 5355TIP3   OH237555   4.350   6.425  11.751  0.5530 -0.3063 -0.1404
 5355TIP3    H137556   4.261   6.394  11.730  0.2148  1.5450 -1.6253
 5355TIP3    H237557   4.356   6.418  11.846 -0.7590 -1.5742 -0.1330
 5356TIP3   OH237558   4.638   3.424  10.137 -0.4372  0.1735 -0.2378
 5356TIP3    H137559   4.585   3.379  10.202 -0.4901 -0.5718 -0.7961
 5356TIP3    H237560   4.579   3.487  10.096 -0.8978 -0.6789 -0.8825
 5357TIP3   OH237561   3.075   1.040  13.168 -0.2106  0.1576 -0.4421
 5357TIP3    H137562   3.012   1.108  13.192  0.1536  0.3971 -0.1582
 5357TIP3    H237563   3.060   1.026  13.074  0.0898  1.0183 -0.6201
 5358TIP3   OH237564   3.117   2.303   2.649  0.0117 -0.0989  0.3539
 5358TIP3    H137565   3.035   2.351   2.662  0.5440  0.9914 -0.3196
 5358TIP3    H237566   3.165   2.353   2.584  1.3387 -0.5965  0.9231
 5359TIP3   OH237567   6.302   2.025  14.568  0.1219 -0.1430  0.1270
 5359TIP3    H137568   6.312   1.958  14.500  2.0576  1.1421 -0.9239
 5359TIP3    H237569   6.391   2.056  14.584 -0.6700  1.8285  0.9326
 5360TIP3   OH237570   3.478   4.022   1.620  0.1175  0.3325 -0.1738
 5360TIP3    H137571   3.414   3.993   1.684  1.8198 -1.4369  0.7785
 5360TIP3    H237572   3.470   3.961   1.547  1.3262 -0.4834  0.3526
 5361TIP3   OH237573   3.700   4.806  12.763 -0.2359 -1.1761 -0.4000
 5361TIP3    H137574   3.623   4.822  12.709  0.5457 -0.7014 -1.3940
 5361TIP3    H237575   3.667   4.802  12.852 -1.6629 -2.7400 -0.9789
 5362TIP3   OH237576   3.741   6.533  12.536  0.4703  0.3146  0.2018
 5362TIP3    H137577   3.718   6.577  12.617 -0.0240  0.9347 -0.2770
 5362TIP3    H237578   3.667   6.548  12.477  1.8597  1.9452 -1.1967
 5363TIP3   OH237579   3.937   3.420  14.638 -0.3641 -0.0137  0.4392
 5363TIP3    H137580   3.879   3.494  14.620 -0.1002  1.1204  3.8544
 5363TIP3    H237581   3.880   3.343  14.630 -1.7408  0.9013  1.2242
 5364TIP3   OH237582   2.448   1.903  15.175  0.0389 -0.3296 -0.2789
 5364TIP3    H137583   2.371   1.922  15.121 -0.0209 -0.8081 -0.3651
 5364TIP3    H237584   2.414   1.853  15.249  0.0168  0.9099  0.5749
 5365TIP3   OH237585   3.892   0.710  12.576 -0.5820  0.1572 -0.3407
 5365TIP3    H137586   3.824   0.687  12.513 -1.3944  0.1252  0.5299
 5365TIP3    H237587   3.901   0.631  12.631 -1.8377  1.1260  1.2982
 5366TIP3   OH237588   0.751   6.285   4.008 -0.2488  0.0871  0.3994
 5366TIP3    H137589   0.804   6.285   4.087 -1.7187  1.2671  1.4126
 5366TIP3    H237590   0.795   6.223   3.949  1.9211  0.6353  1.4065
 5367TIP3   OH237591   2.099   0.283  17.164 -0.7715  0.3057  0.9690
 5367TIP3    H137592   2.078   0.215  17.228  1.4486 -0.1918  1.2189
 5367TIP3    H237593   2.094   0.365  17.213 -4.1308  0.4494  0.5030
 5368TIP3   OH237594   5.884   5.080  13.709  0.5976  0.3679  0.3436
 5368TIP3    H137595   5.848   5.090  13.621  0.4730 -2.6495  0.0047
 5368TIP3    H237596   5.975   5.054  13.695  0.0785 -1.9801  1.0116
 5369TIP3   OH237597   1.555   3.532   3.728 -0.1344  0.6081 -0.7318
 5369TIP3    H137598   1.507   3.614   3.714 -1.2122  0.1435  0.0638
 5369TIP3    H237599   1.492   3.476   3.773  0.9118 -0.3228 -0.4068
 5370TIP3   OH237600   5.280   6.370   4.016 -0.1921 -0.3284  0.4521
 5370TIP3    H137601   5.272   6.275   4.010 -0.8781 -0.4399  2.8696
 5370TIP3    H237602   5.200   6.404   3.975  0.9006 -0.6854 -2.1243
 5371TIP3   OH237603   3.610   0.465   2.540  0.1623 -0.0978  0.3495
 5371TIP3    H137604   3.688   0.519   2.547  0.0053  0.1596  0.1077
 5371TIP3    H237605   3.643   0.375   2.549  0.3476  0.0637  1.2974
 5372TIP3   OH237606   4.616   2.269   3.343 -0.5523 -0.1911 -0.0677
 5372TIP3    H137607   4.565   2.345   3.318 -2.7202 -0.8357  2.2055
 5372TIP3    H237608   4.559   2.219   3.401  1.7611 -2.2357  0.5647
 5373TIP3   OH237609   4.431   2.712   0.403  0.2999  0.4270  0.3544
 5373TIP3    H137610   4.337   2.692   0.400 -0.0011  1.1489  3.2900
 5373TIP3    H237611   4.473   2.639   0.359 -1.6433  0.1266 -1.0616
 5374TIP3   OH237612   1.211   3.445  12.593  0.1315  0.8816 -0.1356
 5374TIP3    H137613   1.239   3.495  12.516  1.5917  0.1196 -0.1276
 5374TIP3    H237614   1.163   3.509  12.647 -1.9359  1.1291 -2.1995
 5375TIP3   OH237615   1.105   5.101  12.214 -0.4032 -0.4506  0.0356
 5375TIP3    H137616   1.066   5.035  12.271  0.9917 -1.0122  0.3735
 5375TIP3    H237617   1.109   5.180  12.267 -0.5367 -0.5532  0.1978
 5376TIP3   OH237618   1.273   1.959  13.301 -0.0520 -0.3820 -0.0144
 5376TIP3    H137619   1.270   2.000  13.215 -1.0219 -0.5445 -0.0607
 5376TIP3    H237620   1.357   1.913  13.303 -0.5516 -1.3584 -1.3253
 5377TIP3   OH237621   6.497   0.528  12.653 -0.0475  0.0912  0.2976
 5377TIP3    H137622   6.472   0.586  12.726  0.7234  1.5274 -0.5486
 5377TIP3    H237623   6.477   0.579  12.574  1.1706 -0.5628 -0.4547
 5378TIP3   OH237624   5.914   4.625   4.776  0.0096 -0.2835  0.4476
 5378TIP3    H137625   5.956   4.584   4.700  0.9988 -0.4771  1.0927
 5378TIP3    H237626   5.860   4.556   4.813 -0.7699 -0.0815 -0.2918
 5379TIP3   OH237627   5.119   0.537   1.933  0.4016 -0.5574  0.2921
 5379TIP3    H137628   5.066   0.610   1.964  0.3017 -0.5665  0.1431
 5379TIP3    H237629   5.066   0.459   1.952 -0.0893 -0.4936 -0.7972
 5380TIP3   OH237630   5.366   2.967   2.499 -0.8652 -0.0223  0.4634
 5380TIP3    H137631   5.373   3.020   2.578 -1.1372  0.0766  0.4197
 5380TIP3    H237632   5.355   2.877   2.531  0.9900 -0.2433  0.5428
 5381TIP3   OH237633   6.419   2.699   3.878 -0.4077  0.3109 -0.1297
 5381TIP3    H137634   6.427   2.675   3.970 -1.2611 -1.4631 -0.4938
 5381TIP3    H237635   6.442   2.792   3.875  1.6627 -0.1023  1.5496
 5382TIP3   OH237636   0.948   4.906  16.420 -0.3892  0.1333 -0.2369
 5382TIP3    H137637   0.972   4.908  16.327 -1.1366  1.5425 -0.4147
 5382TIP3    H237638   0.895   4.827  16.429  1.2861 -1.0542 -0.5923
 5383TIP3   OH237639   2.850   2.093  16.829 -0.1048  0.1431  0.2803
 5383TIP3    H137640   2.931   2.066  16.785  0.9229 -0.1704  2.3218
 5383TIP3    H237641   2.815   2.013  16.867 -0.2011  0.6654  1.2974
 5384TIP3   OH237642   1.356   6.045  13.017 -0.2431  0.3261 -0.7190
 5384TIP3    H137643   1.310   5.962  13.002 -0.5153  0.2675  0.4560
 5384TIP3    H237644   1.366   6.051  13.112  2.0299  0.4247 -0.9431
 5385TIP3   OH237645   3.728   4.293   3.050 -0.4837 -0.3426  0.6805
 5385TIP3    H137646   3.722   4.282   2.955  1.3949  0.7997  0.4073
 5385TIP3    H237647   3.738   4.387   3.063 -0.7345 -0.4921  2.0137
 5386TIP3   OH237648   2.615   4.219   1.389  0.1944 -0.1604  0.1732
 5386TIP3    H137649   2.653   4.249   1.471 -0.7737  0.3543  0.4447
 5386TIP3    H237650   2.634   4.126   1.386  0.9536 -0.0222  0.5850
 5387TIP3   OH237651   5.574   1.083  15.115 -0.8223  0.0929  0.0362
 5387TIP3    H137652   5.557   1.155  15.054  1.8011 -1.2457 -2.4062
 5387TIP3    H237653   5.558   1.004  15.063 -1.1170 -1.0852  1.8979
 5388TIP3   OH237654   3.914   3.793  16.754  0.1984  0.1806  0.1137
 5388TIP3    H137655   3.961   3.855  16.810  1.2961 -1.2185  0.7691
 5388TIP3    H237656   3.834   3.773  16.803  0.6163 -0.1622  0.6617
 5389TIP3   OH237657   4.996   4.460  12.503  0.3576  0.1513 -0.0256
 5389TIP3    H137658   5.043   4.430  12.425  0.3912  0.3772 -0.0913
 5389TIP3    H237659   4.916   4.499  12.470  1.2346  1.9409 -0.0715
 5390TIP3   OH237660   2.914   0.019   4.929 -0.1525 -0.4921 -0.1365
 5390TIP3    H137661   2.930   0.112   4.940 -3.7662  0.3966 -1.6692
 5390TIP3    H237662   2.930   0.003   4.836 -2.4367 -0.6969 -0.5349
 5391TIP3   OH237663   4.534   5.992  12.308  0.3557  0.2429 -0.0591
 5391TIP3    H137664   4.559   5.913  12.355  1.1395  0.9402  0.7137
 5391TIP3    H237665   4.449   6.016  12.345 -0.8235 -1.3350 -1.6917
 5392TIP3   OH237666   4.810   2.156   6.128 -0.1302 -0.0065  0.3692
 5392TIP3    H137667   4.892   2.138   6.082  0.8972  2.4435  1.1752
 5392TIP3    H237668   4.771   2.069   6.143  1.9634 -1.1462 -0.6226
 5393TIP3   OH237669   0.050   0.619   6.941  0.1042  0.0830 -0.1754
 5393TIP3    H137670  -0.012   0.560   6.897 -0.3900  0.2989  0.2301
 5393TIP3    H237671   0.058   0.584   7.029  3.2294 -1.9910 -1.1905
 5394TIP3   OH237672   4.281   2.004  12.374 -0.3202  0.1258  0.1287
 5394TIP3    H137673   4.218   2.004  12.446 -0.9110 -1.9017 -0.3705
 5394TIP3    H237674   4.263   2.086  12.327 -2.4492 -0.3145  0.1280
 5395TIP3   OH237675   5.648   3.371   3.867 -0.2647  0.4816 -0.4534
 5395TIP3    H137676   5.736   3.361   3.903  0.6105  0.2948 -2.5770
 5395TIP3    H237677   5.632   3.466   3.867 -0.0764  0.5116 -0.0267
 5396TIP3   OH237678   6.395   3.995  11.342  0.1055  0.1923 -0.2492
 5396TIP3    H137679   6.387   3.963  11.253  0.2495  1.0461 -0.5700
 5396TIP3    H237680   6.371   3.920  11.397  1.5833 -0.8324 -0.9607
 5397TIP3   OH237681   3.065   3.858  13.652 -0.1855  0.2976  0.0474
 5397TIP3    H137682   2.977   3.896  13.649 -0.0018  0.6572 -1.8861
 5397TIP3    H237683   3.066   3.806  13.732 -1.3820  2.1078  1.2599
 5398TIP3   OH237684   1.052   1.317  17.058  0.2344  0.1235 -0.2258
 5398TIP3    H137685   1.076   1.364  17.138  1.2150  0.8964 -0.9572
 5398TIP3    H237686   1.023   1.386  16.998 -0.5456 -0.4549 -0.5253
 5399TIP3   OH237687   1.152   5.689   2.134 -0.4421 -0.0813  0.2463
 5399TIP3    H137688   1.106   5.707   2.051 -0.8393  0.4547  0.5763
 5399TIP3    H237689   1.240   5.722   2.119 -0.3989 -0.3462 -0.1013
 5400TIP3   OH237690   0.886   1.249  13.923  0.2901  0.3832 -0.0145
 5400TIP3    H137691   0.958   1.245  13.861  0.9974 -0.2567  0.8380
 5400TIP3    H237692   0.816   1.293  13.876  0.3346 -1.3486 -1.7543
 5401TIP3   OH237693   1.449   1.008   3.661 -0.4403  0.1693 -0.3347
 5401TIP3    H137694   1.462   1.038   3.571 -3.5567 -1.3292 -1.3441
 5401TIP3    H237695   1.517   0.942   3.675 -1.3135 -1.2242 -2.4276
 5402TIP3   OH237696   0.125   4.332   4.411 -0.1143  0.0861  0.3292
 5402TIP3    H137697   0.044   4.323   4.462 -0.0546  1.1214  0.6248
 5402TIP3    H237698   0.127   4.425   4.387  0.7337 -0.0467 -0.1123
 5403TIP3   OH237699   0.765   1.909   0.901 -0.4483 -1.2453  0.4911
 5403TIP3    H137700   0.772   1.927   0.995 -0.0408 -0.9217  0.4008
 5403TIP3    H237701   0.850   1.935   0.865 -1.6976  1.7476 -0.4757
 5404TIP3   OH237702   6.054   6.415   5.612  0.0233  0.1331  0.3561
 5404TIP3    H137703   6.065   6.339   5.555 -0.4848 -0.4647  1.0447
 5404TIP3    H237704   5.976   6.458   5.580  0.4868  0.5409 -0.2310
 5405TIP3   OH237705   5.677   1.978   4.118 -0.1459  0.2493  0.0773
 5405TIP3    H137706   5.602   1.919   4.123  0.2085 -0.1721  0.3453
 5405TIP3    H237707   5.695   1.986   4.025 -0.6019  0.4462  0.0045
 5406TIP3   OH237708   1.461   4.657  15.340  0.3392  0.4485  0.5316
 5406TIP3    H137709   1.483   4.657  15.247  0.5321  2.0807  0.5616
 5406TIP3    H237710   1.396   4.727  15.350 -2.5452 -2.2127  0.9900
 5407TIP3   OH237711   4.875   1.944   6.508  0.0040 -0.7805  0.1352
 5407TIP3    H137712   4.857   1.939   6.602 -0.1030  1.8907  0.3046
 5407TIP3    H237713   4.805   1.894   6.467 -1.7249  0.6002  1.3517
 5408TIP3   OH237714   3.826   4.838   4.284 -0.4402 -0.0131  0.3802
 5408TIP3    H137715   3.882   4.858   4.209 -2.4482  2.9997 -0.3870
 5408TIP3    H237716   3.752   4.790   4.247 -0.6118  0.0102  0.6955
 5409TIP3   OH237717   3.251   1.750  14.088 -0.1711  0.1810 -0.1377
 5409TIP3    H137718   3.331   1.707  14.059  1.4662  2.2283  1.2173
 5409TIP3    H237719   3.190   1.678  14.107  2.4806 -1.5760  2.0348
 5410TIP3   OH237720   3.001   4.357   6.068 -0.5268  0.3326 -0.1577
 5410TIP3    H137721   3.076   4.415   6.061  1.0902 -1.7841 -1.0407
 5410TIP3    H237722   3.020   4.302   6.143 -1.4287  0.1044 -0.0871
 5411TIP3   OH237723   2.385   0.654   0.683  0.4847 -0.0813 -0.2876
 5411TIP3    H137724   2.310   0.678   0.736 -1.7444 -1.3580 -2.7738
 5411TIP3    H237725   2.453   0.631   0.746 -1.5753 -0.0729  1.9735
 5412TIP3   OH237726   0.585   2.004   0.695 -0.1035 -0.0031 -0.2832
 5412TIP3    H137727   0.658   1.983   0.753  0.7277 -0.4678 -1.4748
 5412TIP3    H237728   0.572   2.098   0.704 -0.3019 -0.1498  1.0101
 5413TIP3   OH237729   2.886   5.518  12.881 -0.1493 -0.5598  0.3140
 5413TIP3    H137730   2.852   5.520  12.791 -0.7060  1.2890  0.5493
 5413TIP3    H237731   2.866   5.429  12.912 -1.1721 -0.7811 -0.9276
 5414TIP3   OH237732   1.907   3.053   1.875  0.2653  0.5771  0.9485
 5414TIP3    H137733   1.813   3.065   1.862  0.2918 -0.1247  0.0384
 5414TIP3    H237734   1.948   3.114   1.814  0.3911 -2.6465 -2.3274
 5415TIP3   OH237735   3.460   4.142   5.412 -0.0745 -0.3671 -0.1082
 5415TIP3    H137736   3.438   4.111   5.324  0.3278 -0.1575 -0.2814
 5415TIP3    H237737   3.478   4.062   5.462  2.1113 -0.3775 -0.8567
 5416TIP3   OH237738   3.027   6.760  15.064 -0.4733 -0.0520  0.1497
 5416TIP3    H137739   3.025   6.758  14.969 -1.3882 -1.7369  0.1961
 5416TIP3    H237740   2.975   6.684  15.092  3.0096 -1.9053  1.9546
 5417TIP3   OH237741   0.928   3.739   6.114  0.0719 -0.1784  0.0695
 5417TIP3    H137742   0.852   3.749   6.171 -0.3138 -0.8628 -0.3082
 5417TIP3    H237743   0.943   3.644   6.110  2.7387  0.0915  2.4560
 5418TIP3   OH237744   5.698   4.170   1.553  0.2179 -0.3420  0.6013
 5418TIP3    H137745   5.761   4.117   1.602  0.2777 -0.2988  0.5721
 5418TIP3    H237746   5.729   4.260   1.564  0.4080 -0.3607  0.2285
 5419TIP3   OH237747   6.104   0.408  13.238 -0.8426  0.0002 -0.1944
 5419TIP3    H137748   6.069   0.498  13.233 -0.1824  0.2347 -0.5699
 5419TIP3    H237749   6.060   0.362  13.167 -1.5295 -0.0969  0.2837
 5420TIP3   OH237750   2.005   5.310  14.493 -0.2347  0.6109 -0.0188
 5420TIP3    H137751   1.929   5.335  14.546 -0.7749 -0.0479 -0.4723
 5420TIP3    H237752   2.054   5.391  14.481 -2.3496  1.6227 -2.0962
 5421TIP3   OH237753   6.773   1.033   4.214  0.0470 -0.2274  0.3274
 5421TIP3    H137754   6.806   1.103   4.270  0.7167  0.2062 -0.5900
 5421TIP3    H237755   6.775   1.070   4.126  1.4173 -1.7292 -0.3114
 5422TIP3   OH237756   2.728   1.896  16.975  0.4030  0.2055 -0.4080
 5422TIP3    H137757   2.783   1.852  17.040  0.9563  0.8730 -0.4194
 5422TIP3    H237758   2.673   1.826  16.939 -1.5899  0.2218  2.4266
 5423TIP3   OH237759   6.222   3.744   3.229  0.2726 -0.3055  0.0283
 5423TIP3    H137760   6.146   3.750   3.171  0.6569 -0.3499 -0.4808
 5423TIP3    H237761   6.277   3.677   3.190  0.9025  0.2158  0.0169
 5424TIP3   OH237762   3.306   2.495  13.772  0.4501  0.2674 -0.0726
 5424TIP3    H137763   3.396   2.512  13.746  0.4131 -1.2201 -1.2277
 5424TIP3    H237764   3.310   2.416  13.826  0.0185  1.0829  1.1925
 5425TIP3   OH237765   0.925   0.076   5.017 -0.1379  0.2110 -0.7024
 5425TIP3    H137766   0.952   0.081   5.109  0.2142 -0.0185 -0.7904
 5425TIP3    H237767   1.005   0.052   4.971 -0.1596  0.9654 -1.1475
 5426TIP3   OH237768   6.240   0.371   0.760  0.0791 -0.4264  0.1622
 5426TIP3    H137769   6.335   0.360   0.756  0.3270  0.5340  2.5659
 5426TIP3    H237770   6.216   0.333   0.844 -1.7031 -0.8530 -0.5290
 5427TIP3   OH237771   2.875   3.685  13.311  0.0044 -0.1676 -0.8887
 5427TIP3    H137772   2.904   3.768  13.351 -1.2545  0.8952 -2.1408
 5427TIP3    H237773   2.947   3.661  13.253  0.4182 -0.0056 -0.4494
 5428TIP3   OH237774   0.798   6.700   7.098  0.0711  0.3280  0.3017
 5428TIP3    H137775   0.868   6.746   7.052 -0.3048  1.2175  0.6126
 5428TIP3    H237776   0.770   6.632   7.036  0.9735  0.1784  0.0473
 5429TIP3   OH237777   1.082   4.431   3.418 -0.3350  0.6918 -0.1785
 5429TIP3    H137778   1.060   4.507   3.363 -1.5578 -0.1953 -0.9609
 5429TIP3    H237779   1.098   4.360   3.355  1.7939  0.5327  0.5056
 5430TIP3   OH237780   0.037   5.687   2.237  0.0086  0.3975  0.3215
 5430TIP3    H137781   0.036   5.611   2.295 -1.2771  0.7433  0.7506
 5430TIP3    H237782  -0.044   5.734   2.257 -0.6568  0.3060 -2.0368
 5431TIP3   OH237783   5.816   1.841  14.759 -0.3741  0.2234 -0.1927
 5431TIP3    H137784   5.786   1.895  14.686  1.7824 -1.1916 -2.2178
 5431TIP3    H237785   5.902   1.875  14.780 -0.4127 -0.2676  0.7763
 5432TIP3   OH237786   4.033   2.181  14.175 -0.3366 -0.3625  0.3262
 5432TIP3    H137787   3.988   2.184  14.091  1.2238 -1.6631 -0.5799
 5432TIP3    H237788   3.983   2.118  14.227 -1.2123  0.3298  0.3365
 5433TIP3   OH237789   1.312   0.971   0.649  0.0332  0.5103 -0.0741
 5433TIP3    H137790   1.218   0.976   0.630 -0.4692 -0.3869  2.0294
 5433TIP3    H237791   1.319   0.993   0.742  1.5195 -2.7991  0.6690
 5434TIP3   OH237792   2.088   0.203  10.680 -0.0981  0.3650 -0.2910
 5434TIP3    H137793   1.999   0.176  10.704 -0.4322  0.3188 -1.5407
 5434TIP3    H237794   2.143   0.172  10.752 -1.1752  0.9274  0.7791
 5435TIP3   OH237795   6.287   2.922  11.273  0.2101 -0.5765 -0.7803
 5435TIP3    H137796   6.228   2.866  11.323 -0.5287 -0.1655 -1.1820
 5435TIP3    H237797   6.356   2.944  11.335 -0.2843 -0.7071 -0.1711
 5436TIP3   OH237798   4.599   4.064  14.791 -0.5031 -0.9103  0.2564
 5436TIP3    H137799   4.650   3.984  14.778  0.9713 -0.1701  1.2534
 5436TIP3    H237800   4.538   4.042  14.861  0.0617 -1.0997  0.6975
 5437TIP3   OH237801   1.892   6.460   1.116 -0.1836 -0.0015  0.1805
 5437TIP3    H137802   1.916   6.539   1.164  0.5369  0.4301 -0.8694
 5437TIP3    H237803   1.974   6.429   1.079 -0.8161  0.0134 -1.2681
 5438TIP3   OH237804   4.586   1.645   5.818  0.1113  0.5295  0.1993
 5438TIP3    H137805   4.505   1.599   5.798  1.7246 -1.8521 -1.2676
 5438TIP3    H237806   4.631   1.651   5.733  1.4516  1.7785  0.9769
 5439TIP3   OH237807   5.705   4.394   0.461 -0.2717 -0.0666 -0.3308
 5439TIP3    H137808   5.713   4.466   0.398 -1.7948 -0.1512 -0.6384
 5439TIP3    H237809   5.715   4.435   0.547  2.2972 -0.0220 -0.6320
 5440TIP3   OH237810   3.333   4.552   1.599  0.0040 -0.3006 -0.1440
 5440TIP3    H137811   3.341   4.647   1.596  0.1504 -0.1663  3.1219
 5440TIP3    H237812   3.423   4.520   1.606 -0.1212 -0.6320 -0.0352
 5441TIP3   OH237813   5.887   0.790   2.492 -0.1456  0.2491  0.2792
 5441TIP3    H137814   5.843   0.775   2.576  1.2392  0.9320  1.1362
 5441TIP3    H237815   5.854   0.874   2.462 -0.1020  0.3413  0.4888
 5442TIP3   OH237816   3.176   2.239  12.985 -0.0265  0.0782 -0.1493
 5442TIP3    H137817   3.271   2.245  12.989  0.0194 -0.9317  0.3784
 5442TIP3    H237818   3.145   2.322  13.022  0.6445  0.8534 -1.2946
 5443TIP3   OH237819   0.017   5.175  14.206  0.4378  0.1053 -0.4797
 5443TIP3    H137820   0.089   5.122  14.240 -0.0543 -0.5818 -0.5060
 5443TIP3    H237821  -0.035   5.115  14.153 -0.6494  0.3764  0.2470
 5444TIP3   OH237822   0.115   3.787  14.528 -0.0289  0.0870  0.1065
 5444TIP3    H137823   0.188   3.733  14.559 -0.2399 -0.5077 -0.4130
 5444TIP3    H237824   0.149   3.876  14.529  1.4131 -0.3965 -2.0751
 5445TIP3   OH237825   1.465   5.262   1.279  0.5198  0.2686 -0.9424
 5445TIP3    H137826   1.419   5.255   1.196  0.7887  2.7195 -1.3060
 5445TIP3    H237827   1.454   5.353   1.306  3.3766  0.3772 -0.0107
 5446TIP3   OH237828   1.357   2.916   4.706 -0.6004 -0.5494  0.0135
 5446TIP3    H137829   1.328   2.915   4.615 -2.1098 -1.6207  0.4876
 5446TIP3    H237830   1.420   2.844   4.712 -0.6284 -0.5868 -0.1393
 5447TIP3   OH237831   3.744   5.173   2.689 -0.1559 -0.1489 -0.3657
 5447TIP3    H137832   3.759   5.094   2.740 -0.2771 -1.0299 -1.6692
 5447TIP3    H237833   3.787   5.156   2.605 -0.5366  0.9973 -0.8025
 5448TIP3   OH237834   4.896   3.973   0.020 -0.4097  0.0625 -0.2097
 5448TIP3    H137835   4.837   3.912   0.064 -0.3352  0.8753  1.0623
 5448TIP3    H237836   4.909   3.936  -0.067  0.3750 -2.2207  0.8467
 5449TIP3   OH237837   1.262   5.403   5.513 -0.1058  0.2450 -0.1909
 5449TIP3    H137838   1.254   5.431   5.604 -0.9651 -0.7430  0.0421
 5449TIP3    H237839   1.325   5.331   5.515 -0.1363  0.2115 -0.3792
 5450TIP3   OH237840   4.890   5.881  12.058  0.6350  0.1593  0.1220
 5450TIP3    H137841   4.840   5.963  12.055  1.0963  0.4136 -0.9772
 5450TIP3    H237842   4.826   5.814  12.035  0.1023  0.1229  1.6619
 5451TIP3   OH237843   4.678   2.651   5.261  0.3791 -0.7651 -0.2334
 5451TIP3    H137844   4.606   2.679   5.317 -0.2720 -0.1480 -1.3650
 5451TIP3    H237845   4.757   2.667   5.313 -0.0428  2.3349 -0.4913
 5452TIP3   OH237846   3.412   2.382   2.779 -0.3193  0.4392 -0.5191
 5452TIP3    H137847   3.326   2.422   2.786 -0.0604  0.8525  0.4636
 5452TIP3    H237848   3.445   2.411   2.694 -1.6802 -0.8122 -1.4896
 5453TIP3   OH237849   3.196   0.868  13.842  0.4208  0.0749 -0.6345
 5453TIP3    H137850   3.157   0.956  13.842  0.7763  0.2670  1.6255
 5453TIP3    H237851   3.257   0.869  13.767  1.9899  2.5021  0.6156
 5454TIP3   OH237852   2.993   0.683   1.732 -0.1323  0.1387  0.0860
 5454TIP3    H137853   3.076   0.697   1.777  1.5712 -1.3972 -2.4835
 5454TIP3    H237854   2.948   0.767   1.738  2.0820  1.3243  0.5749
 5455TIP3   OH237855   6.144   0.389  17.206  1.0324  0.1421  0.2348
 5455TIP3    H137856   6.129   0.298  17.178  1.4483  0.3017 -0.5155
 5455TIP3    H237857   6.112   0.392  17.296 -0.3052 -0.3810 -0.2154
 5456TIP3   OH237858   5.347   3.390  14.002 -1.2288 -0.1747 -0.2231
 5456TIP3    H137859   5.380   3.386  14.092  0.0967  1.0993 -0.6234
 5456TIP3    H237860   5.370   3.478  13.972 -1.3227 -0.7073 -1.9302
 5457TIP3   OH237861   2.114   0.873   0.905  0.0430  0.1669  0.1212
 5457TIP3    H137862   2.137   0.867   0.997 -1.2260 -0.4997  0.4004
 5457TIP3    H237863   2.024   0.840   0.900  0.6710 -1.3257 -1.5879
 5458TIP3   OH237864   2.355   4.939  11.901 -0.1809 -0.1543 -0.1083
 5458TIP3    H137865   2.372   4.910  11.990 -0.1327  0.9351  0.2432
 5458TIP3    H237866   2.260   4.929  11.890  0.2620 -3.8939 -1.2425
 5459TIP3   OH237867   5.407   4.518   2.345  0.3621 -0.2066 -0.0574
 5459TIP3    H137868   5.408   4.524   2.441  0.7863 -1.3156  0.0181
 5459TIP3    H237869   5.385   4.606   2.315 -0.1601  0.0539  1.0736
 5460TIP3   OH237870   2.264   3.946  11.883  0.4564 -0.4058  0.0676
 5460TIP3    H137871   2.227   3.969  11.797  0.9355  0.7165  0.1493
 5460TIP3    H237872   2.278   3.851  11.879 -1.8212 -0.7498 -0.2002
 5461TIP3   OH237873   3.976   1.983   4.020  0.1870  0.0794 -0.1293
 5461TIP3    H137874   3.923   1.944   4.090 -0.3737 -0.0020 -0.5982
 5461TIP3    H237875   3.918   2.049   3.981 -0.6992 -2.1593 -2.7167
 5462TIP3   OH237876   2.614   6.631   3.307  0.2026  0.6619 -0.1823
 5462TIP3    H137877   2.572   6.565   3.252 -1.2291  1.8930 -0.6187
 5462TIP3    H237878   2.562   6.630   3.388 -0.5426  2.0227 -0.6276
 5463TIP3   OH237879   1.970   1.259  12.773  0.3511  0.1554  0.0383
 5463TIP3    H137880   1.989   1.291  12.861  0.9919 -0.3542  0.0914
 5463TIP3    H237881   1.892   1.205  12.784  1.0932 -0.8424  0.5053
 5464TIP3   OH237882   5.829   2.738  14.208  0.0016  0.5045 -0.8725
 5464TIP3    H137883   5.893   2.747  14.279 -2.4478 -1.2223  1.7070
 5464TIP3    H237884   5.773   2.814  14.217  0.0558  0.6030 -1.3636
 5465TIP3   OH237885   0.768   1.641  13.664 -0.0669 -0.6797  0.1905
 5465TIP3    H137886   0.741   1.733  13.653  2.8945  0.2518  0.3569
 5465TIP3    H237887   0.825   1.623  13.590 -1.6964 -2.8597 -0.5825
 5466TIP3   OH237888   6.539   6.348   1.861  0.0287 -0.6421 -0.1985
 5466TIP3    H137889   6.451   6.375   1.837 -0.3849 -2.6824 -1.0325
 5466TIP3    H237890   6.592   6.428   1.852 -2.2449  1.4004  3.3528
 5467TIP3   OH237891   5.667   6.519  12.333 -0.4377 -0.4586  0.3441
 5467TIP3    H137892   5.703   6.540  12.419 -2.1745 -0.7479  1.1431
 5467TIP3    H237893   5.615   6.595  12.309  0.7597  0.0056 -0.8789
 5468TIP3   OH237894   3.716   3.805  13.494  0.5411  0.0152 -0.4347
 5468TIP3    H137895   3.752   3.717  13.507 -0.7103 -0.5345 -0.6384
 5468TIP3    H237896   3.625   3.799  13.523  0.7088  1.5072  0.4895
 5469TIP3   OH237897   3.813   1.443  13.648  0.3881 -0.7629  0.5173
 5469TIP3    H137898   3.850   1.465  13.563  0.6362  0.1852  0.8597
 5469TIP3    H237899   3.729   1.488  13.650 -0.0825 -1.6501  0.3510
 5470TIP3   OH237900   6.286   3.478  14.475 -0.5612 -0.6343 -0.3443
 5470TIP3    H137901   6.251   3.466  14.387 -2.5954 -1.7203  0.5808
 5470TIP3    H237902   6.367   3.528  14.462 -1.8223  0.9193 -2.6692
 5471TIP3   OH237903   2.040   5.920   3.677  0.6858 -0.4090  0.4219
 5471TIP3    H137904   2.113   5.963   3.721 -0.0078 -1.7766  3.0143
 5471TIP3    H237905   2.052   5.827   3.695 -0.0271 -0.9550 -1.7307
 5472TIP3   OH237906   6.738   1.347  12.855  0.3720 -0.2994  0.7884
 5472TIP3    H137907   6.796   1.273  12.874  1.0113 -0.0163  0.0090
 5472TIP3    H237908   6.797   1.417  12.829 -0.3308 -0.0672 -0.2207
 5473TIP3   OH237909   5.497   1.838   4.779  0.3687 -0.2718 -0.2715
 5473TIP3    H137910   5.423   1.891   4.809 -0.2578 -1.4854  0.3596
 5473TIP3    H237911   5.538   1.890   4.710 -1.4135  0.1579 -1.0253
 5474TIP3   OH237912   0.255   6.670  12.531  0.3263 -0.1420 -0.5873
 5474TIP3    H137913   0.172   6.623  12.523 -0.5518  0.6386  3.3077
 5474TIP3    H237914   0.304   6.621  12.596  1.2095  1.8036  0.2362
 5475TIP3   OH237915   1.475   3.645   1.368  0.2921 -0.3623  0.0368
 5475TIP3    H137916   1.546   3.617   1.426 -1.0834 -0.8316  1.5358
 5475TIP3    H237917   1.427   3.711   1.419 -0.6733 -0.4349 -0.7565
 5476TIP3   OH237918   1.092   6.430  13.060  0.1521  0.2192  0.3556
 5476TIP3    H137919   1.110   6.475  12.977  0.7755 -0.3387  0.1850
 5476TIP3    H237920   1.156   6.360  13.064  0.6343  0.7123  1.6814
 5477TIP3   OH237921   5.944   4.031   1.656  0.4544 -0.7336 -0.2898
 5477TIP3    H137922   5.937   4.011   1.563  4.5355 -2.0737 -0.4225
 5477TIP3    H237923   5.953   3.946   1.698 -3.3782 -0.2750  1.6407
 5478TIP3   OH237924   4.289   2.384   5.174 -0.1610 -0.2484 -0.4243
 5478TIP3    H137925   4.284   2.479   5.173 -1.4097 -0.2673  1.2976
 5478TIP3    H237926   4.238   2.356   5.099 -0.1091  0.4216 -0.7147
 5479TIP3   OH237927   0.400   2.448  11.595  0.2926  0.1751  0.4339
 5479TIP3    H137928   0.428   2.366  11.635 -0.0260 -0.9780 -1.6431
 5479TIP3    H237929   0.474   2.508  11.610  1.6141 -1.2445 -0.2372
 5480TIP3   OH237930   4.801   2.549   2.553 -0.0581 -0.3137 -0.0863
 5480TIP3    H137931   4.835   2.564   2.641  0.8853 -1.4882 -0.2235
 5480TIP3    H237932   4.817   2.631   2.506 -1.0306  0.4931  0.9656
 5481TIP3   OH237933   6.056   6.137   5.174  0.3902  0.1630 -0.0599
 5481TIP3    H137934   6.093   6.209   5.227  1.9212 -1.0622  0.5926
 5481TIP3    H237935   6.118   6.126   5.102  1.0804 -1.6008  0.7737
 5482TIP3   OH237936   4.940   5.173  14.402 -0.7681 -0.4735 -0.4024
 5482TIP3    H137937   4.868   5.186  14.463 -1.8379 -2.6362 -1.1448
 5482TIP3    H237938   5.014   5.146  14.457 -0.5881  1.4480  0.3269
 5483TIP3   OH237939   5.322   3.656  12.372 -0.2371 -0.3531 -0.2487
 5483TIP3    H137940   5.393   3.714  12.402  0.6075 -1.2100 -0.5696
 5483TIP3    H237941   5.367   3.579  12.337 -1.3986 -2.2052  2.1650
 5484TIP3   OH237942   5.458   1.872  17.241 -0.9488 -0.3299  0.1418
 5484TIP3    H137943   5.409   1.822  17.306 -0.0911 -0.9655  0.3089
 5484TIP3    H237944   5.536   1.902  17.288 -1.1964  0.7075 -0.1089
 5485TIP3   OH237945   5.520   4.464   3.716  0.1973 -0.0039  0.3598
 5485TIP3    H137946   5.451   4.468   3.782 -1.4085  0.4314 -1.3057
 5485TIP3    H237947   5.519   4.374   3.684 -0.9205  0.4700 -1.0046
 5486TIP3   OH237948   5.857   3.100  12.176  0.2036  0.1280  0.0493
 5486TIP3    H137949   5.881   3.049  12.254  1.9661 -0.6684 -0.9843
 5486TIP3    H237950   5.850   3.036  12.106  0.6114  1.0668 -0.8748
 5487TIP3   OH237951   2.925   2.427   5.823  0.0213 -0.0615 -0.0473
 5487TIP3    H137952   2.882   2.342   5.812 -1.9403  1.1238 -2.0149
 5487TIP3    H237953   2.854   2.486   5.846  1.0571  1.4324 -0.6457
 5488TIP3   OH237954   3.214   2.285  14.323  0.1148  1.1434  0.1498
 5488TIP3    H137955   3.132   2.279  14.274 -0.5522  0.5273  1.3091
 5488TIP3    H237956   3.247   2.373  14.305 -1.1156  1.6104  0.1639
 5489TIP3   OH237957   2.757   6.252   3.562  0.4632 -0.2636 -0.8221
 5489TIP3    H137958   2.737   6.334   3.518  1.9114  0.1949 -0.6441
 5489TIP3    H237959   2.804   6.200   3.496  1.9726  0.1345 -0.0904
 5490TIP3   OH237960   1.735   3.820  16.546  0.5752  0.4612  0.5515
 5490TIP3    H137961   1.822   3.831  16.507  0.3573 -1.1081 -0.4208
 5490TIP3    H237962   1.744   3.742  16.602 -0.3601 -0.1063 -0.0744
 5491TIP3   OH237963   5.236   1.236  15.618  0.0629 -0.5597  0.3996
 5491TIP3    H137964   5.146   1.204  15.612 -0.3890  0.4796  1.3934
 5491TIP3    H237965   5.274   1.218  15.532 -1.2033 -0.6993 -0.1410
 5492TIP3   OH237966   1.823   0.070   4.312  0.1576  0.0438 -0.4433
 5492TIP3    H137967   1.866  -0.006   4.352 -0.0030  0.1993  0.0207
 5492TIP3    H237968   1.794   0.038   4.226  1.4768  0.0233 -0.9074
 5493TIP3   OH237969   1.137   4.649  16.532  0.6238 -0.6433  0.2972
 5493TIP3    H137970   1.142   4.673  16.440 -1.1353  1.2950  0.6507
 5493TIP3    H237971   1.095   4.564  16.533 -1.8055  0.5010 -0.5970
 5494TIP3   OH237972   3.952   6.639   1.541  0.6288  0.3954  0.0975
 5494TIP3    H137973   3.905   6.695   1.479 -2.0723 -0.1992  1.5251
 5494TIP3    H237974   3.990   6.570   1.487  0.1426  1.0891 -1.1510
 5495TIP3   OH237975   6.703   3.149  10.445 -0.3077  0.3403 -0.1850
 5495TIP3    H137976   6.678   3.168  10.536  2.5439 -0.0882  0.7121
 5495TIP3    H237977   6.714   3.054  10.442 -1.1810  0.2603 -1.2124
 5496TIP3   OH237978   5.004   2.114  11.640 -0.3881 -0.3274  0.0177
 5496TIP3    H137979   4.952   2.080  11.567  0.2023 -0.0553 -0.5319
 5496TIP3    H237980   4.978   2.059  11.714 -0.9756 -0.6214 -0.3938
 5497TIP3   OH237981   5.381   4.511  11.786  0.2104 -0.5245 -0.0450
 5497TIP3    H137982   5.333   4.582  11.828 -2.0373 -1.6707 -0.6181
 5497TIP3    H237983   5.439   4.555  11.724 -0.7835  0.8431 -0.0315
 5498TIP3   OH237984   5.676   6.490  14.443 -0.2219  0.0841  0.4965
 5498TIP3    H137985   5.691   6.415  14.385  0.6880 -1.6710  2.9172
 5498TIP3    H237986   5.616   6.546  14.394 -1.8503 -2.7713 -0.9381
 5499TIP3   OH237987   6.652   0.145  13.912 -0.2132  0.3413 -0.1470
 5499TIP3    H137988   6.624   0.200  13.839 -1.2534  1.6692  1.2175
 5499TIP3    H237989   6.739   0.115  13.888 -0.6547  0.5376 -2.0473
 5500TIP3   OH237990   2.802   2.016   1.007 -0.1678 -0.2089 -0.7484
 5500TIP3    H137991   2.768   1.993   1.094 -0.3407  0.9556 -0.5080
 5500TIP3    H237992   2.731   1.992   0.947 -1.1009  1.4311 -0.3223
 5501TIP3   OH237993   3.488   1.793   4.559  0.3845  0.0530  0.1298
 5501TIP3    H137994   3.487   1.884   4.589  1.4709  0.0151  0.3026
 5501TIP3    H237995   3.401   1.759   4.581  1.1615 -0.0051  3.3975
 5502TIP3   OH237996   0.855   0.128   1.097 -0.1697  0.1824  0.0842
 5502TIP3    H137997   0.939   0.162   1.127  0.5059  0.0655 -1.6524
 5502TIP3    H237998   0.791   0.189   1.134  0.7442  0.9317  0.4561
 5503TIP3   OH237999   4.320   6.393   1.520  0.2749  0.2411 -0.2289
 5503TIP3    H138000   4.262   6.318   1.537  0.8386 -0.2987 -0.6326
 5503TIP3    H238001   4.317   6.444   1.600 -0.1642 -0.1878  0.0355
 5504TIP3   OH238002   3.975   6.648   4.240  0.1013  0.7702  0.0604
 5504TIP3    H138003   4.017   6.565   4.265 -0.3166  1.0297  1.6338
 5504TIP3    H238004   3.883   6.625   4.226  0.3641  0.5827 -1.5440
 5505TIP3   OH238005   1.648   3.669  13.945 -0.0279 -0.0167 -0.1965
 5505TIP3    H138006   1.652   3.575  13.930  1.6101 -0.0405  0.2779
 5505TIP3    H238007   1.687   3.708  13.867  0.2008  0.2221  0.0339
 5506TIP3   OH238008   4.885   2.221  16.509  0.3498  0.0610  0.2566
 5506TIP3    H138009   4.919   2.296  16.556  0.8142 -0.0825  0.1489
 5506TIP3    H238010   4.958   2.159  16.504  0.3100  0.0706 -0.6355
 5507TIP3   OH238011   3.659   1.562  15.152 -0.5949  0.3247  0.3413
 5507TIP3    H138012   3.594   1.493  15.162 -0.2263  0.0052  0.5644
 5507TIP3    H238013   3.734   1.519  15.110 -0.0818  0.4140  1.1505
 5508TIP3   OH238014   2.243   6.490   3.743 -0.1116 -0.4378  0.3266
 5508TIP3    H138015   2.165   6.456   3.787  0.6736 -1.7445  0.7540
 5508TIP3    H238016   2.307   6.501   3.814  0.2122  0.2794 -0.0746
 5509TIP3   OH238017   5.836   4.745  13.005  0.0540 -0.3159  0.4029
 5509TIP3    H138018   5.808   4.706  13.088 -2.3730 -0.0697 -0.2721
 5509TIP3    H238019   5.801   4.834  13.007  1.6530  0.3273 -0.0462
 5510TIP3   OH238020   1.084   5.855  13.861  0.3550  0.8916  0.0078
 5510TIP3    H138021   1.033   5.888  13.788  1.5361  0.4919 -1.0139
 5510TIP3    H238022   1.086   5.760  13.849  0.4581  0.8130  0.6140
 5511TIP3   OH238023   1.570   4.556   0.236 -0.0001  0.4028  0.1947
 5511TIP3    H138024   1.615   4.637   0.260  1.9063 -0.5197 -0.1739
 5511TIP3    H238025   1.477   4.578   0.241  0.4705  2.2975  1.1832
 5512TIP3   OH238026   1.320   6.192   1.064 -0.0617  0.1192 -0.1282
 5512TIP3    H138027   1.256   6.224   1.127  2.2359  1.6426  1.5054
 5512TIP3    H238028   1.401   6.182   1.114  1.3811 -0.3908 -2.4483
 5513TIP3   OH238029   4.206   2.434  15.515  0.5489  0.5196 -0.1867
 5513TIP3    H138030   4.242   2.352  15.481  1.0348  0.4792  0.4253
 5513TIP3    H238031   4.238   2.501  15.455 -0.4672  0.1769 -1.1286
 5514TIP3   OH238032   3.106   4.859  16.298 -0.6861 -0.1887 -0.1699
 5514TIP3    H138033   3.140   4.861  16.208 -2.3040  0.3998 -0.7993
 5514TIP3    H238034   3.011   4.862  16.287 -0.9214 -0.8596  1.5528
 5515TIP3   OH238035   1.928   0.349  15.745  0.0917  0.1584 -0.3100
 5515TIP3    H138036   1.903   0.413  15.679 -1.4022 -0.8640 -0.7793
 5515TIP3    H238037   1.847   0.332  15.793  1.2337  1.1333  2.0106
 5516TIP3   OH238038   1.790   5.048   0.507 -0.1117 -0.2033  0.5727
 5516TIP3    H138039   1.727   5.119   0.516  0.2516 -0.0516  2.0696
 5516TIP3    H238040   1.736   4.969   0.500 -0.4942  0.0361  0.7971
 5517TIP3   OH238041   6.538   5.964   5.530 -0.1259 -0.2645 -0.0092
 5517TIP3    H138042   6.471   5.907   5.494  0.1926 -0.1651 -0.7787
 5517TIP3    H238043   6.499   6.002   5.609 -1.3904  0.6827 -1.0746
 5518TIP3   OH238044   3.635   6.764  14.141  0.1103  0.4247  0.0180
 5518TIP3    H138045   3.692   6.837  14.116  0.5220  0.0699 -0.0819
 5518TIP3    H238046   3.589   6.741  14.061 -0.1146  0.6643  0.0797
 5519TIP3   OH238047   2.834   0.394  12.464 -0.0420 -0.1428  0.0870
 5519TIP3    H138048   2.845   0.326  12.398  0.2030 -2.1270  2.1367
 5519TIP3    H238049   2.740   0.395  12.482  0.0656 -0.5220  0.6710
 5520TIP3   OH238050   4.854   2.003   0.662  0.1928  0.1498 -0.8691
 5520TIP3    H138051   4.925   2.054   0.700 -0.2432  0.1138  0.0216
 5520TIP3    H238052   4.879   1.911   0.677  0.1783  0.1311 -0.9593
 5521TIP3   OH238053   0.449   3.487  16.999  0.1253  0.1409 -0.1830
 5521TIP3    H138054   0.458   3.406  16.949 -0.2768  0.0163 -0.0573
 5521TIP3    H238055   0.419   3.552  16.935 -1.5667 -0.3038  0.1289
 5522TIP3   OH238056   2.446   1.715  12.282  0.3035  0.0129  0.1407
 5522TIP3    H138057   2.479   1.711  12.192  2.9632 -0.2516  1.0865
 5522TIP3    H238058   2.366   1.662  12.280 -1.0280  1.9570 -2.5769
 5523TIP3   OH238059   4.767   0.923  16.910 -0.0592  0.1097  0.3569
 5523TIP3    H138060   4.831   0.905  16.840  1.1834 -0.0238  1.4986
 5523TIP3    H238061   4.717   0.998  16.877  1.4764  0.9728 -0.0735
 5524TIP3   OH238062   4.937   2.718  13.055  0.2108 -0.2341  0.6394
 5524TIP3    H138063   4.902   2.673  13.132 -0.7852 -0.7681 -0.1077
 5524TIP3    H238064   5.009   2.663  13.025  1.1039  0.3765  1.6341
 5525TIP3   OH238065   4.818   0.217   1.196  1.1100  0.2885  0.2246
 5525TIP3    H138066   4.762   0.140   1.193 -0.9326  1.7714 -1.1204
 5525TIP3    H238067   4.792   0.262   1.276  0.7129  0.7145 -0.1389
 5526TIP3   OH238068   3.957   5.865  14.637 -0.0358  0.0172 -0.1477
 5526TIP3    H138069   3.954   5.861  14.541 -0.9993 -0.3712 -0.1045
 5526TIP3    H238070   3.912   5.785  14.665  1.6241 -0.6670  0.6233
 5527TIP3   OH238071   2.991   4.492   1.948 -0.3380 -0.3481 -0.6334
 5527TIP3    H138072   2.962   4.452   2.030 -1.0657 -2.6619 -1.9766
 5527TIP3    H238073   2.972   4.586   1.959 -0.0688 -0.5544  1.9616
 5528TIP3   OH238074   2.811   0.897   3.652  0.1434 -0.3111 -1.0558
 5528TIP3    H138075   2.897   0.939   3.638  1.2881 -1.9171  0.9383
 5528TIP3    H238076   2.827   0.804   3.635 -1.2180 -0.6010 -0.7619
 5529TIP3   OH238077   3.730   0.835   3.138  0.3085  0.0496 -0.6563
 5529TIP3    H138078   3.783   0.842   3.217 -0.2628  1.2911 -0.3841
 5529TIP3    H238079   3.661   0.773   3.161  0.2047  0.3266 -0.2273
 5530TIP3   OH238080   5.653   3.965  15.538  0.1881  0.3491  0.1885
 5530TIP3    H138081   5.634   4.059  15.527  2.2268  0.8414  0.8206
 5530TIP3    H238082   5.608   3.941  15.619 -0.5635  0.7089 -0.1177
 5531TIP3   OH238083   4.584   5.752  12.420 -0.2123  0.0348  0.7542
 5531TIP3    H138084   4.509   5.706  12.458  0.5673 -1.8101  0.1069
 5531TIP3    H238085   4.659   5.723  12.472  0.1957  1.1522  0.8074
 5532TIP3   OH238086   5.260   1.757  13.132 -0.3038  0.2677 -0.1143
 5532TIP3    H138087   5.236   1.676  13.087  0.0361 -0.3597  0.8483
 5532TIP3    H238088   5.324   1.798  13.074 -0.4914 -0.1369 -0.6121
 5533TIP3   OH238089   3.107   4.769  14.804  0.5944 -0.5933  0.6162
 5533TIP3    H138090   3.033   4.822  14.830  0.8442 -0.2047  0.5416
 5533TIP3    H238091   3.114   4.782  14.709  1.7968  0.7172  0.8706
 5534TIP3   OH238092   1.242   1.888   3.457 -0.2845 -0.2103  0.2274
 5534TIP3    H138093   1.320   1.891   3.401 -0.6216  0.4219 -0.2126
 5534TIP3    H238094   1.190   1.964   3.430 -0.8984 -0.4412  0.7465
 5535TIP3   OH238095   0.249   5.335  12.634  0.4432 -0.1089  0.2116
 5535TIP3    H138096   0.203   5.321  12.717 -0.3174 -1.2194 -0.3948
 5535TIP3    H238097   0.198   5.403  12.590 -0.6545 -1.3467 -0.4664
 5536TIP3   OH238098   4.033   2.581  16.515 -0.7014 -0.4577 -0.0870
 5536TIP3    H138099   4.046   2.582  16.420 -1.0237  1.3504 -0.1358
 5536TIP3    H238100   3.990   2.498  16.533 -0.4917 -0.8843 -1.5128
 5537TIP3   OH238101   2.268   4.918   1.696  0.2388 -0.0286  0.1904
 5537TIP3    H138102   2.204   4.853   1.667  0.2489  0.0101  0.0812
 5537TIP3    H238103   2.332   4.867   1.745  0.1391 -0.0716  0.2765
 5538TIP3   OH238104   0.980   1.194   0.693  0.6259 -0.6588 -0.0944
 5538TIP3    H138105   0.978   1.134   0.767 -0.5145 -0.3475  0.1252
 5538TIP3    H238106   0.922   1.266   0.718  2.8230  1.1151  0.1258
 5539TIP3   OH238107   1.965   2.733  16.601  0.5435 -0.1326 -0.6566
 5539TIP3    H138108   1.963   2.638  16.610 -1.0165 -0.1200 -0.8098
 5539TIP3    H238109   1.874   2.759  16.590  1.0237  1.3031 -1.5104
 5540TIP3   OH238110   3.513   1.229  12.580 -0.0840 -0.1591 -0.3437
 5540TIP3    H138111   3.458   1.291  12.628  0.8701  0.4478 -0.0340
 5540TIP3    H238112   3.601   1.264  12.586  0.3711 -1.1963 -0.7390
 5541TIP3   OH238113   0.891   2.111  16.701 -0.2828 -0.4222  0.0657
 5541TIP3    H138114   0.881   2.203  16.680 -0.3723 -0.2118  1.0144
 5541TIP3    H238115   0.957   2.079  16.639  2.4268  1.1294  2.0424
 5542TIP3   OH238116   4.948   1.113   4.553  0.5060 -0.0990 -0.4689
 5542TIP3    H138117   5.018   1.173   4.526  1.5117 -0.3084  1.5316
 5542TIP3    H238118   4.887   1.111   4.479  1.1273  2.3720 -1.0851
 5543TIP3   OH238119   1.447   2.605  16.046  0.0976  0.1623  0.2351
 5543TIP3    H138120   1.461   2.686  15.997  1.4531 -0.9023 -1.1845
 5543TIP3    H238121   1.496   2.617  16.127  0.5037  0.6581 -0.0834
 5544TIP3   OH238122   0.836   5.325   4.896  0.1170  0.2662  0.8425
 5544TIP3    H138123   0.750   5.298   4.864  0.6749 -0.5231 -0.0353
 5544TIP3    H238124   0.818   5.374   4.976 -1.3654  2.8011 -0.9889
 5545TIP3   OH238125   4.725   4.729   1.988  0.2936 -0.0286  0.1633
 5545TIP3    H138126   4.698   4.664   1.923 -1.1187 -0.8229  1.5142
 5545TIP3    H238127   4.671   4.710   2.065  0.4573  2.1950  0.8707
 5546TIP3   OH238128   2.670   3.657  16.862  0.1382 -0.9236  0.0005
 5546TIP3    H138129   2.721   3.606  16.799  1.4500 -0.1145  0.3684
 5546TIP3    H238130   2.725   3.659  16.941 -0.6783 -0.4275  0.5634
 5547TIP3   OH238131   3.149   0.834  11.392 -0.4655  0.4357  0.1369
 5547TIP3    H138132   3.175   0.758  11.445  1.2214  1.0620  0.2290
 5547TIP3    H238133   3.190   0.819  11.307 -1.0601  0.7009 -0.1964
 5548TIP3   OH238134   0.566   2.394  14.057 -0.2056 -0.0110 -0.0358
 5548TIP3    H138135   0.616   2.322  14.020  0.1705  0.7572 -1.0589
 5548TIP3    H238136   0.587   2.469  14.001  2.2574  1.8147  3.1556
 5549TIP3   OH238137   4.561   0.759   0.503  0.0648 -0.2408 -0.0219
 5549TIP3    H138138   4.489   0.804   0.548  0.9493  1.1414  0.0295
 5549TIP3    H238139   4.565   0.800   0.417  0.0679 -1.0857 -0.4238
 5550TIP3   OH238140   1.572   6.469  10.885  0.0004 -0.1656  0.5364
 5550TIP3    H138141   1.664   6.444  10.880  0.0825  0.6303 -3.4844
 5550TIP3    H238142   1.524   6.388  10.867  0.0503  0.3747 -2.1495
 5551TIP3   OH238143   4.070   3.296   0.857 -0.5795  0.3693 -0.1898
 5551TIP3    H138144   4.064   3.358   0.783  2.0033 -0.1514 -0.8821
 5551TIP3    H238145   4.134   3.336   0.916 -2.1296  0.4405  1.4586
 5552TIP3   OH238146   6.033   5.900   0.986 -0.4955  0.2047 -0.1128
 5552TIP3    H138147   5.948   5.908   1.028 -0.5252 -0.6213  0.0028
 5552TIP3    H238148   6.031   5.814   0.943  1.1121 -0.8818  1.8723
 5553TIP3   OH238149   1.284   2.777  11.076  0.0134 -0.0493  0.1899
 5553TIP3    H138150   1.230   2.699  11.065 -0.6974  0.2379  1.5515
 5553TIP3    H238151   1.237   2.845  11.028 -0.0891 -0.1281  0.1780
 5554TIP3   OH238152   2.460   4.916  15.223  0.0820 -0.2469  0.5585
 5554TIP3    H138153   2.415   4.833  15.237  0.0457  0.0370  2.2780
 5554TIP3    H238154   2.494   4.939  15.309 -1.5135  2.4498  0.5277
 5555TIP3   OH238155   5.866   4.463  12.900  0.1832 -0.3223  0.5352
 5555TIP3    H138156   5.888   4.502  12.815  1.6376 -0.9872  0.5864
 5555TIP3    H238157   5.828   4.534  12.951 -0.5483  0.1244 -0.6097
 5556TIP3   OH238158   0.924   3.676  13.154  0.2930 -0.3481 -0.2051
 5556TIP3    H138159   0.845   3.643  13.197  0.0462 -0.9362 -1.0896
 5556TIP3    H238160   0.941   3.760  13.197 -1.5094  0.3554 -0.7921
 5557TIP3   OH238161   0.483   4.985   1.454 -0.3364  0.8558  0.2353
 5557TIP3    H138162   0.538   5.039   1.511  1.4645  0.4759 -1.1250
 5557TIP3    H238163   0.484   4.898   1.496  2.3303  0.1502 -1.2157
 5558TIP3   OH238164   5.312   2.896  11.091  0.4004  0.0126  0.5586
 5558TIP3    H138165   5.266   2.812  11.081 -1.1089  0.8417  0.2925
 5558TIP3    H238166   5.387   2.875  11.146  0.6445 -1.7295 -0.3777
 5559TIP3   OH238167   4.388   6.764  13.988  0.2157  0.6453  0.1959
 5559TIP3    H138168   4.441   6.685  13.975  0.8532  0.7832  1.8000
 5559TIP3    H238169   4.297   6.732  13.986  0.5090 -0.4380  2.5198
 5560TIP3   OH238170   3.071   2.518  12.163  0.0550 -0.3748 -0.4595
 5560TIP3    H138171   3.061   2.431  12.124  0.4962 -0.0531 -1.2979
 5560TIP3    H238172   3.049   2.579  12.092 -1.7163  0.1838  0.5324
 5561TIP3   OH238173   4.350   5.343   1.510  0.0207  0.1770  0.1234
 5561TIP3    H138174   4.308   5.429   1.516  0.4790  0.5802 -1.8950
 5561TIP3    H238175   4.279   5.281   1.521 -0.7944  0.8484 -1.1558
 5562TIP3   OH238176   6.282   6.562  16.655 -0.3584  0.0982 -0.2857
 5562TIP3    H138177   6.293   6.655  16.632  0.9361  0.7959  2.8889
 5562TIP3    H238178   6.360   6.520  16.620  0.3047  0.6733  0.4771
 5563TIP3   OH238179   4.756   4.021  17.036  0.5208  0.1736 -0.7164
 5563TIP3    H138180   4.831   4.077  17.016  1.6138 -0.5708  1.1341
 5563TIP3    H238181   4.774   3.939  16.990  0.7343  0.0874 -0.4871
 5564TIP3   OH238182   1.656   3.165   5.410  0.3170  1.1611  0.1791
 5564TIP3    H138183   1.740   3.151   5.366 -0.3659  0.5546 -0.9772
 5564TIP3    H238184   1.639   3.082   5.455 -0.1687  0.8945 -0.4842
 5565TIP3   OH238185   0.268   0.756  12.996 -0.2141 -0.2543 -0.5828
 5565TIP3    H138186   0.218   0.743  12.915  2.1675 -2.7433 -1.7606
 5565TIP3    H238187   0.270   0.670  13.037  0.4690  0.5025  1.0106
 5566TIP3   OH238188   2.128   1.951   5.830  0.1958  0.6901  0.2767
 5566TIP3    H138189   2.145   1.976   5.921  2.0461 -0.3084  0.2389
 5566TIP3    H238190   2.175   1.868   5.820 -1.0149  0.1885 -1.2399
 5567TIP3   OH238191   0.751   1.031   6.172 -0.3554 -0.2040  0.4750
 5567TIP3    H138192   0.814   1.094   6.136 -3.2115  2.4375 -0.1686
 5567TIP3    H238193   0.712   1.077   6.247 -1.3966 -1.8117  0.9395
 5568TIP3   OH238194   2.241   5.232  15.753 -0.1630  0.0186  0.0130
 5568TIP3    H138195   2.281   5.173  15.817  4.1537  2.6717 -0.0427
 5568TIP3    H238196   2.264   5.195  15.668 -1.6485 -0.8031 -0.0515
 5569TIP3   OH238197   4.270   1.294  14.000 -1.0961 -0.0776 -0.0505
 5569TIP3    H138198   4.351   1.332  14.035 -2.5493  2.5898  0.5948
 5569TIP3    H238199   4.212   1.370  13.987 -3.1506 -1.8201 -1.4004
 5570TIP3   OH238200   2.134   1.436   3.727 -0.0652  0.0504  0.3360
 5570TIP3    H138201   2.197   1.379   3.771 -0.5244  1.5154  3.0267
 5570TIP3    H238202   2.062   1.377   3.704 -0.1783 -0.6497  2.3409
 5571TIP3   OH238203   5.840   1.333  12.073 -0.3556 -0.0182  0.0125
 5571TIP3    H138204   5.894   1.410  12.055  0.9296 -0.1442  3.1865
 5571TIP3    H238205   5.750   1.366  12.070  0.1686  1.5329  0.9308
 5572TIP3   OH238206   2.373   1.033   4.749 -0.7646 -0.1157  0.0358
 5572TIP3    H138207   2.293   1.046   4.697 -0.2779  1.1763 -0.4106
 5572TIP3    H238208   2.391   0.939   4.741 -1.9928 -0.3491 -0.2097
 5573TIP3   OH238209   4.865   1.456  16.667  0.3305  0.5994 -0.0075
 5573TIP3    H138210   4.884   1.487  16.579  0.5168 -0.9821 -0.5474
 5573TIP3    H238211   4.908   1.370  16.672 -2.0657 -0.6062  0.6364
 5574TIP3   OH238212   6.469   4.362  16.803  0.4797 -0.2412 -0.0089
 5574TIP3    H138213   6.380   4.331  16.819 -0.4720  1.7745 -1.1695
 5574TIP3    H238214   6.516   4.344  16.885 -0.9332 -1.4648  0.5562
 5575TIP3   OH238215   4.371   5.164  14.179 -0.3599 -0.3195 -0.1548
 5575TIP3    H138216   4.316   5.094  14.142  1.9065 -0.7441 -2.9213
 5575TIP3    H238217   4.460   5.129  14.174  0.7595  2.5399 -1.1355
 5576TIP3   OH238218   2.234   3.153  13.512  0.1021  0.3161 -0.4215
 5576TIP3    H138219   2.206   3.241  13.488 -0.5421  0.1796 -0.1826
 5576TIP3    H238220   2.192   3.137  13.597  0.9041  0.1067 -0.0540
 5577TIP3   OH238221   0.871   2.109  15.101  0.1852 -0.4573 -0.2189
 5577TIP3    H138222   0.809   2.106  15.028  0.5108 -1.0615 -0.4732
 5577TIP3    H238223   0.829   2.060  15.171 -0.8603  1.5043  0.5896
 5578TIP3   OH238224   0.137   2.895  15.093  0.0459 -0.1665 -0.1326
 5578TIP3    H138225   0.203   2.965  15.093 -2.0633  1.8807 -2.0129
 5578TIP3    H238226   0.148   2.851  15.009  0.4994 -1.2846  0.5010
 5579TIP3   OH238227   6.114   4.439  15.580 -0.5434 -0.4211 -0.0046
 5579TIP3    H138228   6.198   4.409  15.545 -0.8988 -1.7819  0.2699
 5579TIP3    H238229   6.067   4.358  15.601 -1.4552  0.3486  0.9488
 5580TIP3   OH238230   5.920   2.941  12.437  0.5267  0.0136  0.0014
 5580TIP3    H138231   5.992   2.878  12.440  1.9267  1.4983 -1.7284
 5580TIP3    H238232   5.922   2.983  12.523  0.6973 -1.0521  0.5351
 5581TIP3   OH238233   4.714   1.914  13.889 -0.0885 -0.2288  0.0322
 5581TIP3    H138234   4.756   1.914  13.975  0.4899  0.3244 -0.2419
 5581TIP3    H238235   4.637   1.970  13.900  0.3297  0.3511  0.0318
 5582TIP3   OH238236   6.383   5.555   2.507 -0.6900 -0.0516  0.5864
 5582TIP3    H138237   6.367   5.606   2.428 -1.1813  0.5955  1.0962
 5582TIP3    H238238   6.471   5.520   2.495  0.0492  1.7262  0.6597
 5583TIP3   OH238239   3.631   0.925  16.781 -0.1655  0.5332 -0.2447
 5583TIP3    H138240   3.588   0.900  16.700  0.7101  1.6586 -1.0702
 5583TIP3    H238241   3.590   1.008  16.806 -1.5085 -0.5750  1.2975
 5584TIP3   OH238242   3.318   0.075  14.934  0.3560  0.4479  0.0093
 5584TIP3    H138243   3.249   0.073  14.868  0.9765 -0.2414 -0.6229
 5584TIP3    H238244   3.395   0.106  14.887  0.8381 -0.1962  0.3648
 5585TIP3   OH238245   0.228   1.331  14.783 -0.1644 -0.3860 -0.3900
 5585TIP3    H138246   0.150   1.379  14.810 -1.1445 -1.5297 -1.1275
 5585TIP3    H238247   0.286   1.397  14.746  0.4606  0.9419  2.7686
 5586TIP3   OH238248   4.018   1.380  14.853 -0.2252 -0.0177  0.4562
 5586TIP3    H138249   4.086   1.326  14.894 -0.1587  1.0592  1.7769
 5586TIP3    H238250   3.947   1.383  14.918 -0.8937  0.1648 -0.2723
 5587TIP3   OH238251   5.292   2.439   3.501  0.3171  0.0946 -0.5663
 5587TIP3    H138252   5.261   2.505   3.440 -0.2307  0.4516  0.0921
 5587TIP3    H238253   5.311   2.487   3.581 -0.3681 -0.5742  0.0115
 5588TIP3   OH238254   6.727   2.872   2.307  0.3924  0.6698  0.1890
 5588TIP3    H138255   6.779   2.935   2.256 -0.4041  1.6220  0.5463
 5588TIP3    H238256   6.754   2.886   2.397  0.6660  0.0552  0.2095
 5589TIP3   OH238257   1.170   2.328   4.141  0.4246 -0.2228 -0.2212
 5589TIP3    H138258   1.156   2.422   4.153 -0.4799 -0.5306  1.3396
 5589TIP3    H238259   1.248   2.309   4.195  0.6348 -0.3561 -0.5722
 5590TIP3   OH238260   3.101   4.941  12.678 -0.0570  0.2333 -0.2709
 5590TIP3    H138261   3.161   5.015  12.681  1.1583 -0.7378 -0.4584
 5590TIP3    H238262   3.053   4.945  12.760  1.9815 -0.4199  0.9702
 5591TIP3   OH238263   6.466   3.577   1.133 -0.5208 -0.0199  0.5755
 5591TIP3    H138264   6.526   3.528   1.076  1.4519  0.1878  2.3811
 5591TIP3    H238265   6.523   3.642   1.176 -2.5921  2.0887  0.2260
 5592TIP3   OH238266   2.989   5.271   1.520 -0.1500 -0.2922 -0.4582
 5592TIP3    H138267   3.051   5.276   1.593 -0.7563  1.3872 -0.0324
 5592TIP3    H238268   3.037   5.304   1.445 -0.2009  0.0647 -0.3375
 5593TIP3   OH238269   4.403   3.116  10.988  0.5605 -0.3789 -0.4179
 5593TIP3    H138270   4.406   3.022  10.968  1.7524 -0.2601 -0.8054
 5593TIP3    H238271   4.383   3.158  10.905 -4.1501 -0.5348  0.4765
 5594TIP3   OH238272   5.694   3.006   1.066  0.6100  0.2814  0.0863
 5594TIP3    H138273   5.766   3.023   1.128 -0.1201  3.4771  0.1419
 5594TIP3    H238274   5.632   3.077   1.081 -1.6793 -1.3466 -1.3209
 5595TIP3   OH238275   2.422   1.461  16.898 -0.6967  0.0034  0.2436
 5595TIP3    H138276   2.327   1.449  16.894 -0.6971  0.3670 -1.1139
 5595TIP3    H238277   2.455   1.413  16.822  0.2768 -0.7432  1.1320
 5596TIP3   OH238278   3.931   2.517   0.648 -0.7715 -0.3660 -0.5193
 5596TIP3    H138279   3.971   2.603   0.636 -1.8130  0.0167 -1.2845
 5596TIP3    H238280   3.854   2.518   0.591 -1.6127 -1.2595  0.5746
 5597TIP3   OH238281   4.387   0.171  12.817 -0.2836  0.0687  0.5913
 5597TIP3    H138282   4.433   0.237  12.870  2.0769  0.2092 -1.4892
 5597TIP3    H238283   4.452   0.101  12.805 -1.7848 -1.3038  0.3788
 5598TIP3   OH238284   2.296   1.750   6.322 -0.0983  0.1052 -0.2735
 5598TIP3    H138285   2.278   1.687   6.392 -0.2922 -0.5860 -0.9298
 5598TIP3    H238286   2.315   1.832   6.367 -1.7075  0.0448  0.5372
 5599TIP3   OH238287   1.677   3.749   0.189 -0.0100  0.6915 -0.4686
 5599TIP3    H138288   1.597   3.796   0.165  0.1364  1.0298 -0.2862
 5599TIP3    H238289   1.691   3.688   0.116  0.0943  1.2977 -0.9530
 5600TIP3   OH238290   3.864   4.103   3.351 -0.5896  0.3798  0.2002
 5600TIP3    H138291   3.899   4.015   3.336 -0.1487  0.8024 -1.2531
 5600TIP3    H238292   3.881   4.119   3.444  0.3899 -0.6037  0.2034
 5601TIP3   OH238293   1.318   3.507  14.753 -0.1596 -0.0334  0.3498
 5601TIP3    H138294   1.224   3.517  14.771 -0.1259 -1.0249  1.1202
 5601TIP3    H238295   1.355   3.594  14.770 -1.1800  0.7914 -1.5365
 5602TIP3   OH238296   3.531   0.220   2.978 -0.5983 -0.3961 -0.2815
 5602TIP3    H138297   3.522   0.315   2.976 -0.1214 -0.2260  2.8784
 5602TIP3    H238298   3.522   0.197   3.071  0.9342 -3.2596 -0.7795
 5603TIP3   OH238299   5.117   6.092  14.877 -0.3596 -0.3619  0.3514
 5603TIP3    H138300   5.107   6.164  14.816 -0.8349 -0.0882  0.7437
 5603TIP3    H238301   5.192   6.116  14.931  0.3560 -0.8266 -0.4214
 5604TIP3   OH238302   2.033   3.236  12.748  0.1583  0.0639 -0.3445
 5604TIP3    H138303   2.051   3.240  12.653 -0.2486 -0.9783 -0.4655
 5604TIP3    H238304   2.051   3.145  12.772  0.7768  0.4508  0.6927
 5605TIP3   OH238305   5.508   3.465   1.532 -0.0027  0.1678 -0.2944
 5605TIP3    H138306   5.499   3.404   1.458  2.6129 -0.5448 -0.0746
 5605TIP3    H238307   5.575   3.527   1.504 -1.3039  1.8456  0.2391
 5606TIP3   OH238308   5.457   6.797   3.682 -0.0584  0.1967 -0.7224
 5606TIP3    H138309   5.386   6.756   3.632 -1.2110  0.2231  0.8556
 5606TIP3    H238310   5.464   6.885   3.645 -0.5727  0.0503 -1.1794
 5607TIP3   OH238311   0.577   5.229  11.888  0.2200 -0.8246 -0.4812
 5607TIP3    H138312   0.583   5.278  11.971 -2.6502 -0.6697 -0.3312
 5607TIP3    H238313   0.653   5.258  11.838  0.5295  1.1076  1.0497
 5608TIP3   OH238314   5.640   4.957   0.714 -0.1408 -0.3291 -0.3327
 5608TIP3    H138315   5.582   4.984   0.785  0.3071 -1.6298  0.5518
 5608TIP3    H238316   5.582   4.932   0.643 -0.7004 -1.9933  0.6801
 5609TIP3   OH238317   3.654   3.506   1.628 -0.1224  0.3266  0.8287
 5609TIP3    H138318   3.564   3.537   1.622 -0.4028 -0.7675 -1.0447
 5609TIP3    H238319   3.708   3.583   1.611 -0.7876  0.1711 -2.1319
 5610TIP3   OH238320   4.663   3.795  14.700 -0.3637  0.1900 -0.2158
 5610TIP3    H138321   4.708   3.740  14.635  0.7244 -0.3655  0.9866
 5610TIP3    H238322   4.660   3.740  14.779 -1.0450  1.1179  0.4023
 5611TIP3   OH238323   5.946   2.430  15.282  0.1886 -0.0150  0.3625
 5611TIP3    H138324   5.859   2.391  15.275  0.6296 -1.0982  0.8617
 5611TIP3    H238325   6.006   2.358  15.265  1.0034  0.4819  1.1201
 5612TIP3   OH238326   1.902   2.060   1.963  0.0338  0.2569  0.0105
 5612TIP3    H138327   1.877   2.052   1.871  0.4826 -0.6088 -0.0378
 5612TIP3    H238328   1.997   2.051   1.963 -0.0149 -0.2839  0.6204
 5613TIP3   OH238329   2.218   5.075   6.667  0.0026  0.1194 -0.2489
 5613TIP3    H138330   2.276   5.149   6.684 -1.1541  1.0988 -0.4692
 5613TIP3    H238331   2.184   5.050   6.753  1.5855 -1.1811  0.0254
 5614TIP3   OH238332   0.717   3.645   2.502  0.5523 -0.1211  0.1336
 5614TIP3    H138333   0.787   3.632   2.566  1.4384 -1.7086 -1.0988
 5614TIP3    H238334   0.706   3.559   2.461 -0.6729  0.6297 -1.1657
 5615TIP3   OH238335   6.452   1.426  10.896  0.2037 -0.3829 -0.7352
 5615TIP3    H138336   6.428   1.455  10.808  0.4124  0.5294 -0.4944
 5615TIP3    H238337   6.381   1.366  10.921 -0.2206 -0.1050 -1.2472
 5616TIP3   OH238338   5.668   5.293  14.274  0.2781  0.8160  0.0062
 5616TIP3    H138339   5.735   5.344  14.228  0.9777 -0.8606 -0.8514
 5616TIP3    H238340   5.675   5.323  14.365  0.6948  2.2336 -0.4776
 5617TIP3   OH238341   3.139   3.797   4.848  0.4062  0.0154  0.4626
 5617TIP3    H138342   3.187   3.872   4.813  0.4161 -0.6611 -1.0187
 5617TIP3    H238343   3.188   3.721   4.818 -0.7468 -0.6450  0.2136
 5618TIP3   OH238344   4.253   4.980  10.538  0.5296  0.4411  0.3151
 5618TIP3    H138345   4.265   4.994  10.632  0.1921 -0.1891  0.4577
 5618TIP3    H238346   4.159   4.962  10.528  0.4564  1.1048 -0.2228
 5619TIP3   OH238347   1.474   4.521   2.150 -0.0230 -0.2666  0.3183
 5619TIP3    H138348   1.532   4.590   2.184  0.3282  0.6903 -2.1360
 5619TIP3    H238349   1.398   4.569   2.117  0.5201 -0.9462 -2.0188
 5620TIP3   OH238350   0.315   0.876  10.922  0.2849  0.3606 -0.0124
 5620TIP3    H138351   0.350   0.952  10.875 -0.9700  0.3105 -1.0795
 5620TIP3    H238352   0.359   0.801  10.882 -0.6871  0.3287 -1.0706
 5621TIP3   OH238353   0.327   3.738   5.026 -0.0513  0.1313 -0.0798
 5621TIP3    H138354   0.394   3.710   5.088 -0.4354  0.2739  0.4036
 5621TIP3    H238355   0.373   3.746   4.943  0.6541  0.8181  0.3767
 5622TIP3   OH238356   4.012   0.030   0.827  0.0012  0.3004 -0.1029
 5622TIP3    H138357   3.926   0.063   0.854 -0.1411  0.3197 -0.5744
 5622TIP3    H238358   4.031   0.077   0.745  1.8902  2.6318  1.6201
 5623TIP3   OH238359   0.419   4.369  15.636  0.0328 -0.0649  0.3046
 5623TIP3    H138360   0.383   4.304  15.697  0.7958 -0.1008  0.7156
 5623TIP3    H238361   0.350   4.435  15.628 -0.2384 -0.2756  0.8723
 5624TIP3   OH238362   2.104   3.046  15.620  0.3338  0.2260  0.5588
 5624TIP3    H138363   2.177   3.101  15.645  0.4149  0.0629  0.6803
 5624TIP3    H238364   2.027   3.085  15.662  0.7623 -1.2101  2.7620
 5625TIP3   OH238365   6.218   0.249  14.465  0.5598 -0.2564 -0.6799
 5625TIP3    H138366   6.227   0.165  14.421 -1.4782 -1.5459  1.2983
 5625TIP3    H238367   6.308   0.272  14.491  1.4026 -0.7967 -2.9704
 5626TIP3   OH238368   2.328   2.664  14.991 -0.3038  0.0264  0.5212
 5626TIP3    H138369   2.410   2.654  15.039 -0.2894  0.8794  0.6808
 5626TIP3    H238370   2.260   2.650  15.057 -0.2888  2.2013  1.0360
 5627TIP3   OH238371   1.376   3.358   3.881 -0.0318 -0.1577  0.2326
 5627TIP3    H138372   1.374   3.352   3.976  0.2908  0.4722  0.2815
 5627TIP3    H238373   1.294   3.318   3.852 -0.7784  0.9135  0.8344
 5628TIP3   OH238374   4.120   1.531   4.108  0.7779  0.5647 -0.0732
 5628TIP3    H138375   4.157   1.596   4.168 -1.1941  2.2925 -0.6827
 5628TIP3    H238376   4.196   1.480   4.079  2.0127  0.9096  2.4214
 5629TIP3   OH238377   2.258   0.004  12.839 -0.5182  0.1136 -1.0696
 5629TIP3    H138378   2.264   0.071  12.907  0.5240 -1.0100 -0.0093
 5629TIP3    H238379   2.167  -0.025  12.842 -0.4104 -0.1358  0.0705
 5630TIP3   OH238380   5.405   3.728   5.219  0.0495  0.6897  0.3206
 5630TIP3    H138381   5.390   3.642   5.257  1.3561  0.5147  0.4860
 5630TIP3    H238382   5.422   3.711   5.126 -1.9907  1.0060 -0.1373
 5631TIP3   OH238383   2.290   5.025  10.700  0.5087  0.4322 -0.1992
 5631TIP3    H138384   2.340   5.062  10.627  0.5088 -0.9597 -0.9211
 5631TIP3    H238385   2.205   5.001  10.661 -0.2200  1.4989  0.7009
 5632TIP3   OH238386   1.012   1.402  12.109 -0.5009  0.7174 -0.6269
 5632TIP3    H138387   1.073   1.476  12.112 -1.9035  1.9150 -1.0784
 5632TIP3    H238388   1.067   1.327  12.086  1.1683  1.3437  1.1957
 5633TIP3   OH238389   0.401   3.037  16.215  0.1342 -0.5495  0.0068
 5633TIP3    H138390   0.379   3.053  16.123  1.4999  1.4669 -0.0148
 5633TIP3    H238391   0.322   3.061  16.263  0.0628  0.3075 -0.5183
 5634TIP3   OH238392   5.213   2.254  14.506  0.1251 -0.7989  0.6942
 5634TIP3    H138393   5.289   2.221  14.458  0.2210  1.3312 -0.6811
 5634TIP3    H238394   5.140   2.247  14.444 -0.1284  0.2151  0.8635
 5635TIP3   OH238395   3.648   5.351   1.085  0.5732 -0.6985  0.2107
 5635TIP3    H138396   3.710   5.424   1.088 -1.1669  0.7476  2.6677
 5635TIP3    H238397   3.676   5.293   1.156 -1.0264  0.1256  1.5535
 5636TIP3   OH238398   6.679   2.693   6.165 -0.1369 -0.1534  0.1154
 5636TIP3    H138399   6.632   2.623   6.121  0.2503 -0.5903  0.3918
 5636TIP3    H238400   6.615   2.730   6.227  0.7439 -2.6720  2.5968
 5637TIP3   OH238401   5.281   0.876   3.787  0.8028 -0.1309  0.6295
 5637TIP3    H138402   5.229   0.918   3.855  0.4522  1.4515 -0.5722
 5637TIP3    H238403   5.371   0.906   3.804  0.7968 -0.1664  0.7207
 5638TIP3   OH238404   3.822   6.175   0.957 -0.4336 -0.2181 -0.4348
 5638TIP3    H138405   3.731   6.169   0.987  0.0589  1.2095  1.3776
 5638TIP3    H238406   3.825   6.257   0.908  0.9126  2.1291  3.3614
 5639TIP3   OH238407   5.246   3.079   5.772 -0.1498  0.2384  0.0450
 5639TIP3    H138408   5.324   3.056   5.722 -1.9620 -3.2917 -1.3544
 5639TIP3    H238409   5.256   3.033   5.855 -1.3233 -1.4428 -0.6974
 5640TIP3   OH238410   5.496   2.266   4.756  0.1116 -0.4394 -0.4514
 5640TIP3    H138411   5.502   2.349   4.708  0.1482  0.5157  1.1915
 5640TIP3    H238412   5.512   2.199   4.689 -3.0105  0.7057 -2.4729
 5641TIP3   OH238413   4.842   0.090  11.775  0.0997 -0.0963 -0.3488
 5641TIP3    H138414   4.923   0.082  11.723  1.3359 -0.8023  1.6104
 5641TIP3    H238415   4.833   0.183  11.792 -1.1370  0.3172 -3.0466
 5642TIP3   OH238416   6.392   6.234   3.242 -0.4857  0.4752  0.6520
 5642TIP3    H138417   6.431   6.152   3.212 -0.2518  1.3681 -1.5776
 5642TIP3    H238418   6.451   6.264   3.311  0.5124 -0.2515  0.1295
 5643TIP3   OH238419   6.598   4.724   4.663  0.5407 -0.3889  0.3323
 5643TIP3    H138420   6.603   4.806   4.711  0.6732  0.6501 -1.3904
 5643TIP3    H238421   6.675   4.675   4.691  1.7554  1.0710 -0.3615
 5644TIP3   OH238422   4.250   5.042   4.123  0.4469  0.3011  0.4228
 5644TIP3    H138423   4.266   5.119   4.068 -1.0358  0.0232 -0.4188
 5644TIP3    H238424   4.335   5.024   4.163  1.5271  0.5865 -1.6557
 5645TIP3   OH238425   5.154   4.927   3.963 -0.2919 -0.3090 -0.7127
 5645TIP3    H138426   5.206   4.960   3.890  0.5587 -0.9281 -0.3859
 5645TIP3    H238427   5.209   4.940   4.040 -1.1357  0.2309 -0.1888
 5646TIP3   OH238428   1.409   3.090  12.904 -0.1084 -0.0451 -0.2300
 5646TIP3    H138429   1.331   3.145  12.897 -0.4275 -0.3512  0.7476
 5646TIP3    H238430   1.395   3.040  12.985  2.0192  1.3453  1.0467
 5647TIP3   OH238431   4.505   0.825  15.622  0.3844 -0.0032  0.0805
 5647TIP3    H138432   4.463   0.749  15.581  1.1765 -0.0529 -0.6515
 5647TIP3    H238433   4.438   0.893  15.618  0.1184 -0.2894 -0.4436
 5648TIP3   OH238434   1.168   2.944   6.478 -0.5440 -0.2333  0.1747
 5648TIP3    H138435   1.164   3.040   6.475  0.9597 -0.1634 -0.1727
 5648TIP3    H238436   1.259   2.925   6.501 -0.6496 -1.5930 -0.4842
 5649TIP3   OH238437   5.866   2.427   3.382  0.1272 -0.6083  0.2312
 5649TIP3    H138438   5.875   2.366   3.309  1.4062  0.7572 -0.7646
 5649TIP3    H238439   5.772   2.435   3.396 -0.1477 -0.2851 -1.7633
 5650TIP3   OH238440   4.107   1.380   0.279  0.6853 -0.4214 -0.2311
 5650TIP3    H138441   4.089   1.402   0.188  2.1386 -0.5038 -0.5520
 5650TIP3    H238442   4.201   1.398   0.290  0.9713 -2.3107  0.6798
 5651TIP3   OH238443   4.334   1.067   2.034 -0.1539 -0.3082 -0.3587
 5651TIP3    H138444   4.377   1.029   2.110 -0.3794 -1.3715 -0.7441
 5651TIP3    H238445   4.358   1.159   2.036 -1.2265 -0.0351  1.7450
 5652TIP3   OH238446   5.943   0.861   3.892  0.6400  0.0898  0.7748
 5652TIP3    H138447   5.917   0.777   3.929  0.0173 -0.6200 -1.2341
 5652TIP3    H238448   6.036   0.868   3.912  0.9778 -1.6447 -0.0551
 5653TIP3   OH238449   1.568   4.404   0.522 -0.1885  0.2111 -0.0568
 5653TIP3    H138450   1.497   4.461   0.491 -1.2504 -0.9334  0.2207
 5653TIP3    H238451   1.578   4.427   0.615  0.8508  1.4302 -0.4521
 5654TIP3   OH238452   4.615   4.595   5.112 -0.5797  0.4296  0.4636
 5654TIP3    H138453   4.677   4.524   5.131 -0.1492  0.8224  0.5376
 5654TIP3    H238454   4.651   4.638   5.034 -0.5334  0.9286  0.7610
 5655TIP3   OH238455   3.702   3.931   4.784  0.2002  0.2805 -0.0724
 5655TIP3    H138456   3.714   3.885   4.701 -0.7399 -0.0429 -0.0388
 5655TIP3    H238457   3.701   3.862   4.850  0.4661  0.4966  0.1603
 5656TIP3   OH238458   4.455   2.975   0.332 -0.6868 -0.1972  0.0185
 5656TIP3    H138459   4.459   2.882   0.358  1.4255 -0.2636 -0.4837
 5656TIP3    H238460   4.389   3.012   0.390 -5.5355 -3.1190 -3.2833
 5657TIP3   OH238461   5.278   1.978  15.845 -0.0454 -0.0995  0.0216
 5657TIP3    H138462   5.366   1.951  15.870  0.3942  1.4094  0.1391
 5657TIP3    H238463   5.269   1.949  15.754  0.6867  0.0214 -0.0896
 5658TIP3   OH238464   6.193   1.751  12.128  0.0683 -0.0355 -0.3984
 5658TIP3    H138465   6.206   1.838  12.090  1.7380  0.0929  0.4227
 5658TIP3    H238466   6.207   1.763  12.222 -0.9261 -0.9637 -0.1205
 5659TIP3   OH238467   6.034   5.733  16.873 -0.1137  0.5288  0.2672
 5659TIP3    H138468   5.999   5.821  16.888 -0.8161  0.0633  1.4368
 5659TIP3    H238469   6.118   5.732  16.917  0.6665  1.1344 -1.1703
 5660TIP3   OH238470   3.793   2.336  13.784  0.4412 -0.0733  0.2044
 5660TIP3    H138471   3.719   2.354  13.841  0.7718  0.1242  0.5780
 5660TIP3    H238472   3.779   2.247  13.753 -0.5644  0.3809 -0.6695
 5661TIP3   OH238473   6.368   6.098  11.246 -0.8189  0.5521  0.5664
 5661TIP3    H138474   6.385   6.065  11.158  0.6176 -0.0462  1.0405
 5661TIP3    H238475   6.444   6.154  11.265  0.7945 -2.2418  2.8110
 5662TIP3   OH238476   3.735   2.537   0.434 -0.2191  0.6323 -0.7173
 5662TIP3    H138477   3.645   2.567   0.420 -0.9147 -1.1389 -0.2388
 5662TIP3    H238478   3.746   2.466   0.371  0.0553 -0.6649  0.7596
 5663TIP3   OH238479   1.678   1.500   4.319  0.9318 -0.2215  0.1855
 5663TIP3    H138480   1.600   1.553   4.337 -0.1234 -2.3340  2.1581
 5663TIP3    H238481   1.662   1.464   4.231 -0.5090 -0.8733  0.6888
 5664TIP3   OH238482   6.171   4.039  13.718 -0.4322 -0.0980  0.3393
 5664TIP3    H138483   6.164   4.039  13.813 -1.0366 -1.0054  0.3050
 5664TIP3    H238484   6.086   4.070  13.687  0.2615  1.6226  0.1075
 5665TIP3   OH238485   2.475   6.761   1.852  0.5755  0.1079  0.0653
 5665TIP3    H138486   2.463   6.712   1.934 -1.1182  0.2547 -0.0772
 5665TIP3    H238487   2.542   6.711   1.804  0.1175 -1.1129  0.6661
 5666TIP3   OH238488   6.766   6.495   2.142  0.3820 -0.7199  0.3664
 5666TIP3    H138489   6.831   6.432   2.174 -0.0837 -2.1074 -1.2980
 5666TIP3    H238490   6.802   6.580   2.164  2.1115 -1.5115  0.7057
 5667TIP3   OH238491   3.367   6.558   1.868 -0.3072 -0.6823  0.4036
 5667TIP3    H138492   3.303   6.533   1.802 -0.0753  0.1245 -0.1209
 5667TIP3    H238493   3.448   6.574   1.820 -0.2688  0.4042  0.8231
 5668TIP3   OH238494   2.016   2.782  15.580  0.5849  0.0682  0.1344
 5668TIP3    H138495   2.053   2.866  15.604  0.3698  0.0821  0.4118
 5668TIP3    H238496   1.938   2.804  15.529  0.9370  0.0381 -0.4320
 5669TIP3   OH238497   4.927   2.233  17.053 -0.1567  0.0115  0.0575
 5669TIP3    H138498   5.022   2.235  17.044 -0.2006  0.6221 -0.2460
 5669TIP3    H238499   4.902   2.148  17.016  0.0237  0.9300 -2.2897
 5670TIP3   OH238500   3.725   5.465   2.462 -0.8535  0.3292  0.5642
 5670TIP3    H138501   3.721   5.561   2.464 -1.3111  0.3891 -1.7833
 5670TIP3    H238502   3.811   5.444   2.499  0.2730  1.7899 -1.1123
 5671TIP3   OH238503   5.295   4.358  12.111 -0.2953  0.0019 -0.6761
 5671TIP3    H138504   5.362   4.342  12.044 -0.1511 -3.1758  0.1100
 5671TIP3    H238505   5.327   4.433  12.160  2.1277 -0.7372 -1.0456
 5672TIP3   OH238506   3.849   0.496  12.773 -0.2376  0.1316 -0.2828
 5672TIP3    H138507   3.915   0.471  12.838 -0.5984  1.8691  0.8037
 5672TIP3    H238508   3.773   0.522  12.826 -1.6344 -1.3615 -1.5037
 5673TIP3   OH238509   0.321   4.520   3.924 -0.6040  0.1646 -0.6553
 5673TIP3    H138510   0.268   4.510   3.846 -1.7288 -0.6840  0.2045
 5673TIP3    H238511   0.269   4.480   3.994  1.4114 -1.2698  0.0862
 5674TIP3   OH238512   3.233   2.059   1.894  0.2553 -0.0947  0.2814
 5674TIP3    H138513   3.150   2.073   1.849 -0.0352  1.5044  1.2933
 5674TIP3    H238514   3.297   2.049   1.823 -0.5528  0.1118 -0.4886
 5675TIP3   OH238515   6.336   4.483  12.473 -0.2631  0.1685  0.0628
 5675TIP3    H138516   6.316   4.561  12.525  1.3884  1.4484 -1.1665
 5675TIP3    H238517   6.396   4.432  12.527  1.7117  1.6535 -0.6593
 5676TIP3   OH238518   1.885   5.948  16.625 -0.2704 -0.0229  0.1106
 5676TIP3    H138519   1.909   5.901  16.705  1.6081 -1.1274 -1.0566
 5676TIP3    H238520   1.967   5.989  16.596 -1.3462  1.8994 -0.2487
 5677TIP3   OH238521   0.556   1.414  14.570  0.3238 -0.4595  0.4337
 5677TIP3    H138522   0.491   1.344  14.556  0.7090 -0.1204 -3.4948
 5677TIP3    H238523   0.508   1.495  14.554  1.4686 -0.1718 -1.7300
 5678TIP3   OH238524   5.054   6.336   5.201 -0.3181 -0.4528  0.2226
 5678TIP3    H138525   5.049   6.322   5.107 -1.4653  0.4871  0.1323
 5678TIP3    H238526   4.971   6.377   5.224  0.0869 -0.3603  1.5907
 5679TIP3   OH238527   2.526   1.004  13.210  0.4310  0.1734  0.6719
 5679TIP3    H138528   2.567   0.965  13.288 -1.6822 -0.1221  1.6832
 5679TIP3    H238529   2.461   0.939  13.182  0.3905  0.7770 -0.6519
 5680TIP3   OH238530   1.783   2.163   5.381  0.4162 -0.0852  0.1444
 5680TIP3    H138531   1.842   2.130   5.313 -0.4000 -2.1610  0.4174
 5680TIP3    H238532   1.789   2.099   5.452 -1.5462  0.1166  0.5223
 5681TIP3   OH238533   5.410   5.173  14.218 -0.9973  0.1080  0.1144
 5681TIP3    H138534   5.431   5.085  14.248  1.3894  0.5528 -0.1611
 5681TIP3    H238535   5.495   5.213  14.199 -2.1524  1.7509 -1.7748
 5682TIP3   OH238536   1.445   1.415  13.634  0.1210  0.1150 -0.5226
 5682TIP3    H138537   1.517   1.420  13.697 -1.4425 -0.1911  1.3453
 5682TIP3    H238538   1.431   1.506  13.606  1.8724  0.0546 -1.6992
 5683TIP3   OH238539   5.391   2.786  14.040  0.4427 -0.4313  0.9321
 5683TIP3    H138540   5.475   2.752  14.069 -0.2795 -1.3978  1.9294
 5683TIP3    H238541   5.357   2.720  13.980  0.9626  0.5563 -0.4635
 5684TIP3   OH238542   1.553   0.005  11.254 -0.6416  0.2263  0.2183
 5684TIP3    H138543   1.630  -0.040  11.221 -0.8381  0.8654 -1.1433
 5684TIP3    H238544   1.484  -0.014  11.190 -1.6281 -0.3285  1.4026
 5685TIP3   OH238545   1.299   4.109  10.387 -0.3660 -0.0328 -0.0704
 5685TIP3    H138546   1.231   4.174  10.370 -1.0906 -1.4350 -2.7693
 5685TIP3    H238547   1.263   4.054  10.457 -0.4476  1.4250  1.0548
 5686TIP3   OH238548   1.194   3.261  16.024 -0.1269 -0.2271  0.4048
 5686TIP3    H138549   1.286   3.233  16.022 -0.7469 -2.2575 -1.7918
 5686TIP3    H238550   1.182   3.312  15.944 -0.7083  0.7478  1.1042
 5687TIP3   OH238551   1.667   2.700  15.458  0.5535  0.2324  0.6642
 5687TIP3    H138552   1.711   2.640  15.519 -1.2181 -2.8045 -0.8911
 5687TIP3    H238553   1.579   2.711  15.495  0.2961  0.4159 -0.0034
 5688TIP3   OH238554   6.039   3.628  11.741  0.1256  0.3472 -0.6809
 5688TIP3    H138555   5.978   3.605  11.670 -0.0750 -1.4134  0.0439
 5688TIP3    H238556   5.991   3.693  11.792 -1.3361 -1.3053  0.1051
 5689TIP3   OH238557   3.511   3.409  15.502 -0.0980 -0.1688  0.0756
 5689TIP3    H138558   3.508   3.484  15.443 -1.0792 -0.6276 -0.4803
 5689TIP3    H238559   3.592   3.362  15.478  0.1430  0.3188 -0.0635
 5690TIP3   OH238560   6.407   5.458  16.153  0.7183 -0.9487  0.0071
 5690TIP3    H138561   6.448   5.541  16.130 -1.5236  0.5973  1.3688
 5690TIP3    H238562   6.475   5.409  16.200  0.8818  1.8132  2.8026
 5691TIP3   OH238563   2.586   4.708   6.696  0.8327  0.0859  0.1148
 5691TIP3    H138564   2.538   4.626   6.685 -0.6709  0.9922 -0.2165
 5691TIP3    H238565   2.642   4.715   6.619 -2.1554  1.4205 -2.0244
 5692TIP3   OH238566   3.073   0.396  16.547 -0.1757  0.1383 -0.1008
 5692TIP3    H138567   3.035   0.459  16.609  1.2294  0.5221  0.3798
 5692TIP3    H238568   3.033   0.420  16.463  0.9530  2.2604 -0.0880
 5693TIP3   OH238569   4.764   6.091  14.368  0.1083 -0.2916 -0.1469
 5693TIP3    H138570   4.711   6.142  14.307 -0.0893 -0.1470  0.1431
 5693TIP3    H238571   4.700   6.042  14.420  0.1491  1.2726  1.4461
 5694TIP3   OH238572   5.323   4.542   2.637  0.1667  0.4725 -0.3419
 5694TIP3    H138573   5.315   4.567   2.729  2.4355  0.8848 -0.2412
 5694TIP3    H238574   5.339   4.448   2.639  1.0690  0.6299 -0.2820
 5695TIP3   OH238575   5.174   0.534   3.267 -0.0759  0.2152  0.5223
 5695TIP3    H138576   5.240   0.547   3.199  0.7762 -0.0863  1.2856
 5695TIP3    H238577   5.130   0.452   3.242  0.4808 -0.0898  0.5407
 5696TIP3   OH238578   0.439   0.803  14.606 -0.1360  0.5569 -0.6827
 5696TIP3    H138579   0.452   0.875  14.545 -0.5352  0.8375 -0.4347
 5696TIP3    H238580   0.517   0.748  14.595  0.4925  1.3848 -0.3762
 5697TIP3   OH238581   3.554   6.364   1.019  0.7627  0.2028  0.1089
 5697TIP3    H138582   3.476   6.362   0.963 -0.6253 -0.1457  2.0102
 5697TIP3    H238583   3.559   6.276   1.056  1.2384  0.6364  1.0909
 5698TIP3   OH238584   1.525   0.788   0.617  0.1373 -0.6924  0.2544
 5698TIP3    H138585   1.435   0.818   0.634 -0.1850 -0.3629 -1.8689
 5698TIP3    H238586   1.580   0.852   0.663 -0.6938  0.0618  0.2229
 5699TIP3   OH238587   6.533   5.914  14.269 -0.7398 -0.5120 -0.5432
 5699TIP3    H138588   6.443   5.898  14.240 -1.0240 -0.4928  0.3377
 5699TIP3    H238589   6.583   5.840  14.234 -1.2623 -1.0131 -0.2312
 5700TIP3   OH238590   3.196   2.750  14.508  0.2588 -0.0728 -0.6864
 5700TIP3    H138591   3.269   2.754  14.446  0.3779  1.2487 -0.4910
 5700TIP3    H238592   3.123   2.791  14.460 -0.0019 -0.2340 -0.4240
 5701TIP3   OH238593   1.285   1.549   5.929  0.2065 -0.4098 -0.1630
 5701TIP3    H138594   1.332   1.605   5.991  1.9872  0.7956 -2.5397
 5701TIP3    H238595   1.234   1.490   5.985 -2.2824  3.9354  2.4910
 5702TIP3   OH238596   3.517   4.249  11.245 -0.2894 -0.0162  0.1449
 5702TIP3    H138597   3.601   4.282  11.213  0.6004 -0.5345  1.9077
 5702TIP3    H238598   3.503   4.294  11.328 -1.7399  0.0222 -0.1067
 5703TIP3   OH238599   6.484   4.356  13.998 -0.3437  0.4218  0.5006
 5703TIP3    H138600   6.395   4.366  14.031 -0.5676 -1.4715  0.5057
 5703TIP3    H238601   6.526   4.298  14.061  0.8845  1.2194  0.4447
 5704TIP3   OH238602   2.977   2.716  11.383 -0.1032  0.0453 -0.1908
 5704TIP3    H138603   2.895   2.676  11.354 -1.0017  0.4379  1.7211
 5704TIP3    H238604   3.032   2.718  11.305 -2.5330  1.4069 -1.9207
 5705TIP3   OH238605   3.525   6.746   0.748  0.1880 -0.4953 -0.3479
 5705TIP3    H138606   3.496   6.736   0.658  1.4749 -0.3552 -0.7852
 5705TIP3    H238607   3.444   6.757   0.798 -0.4481  1.1502 -1.6946
 5706TIP3   OH238608   1.650   4.938  17.212 -0.8140 -0.4457 -0.5665
 5706TIP3    H138609   1.737   4.897  17.211 -1.1953 -1.3564  1.3935
 5706TIP3    H238610   1.594   4.878  17.164 -0.7071 -0.6725 -0.4073
 5707TIP3   OH238611   4.011   2.054  12.037 -0.1746 -0.0153  0.6705
 5707TIP3    H138612   4.086   2.094  12.080  1.2278 -0.3126 -1.4100
 5707TIP3    H238613   3.958   2.128  12.007  0.5138  0.2316  0.0655
 5708TIP3   OH238614   2.347   0.358   1.663  0.2826  0.1561  0.6879
 5708TIP3    H138615   2.392   0.382   1.744 -0.0747  1.2832  0.5600
 5708TIP3    H238616   2.257   0.388   1.676 -0.4321 -2.0400  0.9235
 5709TIP3   OH238617   5.618   3.990   4.464 -0.2684 -0.3477  0.5699
 5709TIP3    H138618   5.708   3.970   4.437 -0.7386 -1.5873 -0.1210
 5709TIP3    H238619   5.624   4.076   4.506  1.7514 -1.6929  3.2055
 5710TIP3   OH238620   2.152   5.603   3.113  0.0902 -0.1149  0.1588
 5710TIP3    H138621   2.076   5.553   3.143 -0.3360  1.2938  1.5272
 5710TIP3    H238622   2.227   5.557   3.150 -0.1834 -0.6961 -0.0031
 5711TIP3   OH238623   3.639   4.238   1.423 -0.4309  0.1842  0.0361
 5711TIP3    H138624   3.637   4.240   1.518 -1.8030 -1.1133  0.0528
 5711TIP3    H238625   3.715   4.184   1.401 -0.5887 -0.1897  0.4096
 5712TIP3   OH238626   1.937   5.592  11.756  0.0712  0.2640  0.7137
 5712TIP3    H138627   1.863   5.541  11.789  0.1355 -0.8365 -0.8054
 5712TIP3    H238628   1.907   5.683  11.764 -0.1810 -0.0041  3.0823
 5713TIP3   OH238629   2.278   3.723  17.193  0.1491  0.7193 -0.0565
 5713TIP3    H138630   2.296   3.637  17.157 -0.5666  0.9743 -1.0494
 5713TIP3    H238631   2.364   3.762  17.210  0.4855  0.4993 -1.2558
 5714TIP3   OH238632   4.863   6.759  12.053 -0.1946  0.2137  0.0773
 5714TIP3    H138633   4.857   6.834  11.994  0.2505  0.1278 -0.0752
 5714TIP3    H238634   4.794   6.774  12.117  0.0536  0.8796  0.1889
 5715TIP3   OH238635   5.713   5.202  16.500 -0.0980  0.0602 -0.0319
 5715TIP3    H138636   5.767   5.279  16.517 -1.0325  0.3796  1.5641
 5715TIP3    H238637   5.740   5.137  16.565 -0.4150 -0.3996 -0.3447
 5716TIP3   OH238638   3.851   4.990   1.662  0.0961 -0.2500 -0.3632
 5716TIP3    H138639   3.900   4.916   1.626  0.8914 -0.7791  1.7267
 5716TIP3    H238640   3.798   4.952   1.732  0.5137  1.1393  0.7426
 5717TIP3   OH238641   1.006   6.628   4.313 -0.0473  0.0802  0.2357
 5717TIP3    H138642   0.969   6.714   4.332  0.4132  0.8194 -2.0746
 5717TIP3    H238643   1.092   6.646   4.276  0.2696 -1.3987  0.2137
 5718TIP3   OH238644   5.815   1.058  13.710 -0.0505 -0.0210  0.0852
 5718TIP3    H138645   5.858   1.139  13.736 -0.8160  0.3597  0.1968
 5718TIP3    H238646   5.776   1.077  13.625  0.7118 -0.6272 -0.4056
 5719TIP3   OH238647   4.188   2.876   4.473 -0.6801  0.7947  0.3758
 5719TIP3    H138648   4.172   2.814   4.402 -0.5035  0.6259  0.4849
 5719TIP3    H238649   4.105   2.923   4.482 -0.8185  0.5637  0.3065
 5720TIP3   OH238650   5.719   0.784   3.581  0.1016  0.4445 -0.3679
 5720TIP3    H138651   5.668   0.710   3.616 -0.5579  0.6032 -0.9978
 5720TIP3    H238652   5.724   0.846   3.654  0.9540 -0.3687  0.2768
 5721TIP3   OH238653   2.423   5.659  15.110 -0.3263 -0.0528  0.2519
 5721TIP3    H138654   2.341   5.708  15.107  0.2530  0.9170 -0.0163
 5721TIP3    H238655   2.412   5.591  15.044 -1.1827 -0.3628  0.7012
 5722TIP3   OH238656   4.905   2.239  15.451 -0.1176  0.0727 -0.2412
 5722TIP3    H138657   4.918   2.299  15.524  0.5425  0.2965 -0.5383
 5722TIP3    H238658   4.959   2.163  15.473 -3.1118 -1.6571  1.5092
 5723TIP3   OH238659   2.710   6.352  17.245 -0.1914  0.3039  0.8299
 5723TIP3    H138660   2.805   6.357  17.258 -0.1311  0.9279  0.1515
 5723TIP3    H238661   2.675   6.330  17.332  0.7374 -1.9569  0.6752
 5724TIP3   OH238662   2.237   4.496   5.247  0.1926  0.7968  0.1758
 5724TIP3    H138663   2.188   4.446   5.182 -0.4148  0.4505  0.8982
 5724TIP3    H238664   2.328   4.492   5.217  0.2801 -1.4905  0.6832
 5725TIP3   OH238665   2.190   1.853   6.686  0.3052  0.1280  0.8441
 5725TIP3    H138666   2.135   1.780   6.661  1.5371 -0.7051  0.4996
 5725TIP3    H238667   2.148   1.930   6.648 -0.8083 -0.4479  0.9195
 5726TIP3   OH238668   4.972   4.753   3.795 -0.0008 -0.0132 -0.0083
 5726TIP3    H138669   4.980   4.813   3.869  0.6237 -2.2324  1.7651
 5726TIP3    H238670   4.912   4.685   3.826 -1.6761  0.3174 -2.4157
 5727TIP3   OH238671   1.645   0.700   5.583  0.6781  0.2878  0.4377
 5727TIP3    H138672   1.723   0.677   5.533 -0.5593  0.8186 -1.8326
 5727TIP3    H238673   1.598   0.618   5.596  0.2567  0.3605 -0.6092
 5728TIP3   OH238674   2.146   1.246   4.131  0.3407 -0.2558 -0.0099
 5728TIP3    H138675   2.116   1.308   4.064 -1.5229 -1.3594 -0.2473
 5728TIP3    H238676   2.210   1.295   4.183  1.7798  0.6448 -2.5516
 5729TIP3   OH238677   4.000   3.013  11.107 -1.0116  0.2480  0.1478
 5729TIP3    H138678   3.979   2.941  11.167 -1.2866  0.9903  0.9553
 5729TIP3    H238679   4.056   3.072  11.158 -0.6839  0.5448 -0.5443
 5730TIP3   OH238680   3.943   2.718   1.671  0.7626 -0.9367  0.6039
 5730TIP3    H138681   3.906   2.630   1.665 -0.4175 -0.3693 -0.8721
 5730TIP3    H238682   3.867   2.775   1.682  1.4016  0.0007  0.2017
 5731TIP3   OH238683   3.289   0.901  15.952 -0.1069  0.0764  0.1284
 5731TIP3    H138684   3.207   0.939  15.983  0.3106  0.1411  1.1728
 5731TIP3    H238685   3.357   0.952  15.995  0.4758 -0.7972  0.2604
 5732TIP3   OH238686   1.365   3.794  12.770  0.5816 -0.2672  0.0611
 5732TIP3    H138687   1.407   3.712  12.744 -0.2285 -0.5740 -0.2820
 5732TIP3    H238688   1.414   3.861  12.722 -0.1859 -0.7360 -1.4384
 5733TIP3   OH238689   1.828   6.414   3.430  0.3743 -0.0507  0.1583
 5733TIP3    H138690   1.755   6.411   3.492 -1.3640  1.8981 -1.7490
 5733TIP3    H238691   1.885   6.484   3.463  0.4643 -0.3356  0.6180
 5734TIP3   OH238692   1.450   4.663  15.057  0.5978 -0.4452 -1.0558
 5734TIP3    H138693   1.534   4.704  15.036  0.8625 -0.9940 -1.0647
 5734TIP3    H238694   1.410   4.647  14.971  1.3350 -1.9649 -1.1265
 5735TIP3   OH238695   1.051   2.024   2.302  0.1453  0.3007  0.1180
 5735TIP3    H138696   1.124   2.013   2.364 -0.2024 -4.1693 -0.1388
 5735TIP3    H238697   1.093   2.024   2.216  0.1597  1.6026  0.1129
 5736TIP3   OH238698   2.823   5.869  13.318 -0.5430 -0.2775  0.1410
 5736TIP3    H138699   2.852   5.921  13.243  1.4902 -1.1409  0.2845
 5736TIP3    H238700   2.898   5.812  13.338 -1.4321 -0.7935  2.1699
 5737TIP3   OH238701   6.402   1.054   1.078 -0.2811  0.0218 -0.4674
 5737TIP3    H138702   6.495   1.030   1.078 -0.2220  0.2488 -0.6343
 5737TIP3    H238703   6.360   0.989   1.135  0.0851  0.3206  0.1486
 5738TIP3   OH238704   0.285   2.797   2.636  0.1970  0.0309  0.0521
 5738TIP3    H138705   0.242   2.781   2.552  0.5300 -0.4227 -0.0371
 5738TIP3    H238706   0.226   2.759   2.701  0.3663 -0.4183 -0.0529
 5739TIP3   OH238707   3.369   5.715  12.796  0.2258 -0.1738  0.0101
 5739TIP3    H138708   3.409   5.776  12.734  0.2499  0.3919  0.5794
 5739TIP3    H238709   3.345   5.639  12.742 -1.8791  1.2594 -1.1400
 5740TIP3   OH238710   0.205   3.399   4.345 -0.3390  0.5335 -0.2197
 5740TIP3    H138711   0.130   3.340   4.336 -0.4015  0.7663 -1.4302
 5740TIP3    H238712   0.184   3.472   4.286  1.5997 -0.2112 -1.9046
 5741TIP3   OH238713   2.492   6.759   0.597 -0.1846 -0.0976 -0.2381
 5741TIP3    H138714   2.587   6.752   0.588 -0.0654 -0.0717  0.9119
 5741TIP3    H238715   2.458   6.736   0.511  0.9018  0.7250 -0.8928
 5742TIP3   OH238716   6.702   2.435  16.415 -0.4390 -0.1041  0.2790
 5742TIP3    H138717   6.783   2.466  16.455 -0.6404 -1.2012  1.5443
 5742TIP3    H238718   6.731   2.377  16.345 -0.1118  1.0983 -0.6155
 5743TIP3   OH238719   3.636   5.526  16.504  0.3076  0.1068  0.2955
 5743TIP3    H138720   3.697   5.566  16.566 -1.4946  0.5716  1.7961
 5743TIP3    H238721   3.687   5.518  16.423  2.1702  1.0453  1.3352
 5744TIP3   OH238722   1.076   1.681   4.442 -0.1692  0.2168 -0.2359
 5744TIP3    H138723   1.136   1.712   4.373  1.2337 -0.9818  0.4152
 5744TIP3    H238724   1.111   1.720   4.522 -1.6535  1.4008 -0.1425
 5745TIP3   OH238725   3.557   2.616   1.933  0.7140  0.2873  0.3459
 5745TIP3    H138726   3.487   2.653   1.879  0.2019 -3.5414 -1.8151
 5745TIP3    H238727   3.517   2.539   1.973  3.0876 -0.8075  0.6923
 5746TIP3   OH238728   3.598   2.162  16.247 -0.3006  0.0571  0.5038
 5746TIP3    H138729   3.554   2.243  16.271 -2.1495 -0.4330 -1.0546
 5746TIP3    H238730   3.592   2.160  16.151  0.2517 -1.6196  0.4937
 5747TIP3   OH238731   6.123   1.906   0.417  0.0464 -0.3543 -0.1927
 5747TIP3    H138732   6.194   1.909   0.353 -1.6813 -0.7237 -2.1654
 5747TIP3    H238733   6.126   1.992   0.459  1.4499 -0.2530 -0.4624
 5748TIP3   OH238734   1.997   4.399   6.392  0.1019  0.4313  0.2126
 5748TIP3    H138735   1.908   4.417   6.360 -0.4034 -1.6754  0.3405
 5748TIP3    H238736   2.049   4.474   6.362 -1.6207  1.4684 -0.2605
 5749TIP3   OH238737   1.563   1.826   5.717  0.0178  0.5513 -0.0984
 5749TIP3    H138738   1.623   1.810   5.790 -1.5746  1.5365  1.4468
 5749TIP3    H238739   1.510   1.746   5.713 -1.3533  1.3788  1.2524
 5750TIP3   OH238740   6.384   1.600  16.298 -0.0999  0.6998 -0.1704
 5750TIP3    H138741   6.479   1.608  16.290  0.3869 -4.1350 -0.8278
 5750TIP3    H238742   6.353   1.589  16.208 -1.2877  1.9562  0.0699
 5751TIP3   OH238743   1.114   3.314  13.606  0.4891 -0.0712 -0.0881
 5751TIP3    H138744   1.061   3.249  13.560  2.5042 -2.1623  0.4678
 5751TIP3    H238745   1.050   3.374  13.645 -1.3572 -0.6391 -2.1150
 5752TIP3   OH238746   6.298   0.108   5.182 -0.4313 -0.5146 -0.2347
 5752TIP3    H138747   6.386   0.082   5.208 -0.1929  0.1228 -0.3948
 5752TIP3    H238748   6.295   0.202   5.198 -0.4666 -0.2058 -1.9825
 5753TIP3   OH238749   6.379   2.562  13.568 -0.2611 -0.4096 -0.8121
 5753TIP3    H138750   6.463   2.533  13.531  0.8633 -0.2437  1.5681
 5753TIP3    H238751   6.364   2.647  13.527  0.9442 -0.2457 -0.9391
 5754TIP3   OH238752   5.437   6.090  17.110 -0.2992 -0.3764 -0.8331
 5754TIP3    H138753   5.398   6.007  17.082 -1.7277  0.8521 -2.6303
 5754TIP3    H238754   5.365   6.137  17.151  0.2800  0.3514 -0.6553
 5755TIP3   OH238755   1.730   4.006  14.918 -0.4346 -0.1950 -0.1621
 5755TIP3    H138756   1.680   3.953  14.979 -0.0792  1.2309  1.4084
 5755TIP3    H238757   1.667   4.029  14.849 -1.7141  0.8113  1.3031
 5756TIP3   OH238758   5.568   0.889  13.321 -0.2772 -0.3764 -0.1468
 5756TIP3    H138759   5.658   0.919  13.312 -1.2383  2.0759 -2.4569
 5756TIP3    H238760   5.534   0.938  13.396 -0.1237 -0.2074 -0.1876
 5757TIP3   OH238761   0.855   6.468  13.293  0.0793 -0.4296  0.0479
 5757TIP3    H138762   0.919   6.415  13.341 -0.7648 -1.0265  0.5292
 5757TIP3    H238763   0.810   6.519  13.361 -2.0477 -2.2770  0.0834
 5758TIP3   OH238764   5.244   1.838   0.863  0.2792  0.3640 -0.0150
 5758TIP3    H138765   5.256   1.821   0.956 -0.9254 -0.8935 -0.0859
 5758TIP3    H238766   5.278   1.927   0.850  2.5311 -0.2797  1.1833
 5759TIP3   OH238767   3.804   0.910  15.927 -0.8197 -0.0145 -0.2383
 5759TIP3    H138768   3.743   0.919  16.000 -2.0413  0.3566 -1.2756
 5759TIP3    H238769   3.771   0.971  15.861  0.4764 -0.0794 -0.9604
 5760TIP3   OH238770   0.296   2.248   5.794  0.2999  0.6411  0.0076
 5760TIP3    H138771   0.347   2.208   5.865  1.1132 -0.3015 -1.1010
 5760TIP3    H238772   0.312   2.342   5.804 -0.7928  0.6677  1.9851
 5761TIP3   OH238773   0.978   4.085   1.627  0.1182 -0.1830  0.2905
 5761TIP3    H138774   0.950   4.087   1.719 -0.4081  0.2304  0.1221
 5761TIP3    H238775   1.073   4.075   1.632  0.0290 -0.8108  0.8734
 5762TIP3   OH238776   0.498   1.845   1.053 -0.7139 -0.2819  0.6015
 5762TIP3    H138777   0.533   1.786   0.985 -2.0695 -0.8266  0.3605
 5762TIP3    H238778   0.575   1.892   1.085  0.1895 -1.1804 -0.1867
 5763TIP3   OH238779   6.005   0.723   3.496 -0.2762  0.0943 -0.1768
 5763TIP3    H138780   6.064   0.713   3.571  0.7023 -1.3874 -1.1482
 5763TIP3    H238781   5.918   0.708   3.533 -0.1693  2.9133  1.3928
 5764TIP3   OH238782   4.415   1.419  15.668 -0.3789  0.1045  0.0521
 5764TIP3    H138783   4.464   1.347  15.629 -2.0599 -0.9304 -0.1738
 5764TIP3    H238784   4.458   1.436  15.752  0.1085 -1.0505  0.0306
 5765TIP3   OH238785   0.251   5.902  12.425  1.1160  0.2369 -0.4829
 5765TIP3    H138786   0.291   5.908  12.512  1.3571  2.0134 -0.7110
 5765TIP3    H238787   0.301   5.963  12.371 -0.6855  1.0772 -1.2329
 5766TIP3   OH238788   1.650   2.553  10.658 -0.1218  0.1531 -0.2783
 5766TIP3    H138789   1.601   2.476  10.629 -0.6609  0.4615 -0.1962
 5766TIP3    H238790   1.658   2.542  10.752 -0.7633  0.5121 -0.1769
 5767TIP3   OH238791   3.824   4.014  12.190  0.3861  0.2430  0.5463
 5767TIP3    H138792   3.883   3.947  12.157 -1.7160 -0.9652 -0.9089
 5767TIP3    H238793   3.814   3.995  12.283  0.6850 -0.7589  0.3733
 5768TIP3   OH238794   0.041   3.214  14.657 -0.0862 -0.2055 -0.5040
 5768TIP3    H138795  -0.013   3.265  14.595 -1.3131  0.2218  0.8703
 5768TIP3    H238796  -0.019   3.148  14.692  0.3437  0.1129  0.8686
 5769TIP3   OH238797   6.697   2.990  16.064 -0.3542  0.0559 -0.6094
 5769TIP3    H138798   6.735   3.063  16.015  1.9000 -0.4265  0.3512
 5769TIP3    H238799   6.681   3.025  16.152  0.2819 -0.4467 -0.2829
 5770TIP3   OH238800   0.976   4.738   0.448  0.5436  0.1670  0.8883
 5770TIP3    H138801   0.943   4.744   0.538  1.7809 -0.3950  1.3980
 5770TIP3    H238802   0.944   4.654   0.416 -0.6112  0.7443  0.4933
 5771TIP3   OH238803   3.012   2.004   1.416 -0.3288 -0.0023 -0.0222
 5771TIP3    H138804   2.965   1.920   1.410 -1.4471  0.6654 -0.6620
 5771TIP3    H238805   2.962   2.054   1.480 -0.2305  0.5463 -0.3773
 5772TIP3   OH238806   1.579   3.406  15.158  0.0412  0.1863 -0.4582
 5772TIP3    H138807   1.485   3.425  15.151 -0.5176 -1.7120  1.3987
 5772TIP3    H238808   1.590   3.321  15.117  0.9659  0.3826 -0.6322
 5773TIP3   OH238809   1.886   1.360   5.145 -0.5237  0.0287 -0.0613
 5773TIP3    H138810   1.980   1.353   5.161 -0.3516 -0.3291 -1.2064
 5773TIP3    H238811   1.879   1.386   5.053 -1.6037 -2.5956 -0.7561
 5774TIP3   OH238812   2.424   1.272  11.171 -0.3139  0.1932 -0.0480
 5774TIP3    H138813   2.518   1.262  11.159 -0.3557 -0.4022  0.1021
 5774TIP3    H238814   2.406   1.362  11.146  0.2858  0.2888 -0.1427
 5775TIP3   OH238815   5.913   0.760  16.956 -0.7401  0.4235 -0.0968
 5775TIP3    H138816   5.828   0.726  16.983 -0.2209 -0.3136  0.6595
 5775TIP3    H238817   5.942   0.813  17.030 -0.5460  0.6877 -0.3632
 5776TIP3   OH238818   4.935   2.839   3.149  0.0564  0.0954 -0.2975
 5776TIP3    H138819   4.845   2.828   3.118  0.4461 -0.2831 -1.3033
 5776TIP3    H238820   4.957   2.930   3.127  0.1985 -0.0561 -0.7815
 5777TIP3   OH238821   1.743   4.468   2.045 -0.5275 -0.1243  0.6328
 5777TIP3    H138822   1.659   4.492   2.084 -1.4459  0.3733 -1.5759
 5777TIP3    H238823   1.804   4.534   2.077 -1.2639  0.3053  1.1793
 5778TIP3   OH238824   3.040   4.877   0.507  0.4419  0.7398  0.4959
 5778TIP3    H138825   3.054   4.870   0.602 -0.5982  0.1496  0.6055
 5778TIP3    H238826   3.114   4.831   0.469 -1.8980 -3.7539  1.1017
 5779TIP3   OH238827   5.017   2.467  14.176 -0.1792 -0.4158 -0.3657
 5779TIP3    H138828   4.937   2.518  14.163 -1.1878 -1.7554  0.3923
 5779TIP3    H238829   4.987   2.386  14.216  1.8126 -0.1128  1.8428
 5780TIP3   OH238830   1.814   6.529   6.555  0.2592 -0.3312 -0.7241
 5780TIP3    H138831   1.745   6.576   6.601  0.7714 -0.5694  0.2945
 5780TIP3    H238832   1.768   6.473   6.493 -0.4515 -0.4389 -0.0959
 5781TIP3   OH238833   6.717   5.874  13.641  0.1965  0.1630  0.4263
 5781TIP3    H138834   6.674   5.944  13.592 -1.4698 -0.5858  0.7780
 5781TIP3    H238835   6.706   5.796  13.587  0.0879 -0.2758  1.0718
 5782TIP3   OH238836   6.251   0.556  14.275  0.1422 -0.0308 -0.0018
 5782TIP3    H138837   6.279   0.616  14.206  1.2602  0.5202  0.8964
 5782TIP3    H238838   6.330   0.541  14.327 -0.4563 -1.1878  0.5995
 5783TIP3   OH238839   6.519   0.283   1.650 -0.7998 -0.3813  0.4122
 5783TIP3    H138840   6.599   0.278   1.599 -1.3448 -1.3710 -0.3465
 5783TIP3    H238841   6.495   0.376   1.646  0.7273  0.0798  1.3252
 5784TIP3   OH238842   4.792   6.406   3.638 -1.0406 -0.6596  0.0208
 5784TIP3    H138843   4.810   6.465   3.565  3.5584 -0.2377  1.3230
 5784TIP3    H238844   4.776   6.465   3.712  0.3268 -1.0358  0.6244
 5785TIP3   OH238845   5.089   0.672   1.637 -0.3811 -0.5606 -0.2477
 5785TIP3    H138846   5.075   0.579   1.619 -0.2592 -0.5495 -0.4055
 5785TIP3    H238847   5.107   0.710   1.552  0.2755 -0.5206 -0.0973
 5786TIP3   OH238848   1.855   5.776  14.244  0.3072  0.1648 -0.2019
 5786TIP3    H138849   1.895   5.817  14.321  0.4754  1.4865 -0.9689
 5786TIP3    H238850   1.899   5.691  14.237  0.4993  0.1544  0.9844
 5787TIP3   OH238851   0.927   0.359  15.521 -0.4448 -0.3547 -0.6518
 5787TIP3    H138852   0.973   0.427  15.570  0.1328 -0.6344 -0.8032
 5787TIP3    H238853   0.949   0.278  15.566 -0.8475 -0.4772 -0.6800
 5788TIP3   OH238854   4.923   5.157   0.281  0.1954 -0.1950 -0.2075
 5788TIP3    H138855   4.991   5.092   0.264  0.2869 -0.4969  1.1961
 5788TIP3    H238856   4.916   5.159   0.377 -2.4300 -0.8497 -0.3498
 5789TIP3   OH238857   1.148   5.909  14.485 -0.3556  0.0644  0.0686
 5789TIP3    H138858   1.077   5.912  14.421  0.2483 -2.3352 -0.7717
 5789TIP3    H238859   1.156   5.816  14.508 -0.4518  0.8279  3.5376
 5790TIP3   OH238860   0.167   4.517  13.208  0.2088 -0.1234  0.1539
 5790TIP3    H138861   0.162   4.608  13.179 -0.4205 -0.0856  0.3666
 5790TIP3    H238862   0.153   4.521  13.302  1.3220 -0.3335  0.3301
 5791TIP3   OH238863   5.142   3.089   3.764  0.6857  0.4138  0.0597
 5791TIP3    H138864   5.051   3.061   3.779  0.4932  0.1745 -1.4686
 5791TIP3    H238865   5.192   3.048   3.834 -0.2584 -0.1916  0.3857
 5792TIP3   OH238866   5.777   4.537  16.000 -0.3395 -1.1319 -0.5588
 5792TIP3    H138867   5.833   4.547  16.077  2.5521  0.7845 -2.8320
 5792TIP3    H238868   5.696   4.582  16.024  1.0012  0.5877  0.9381
 5793TIP3   OH238869   5.482   2.879   5.740 -0.6815  0.5227 -0.1219
 5793TIP3    H138870   5.393   2.860   5.769 -0.2832 -0.7489  0.2799
 5793TIP3    H238871   5.539   2.845   5.810  0.1056  1.8486 -0.0929
 5794TIP3   OH238872   6.642   0.780  14.349  0.1759  0.2141 -0.5936
 5794TIP3    H138873   6.546   0.784  14.350  0.2237  2.2564 -0.8442
 5794TIP3    H238874   6.668   0.811  14.436  0.6107 -0.7783 -0.3653
 5795TIP3   OH238875   1.779   1.267   5.601 -0.0311 -1.0619  0.4202
 5795TIP3    H138876   1.697   1.304   5.633 -0.9101 -2.8924  0.3859
 5795TIP3    H238877   1.788   1.184   5.648  0.1755 -2.3710 -1.8247
 5796TIP3   OH238878   5.262   0.912  13.773 -0.0263 -0.8085  0.8369
 5796TIP3    H138879   5.194   0.957  13.823  0.3512  0.4675  0.2039
 5796TIP3    H238880   5.226   0.903  13.685  0.2848 -0.8773  0.7147
 5797TIP3   OH238881   6.130   6.302  12.514 -0.3334  0.1361 -0.6731
 5797TIP3    H138882   6.086   6.370  12.463 -1.9405 -1.6955 -1.7704
 5797TIP3    H238883   6.202   6.273  12.459 -0.2621  0.2452 -0.6356
 5798TIP3   OH238884   6.103   1.733  17.025 -0.3496  1.5056 -0.1887
 5798TIP3    H138885   6.170   1.675  17.060 -0.1048  1.3972 -0.8321
 5798TIP3    H238886   6.025   1.714  17.078 -0.1232  0.9817 -0.0416
 5799TIP3   OH238887   5.561   3.481   0.066 -0.3394  0.0086 -0.2114
 5799TIP3    H138888   5.580   3.409   0.006 -1.6965 -0.4765 -0.0930
 5799TIP3    H238889   5.498   3.535   0.018  0.0298  0.6624  0.0347
 5800TIP3   OH238890   3.498   6.593   1.228  0.1747 -0.0969 -0.4428
 5800TIP3    H138891   3.512   6.503   1.197 -1.4527 -0.5692  0.1287
 5800TIP3    H238892   3.414   6.589   1.273 -0.1237  1.8372 -0.8219
 5801TIP3   OH238893   3.827   0.168   0.169  0.6675  0.2713 -0.3507
 5801TIP3    H138894   3.759   0.139   0.109 -0.7707  0.0866  1.3433
 5801TIP3    H238895   3.847   0.257   0.142 -0.0215  0.2114 -1.0570
 5802TIP3   OH238896   1.193   6.177  14.083  0.2855  0.4741  0.1030
 5802TIP3    H138897   1.266   6.180  14.145  0.7148  0.6386 -0.4049
 5802TIP3    H238898   1.226   6.124  14.010 -1.1583 -2.0371  1.2213
 5803TIP3   OH238899   1.309   1.308  15.732 -0.2184 -0.0859 -0.4910
 5803TIP3    H138900   1.218   1.301  15.706 -0.6721  0.4821  0.8462
 5803TIP3    H238901   1.351   1.358  15.662 -1.6024  2.2566  0.2989
 5804TIP3   OH238902   1.001   3.555   4.252  0.0023 -0.1274 -0.0732
 5804TIP3    H138903   1.023   3.540   4.160 -0.6772  0.1356 -0.2792
 5804TIP3    H238904   0.907   3.534   4.258 -0.5993  2.4668 -0.0195
 5805TIP3   OH238905   1.772   3.131   3.981  0.0345  0.0901  0.2273
 5805TIP3    H138906   1.771   3.219   4.019 -1.5590  0.9910 -1.7544
 5805TIP3    H238907   1.739   3.074   4.050  2.1614  0.8490  1.9188
 5806TIP3   OH238908   6.630   3.913  13.248 -0.4671  0.0436  0.5414
 5806TIP3    H138909   6.595   4.000  13.264  0.4325  0.2555  1.4270
 5806TIP3    H238910   6.651   3.912  13.154 -0.6085  0.7319  0.5042
 5807TIP3   OH238911   0.837   3.677  16.134 -0.0527  0.3964  0.0989
 5807TIP3    H138912   0.884   3.747  16.088  3.1874  0.4098  3.2540
 5807TIP3    H238913   0.901   3.606  16.141 -0.9232 -0.1526  3.2692
 5808TIP3   OH238914   1.334   1.573   0.011  0.3901  0.4139  0.3585
 5808TIP3    H138915   1.371   1.592  -0.075  0.0728 -3.0577 -0.6300
 5808TIP3    H238916   1.406   1.535   0.061 -0.3475 -1.0430  0.3512
 5809TIP3   OH238917   1.167   5.039  14.291 -0.0858 -0.0411 -0.2413
 5809TIP3    H138918   1.099   5.104  14.274 -1.1654 -1.3079 -0.8012
 5809TIP3    H238919   1.209   5.025  14.206 -0.3218 -0.5843 -0.2726
 5810TIP3   OH238920   0.617   0.924  11.880 -0.4980  0.3709 -0.3811
 5810TIP3    H138921   0.659   0.994  11.830  0.1292  0.1258 -0.1977
 5810TIP3    H238922   0.523   0.937  11.864 -0.3335  0.5842 -1.2391
 5811TIP3   OH238923   4.053   6.639  11.661  0.5446  0.3764  0.1379
 5811TIP3    H138924   3.965   6.613  11.632  0.0781  0.5075  1.3903
 5811TIP3    H238925   4.073   6.717  11.610 -1.4490  2.2664  2.1513
 5812TIP3   OH238926   1.254   1.609  12.073 -0.1971 -0.0867 -0.0834
 5812TIP3    H138927   1.198   1.663  12.017  1.4871  0.6074 -1.1296
 5812TIP3    H238928   1.235   1.640  12.162  1.3200  2.8536 -0.7036
 5813TIP3   OH238929   2.252   6.254  13.682  0.2254  0.6469 -0.5085
 5813TIP3    H138930   2.274   6.303  13.602 -1.2705 -0.5560 -1.6931
 5813TIP3    H238931   2.180   6.303  13.721 -1.4721 -0.6965 -1.8519
 5814TIP3   OH238932   3.099   6.295   4.448  0.1923  0.2397 -0.6722
 5814TIP3    H138933   3.095   6.365   4.383 -1.0664  0.9297  0.1111
 5814TIP3    H238934   3.092   6.214   4.398 -0.8499  0.7687 -1.3870
 5815TIP3   OH238935   3.356   2.242   6.039 -0.2390  0.0640  0.7293
 5815TIP3    H138936   3.411   2.172   6.005 -0.8535  0.1995 -0.5723
 5815TIP3    H238937   3.267   2.207   6.037 -0.4712  0.6472  0.6717
 5816TIP3   OH238938   3.540   1.238   2.650 -0.0019 -0.2212  0.0582
 5816TIP3    H138939   3.617   1.277   2.690  0.5521 -1.3221  0.0714
 5816TIP3    H238940   3.566   1.148   2.630 -0.6298 -0.0334 -1.7118
 5817TIP3   OH238941   6.763   5.039  12.316 -0.3056 -0.2739  0.1205
 5817TIP3    H138942   6.805   5.125  12.321 -0.7009 -0.0073 -1.1649
 5817TIP3    H238943   6.716   5.039  12.234 -1.2976 -1.2897  0.6718
 5818TIP3   OH238944   4.602   4.396   2.273 -0.3807  0.1643 -0.2285
 5818TIP3    H138945   4.562   4.375   2.357  1.2224 -0.5107  0.3883
 5818TIP3    H238946   4.539   4.364   2.208 -1.0502 -0.4690  0.7211
 5819TIP3   OH238947   1.074   3.586  11.823 -0.1189 -0.0646  0.2011
 5819TIP3    H138948   1.046   3.528  11.894  1.6060  0.1992  1.1130
 5819TIP3    H238949   1.024   3.667  11.838 -0.5563 -0.3818  0.4857
 5820TIP3   OH238950   5.704   6.773  10.598 -0.1816  0.1367 -0.1525
 5820TIP3    H138951   5.614   6.790  10.624 -0.2097  0.5115 -0.4842
 5820TIP3    H238952   5.735   6.857  10.563 -0.5280 -0.6794 -2.4503
 5821TIP3   OH238953   1.444   1.133   6.458  0.0479  0.5892 -0.3952
 5821TIP3    H138954   1.422   1.152   6.550 -0.5141  1.6194 -0.7301
 5821TIP3    H238955   1.467   1.040   6.458  1.2915  0.8698  1.0233
 5822TIP3   OH238956   4.383   6.232   0.478  0.7528 -0.0462  0.1677
 5822TIP3    H138957   4.413   6.320   0.502  1.7712 -0.0932 -0.9285
 5822TIP3    H238958   4.350   6.242   0.389  0.8281 -0.7823  0.0591
 5823TIP3   OH238959   3.001   5.174   3.023 -0.1087  0.0723 -0.4884
 5823TIP3    H138960   2.943   5.188   2.949 -2.5414 -2.6044  0.7847
 5823TIP3    H238961   3.064   5.108   2.992 -0.1295  0.1278 -0.6485
 5824TIP3   OH238962   0.558   3.227   3.235 -0.1590 -0.4211  0.3067
 5824TIP3    H138963   0.619   3.185   3.295  0.1141  0.1017  0.3959
 5824TIP3    H238964   0.609   3.241   3.155 -0.1605  0.0394  0.3893
 5825TIP3   OH238965   3.793   1.160  11.426 -0.4024  0.3391 -0.1144
 5825TIP3    H138966   3.745   1.106  11.489 -1.0924  1.4296  0.3057
 5825TIP3    H238967   3.778   1.118  11.342 -1.5463  0.2889  0.1098
 5826TIP3   OH238968   4.287   2.117  13.469  0.5005  0.4384 -0.0506
 5826TIP3    H138969   4.215   2.055  13.478  0.2954  0.5212 -1.0453
 5826TIP3    H238970   4.346   2.076  13.405  0.9428  0.7367  0.1618
 5827TIP3   OH238971   4.423   4.275   0.407  0.0835 -0.3226 -0.0922
 5827TIP3    H138972   4.428   4.330   0.329 -1.6806 -0.5039 -0.3571
 5827TIP3    H238973   4.425   4.337   0.480 -1.4650  0.0820 -0.3762
 5828TIP3   OH238974   3.842   2.079   3.265  0.1284  0.4932  0.3279
 5828TIP3    H138975   3.777   2.046   3.202  0.5617  1.3819 -0.5972
 5828TIP3    H238976   3.925   2.041   3.236  0.0838 -0.4022  1.3340
 5829TIP3   OH238977   3.283   0.024  15.209 -0.6937  0.9659 -0.3848
 5829TIP3    H138978   3.191   0.005  15.227 -0.0279 -0.9856  1.2201
 5829TIP3    H238979   3.288   0.032  15.114 -2.7569  2.4499 -0.4026
 5830TIP3   OH238980   4.963   4.026  16.294  0.2052  0.7669 -0.0667
 5830TIP3    H138981   5.001   3.991  16.213 -2.8202  0.3718 -1.3827
 5830TIP3    H238982   5.017   4.103  16.314  1.3920  0.5114 -2.1158
 5831TIP3   OH238983   1.725   0.087   3.517 -0.2255  0.1421 -0.3512
 5831TIP3    H138984   1.819   0.088   3.534 -0.1748 -0.3087 -0.5753
 5831TIP3    H238985   1.708   0.166   3.465  0.0034  0.3087 -0.1692
 5832TIP3   OH238986   1.415   2.592  11.926  0.5567  0.0699 -0.3125
 5832TIP3    H138987   1.455   2.529  11.986  0.9628 -0.8938 -1.5562
 5832TIP3    H238988   1.365   2.537  11.865  1.2012  0.9268 -1.6276
 5833TIP3   OH238989   3.012   5.632   1.399  0.4968  0.2531  0.6529
 5833TIP3    H138990   2.933   5.648   1.451  1.2392  0.0552  1.8441
 5833TIP3    H238991   2.979   5.610   1.312 -0.7551  0.4876  1.0600
 5834TIP3   OH238992   1.777   3.413   2.824 -0.1842 -0.3698 -0.0583
 5834TIP3    H138993   1.793   3.508   2.826  0.2671 -0.4395 -0.2709
 5834TIP3    H238994   1.853   3.377   2.777 -1.2109 -0.6582 -1.5184
 5835TIP3   OH238995   5.506   1.033  12.566 -0.7139 -0.0952  0.2809
 5835TIP3    H138996   5.581   1.001  12.516  0.0046  1.7956  0.0916
 5835TIP3    H238997   5.448   0.957  12.575  0.5050 -1.1828 -0.8999
 5836TIP3   OH238998   0.172   3.070  15.479  0.0249  0.3460 -0.0318
 5836TIP3    H138999   0.159   3.106  15.391  0.2078  0.6997  0.0857
 5836TIP3    H239000   0.084   3.064  15.515 -0.1012 -0.3245 -0.4438
 5837TIP3   OH239001   0.001   0.021  15.948 -0.4257  0.4832 -0.5687
 5837TIP3    H139002  -0.088   0.023  15.985 -0.4475  1.6434 -0.6516
 5837TIP3    H239003   0.032   0.111  15.956  0.5385  0.2018 -1.0543
 5838TIP3   OH239004   1.076   2.124  11.217  0.2666  0.0175  0.1803
 5838TIP3    H139005   1.138   2.075  11.271  0.6749 -0.8639 -1.0625
 5838TIP3    H239006   1.040   2.059  11.157  0.5091  1.1545 -1.2270
 5839TIP3   OH239007   0.085   5.850   6.747  0.2075 -0.4125 -0.1908
 5839TIP3    H139008   0.118   5.918   6.805  0.1645 -1.1869  0.7444
 5839TIP3    H239009   0.149   5.846   6.676  0.4791  0.2478  0.0136
 5840TIP3   OH239010   0.782   0.712  15.658 -0.5108  0.5603 -0.6678
 5840TIP3    H139011   0.824   0.634  15.621  1.4266  1.1573  0.2235
 5840TIP3    H239012   0.754   0.762  15.581 -1.8761 -1.0291 -1.2527
 5841TIP3   OH239013   6.252   1.556  13.753 -0.1124 -0.1498 -0.2354
 5841TIP3    H139014   6.213   1.583  13.670 -0.1116  1.5661  0.3138
 5841TIP3    H239015   6.341   1.592  13.750 -0.1090 -0.1048  0.5138
 5842TIP3   OH239016   2.194   4.491  12.424 -0.7850  0.8903 -0.1220
 5842TIP3    H139017   2.179   4.474  12.517 -1.9108  0.1853 -0.4298
 5842TIP3    H239018   2.116   4.539  12.395  0.7365  3.4524 -0.1018
 5843TIP3   OH239019   4.494   5.829   2.631 -0.2719  0.5770  0.1001
 5843TIP3    H139020   4.427   5.765   2.657  1.6301 -1.3502  0.3525
 5843TIP3    H239021   4.493   5.895   2.701  0.0602 -0.9530  1.5726
 5844TIP3   OH239022   2.504   4.515   5.196  0.0036  0.0230  0.1828
 5844TIP3    H139023   2.526   4.604   5.170 -0.2822  0.2907  0.8568
 5844TIP3    H239024   2.550   4.502   5.279 -0.3462 -0.2916  0.3271
 5845TIP3   OH239025   3.927   6.304   4.956 -0.6060 -0.1481  0.9275
 5845TIP3    H139026   3.884   6.259   5.028  2.5233 -1.7462  1.8862
 5845TIP3    H239027   3.968   6.234   4.905  1.3430  1.3367  0.3971
 5846TIP3   OH239028   6.537   0.609   0.607 -0.0796 -0.4920  0.6236
 5846TIP3    H139029   6.498   0.611   0.694  0.0692  1.5066  0.6660
 5846TIP3    H239030   6.573   0.521   0.598  0.4568 -0.5065  2.8280
 5847TIP3   OH239031   0.662   6.772  13.197  0.4633  0.1314  0.4488
 5847TIP3    H139032   0.612   6.744  13.120 -0.2549 -1.5520  1.4763
 5847TIP3    H239033   0.595   6.806  13.257  1.0390  1.6137  0.2657
 5848TIP3   OH239034   0.689   6.516  13.553 -0.6247 -0.1344  0.2274
 5848TIP3    H139035   0.770   6.532  13.602 -0.2954  1.6492 -0.8706
 5848TIP3    H239036   0.620   6.549  13.611 -0.6681 -2.1710  1.4122
 5849TIP3   OH239037   4.703   3.304  13.632 -0.4765 -0.2955 -0.6549
 5849TIP3    H139038   4.652   3.379  13.663 -1.0919  0.1760 -2.7255
 5849TIP3    H239039   4.728   3.257  13.712 -1.7745  1.0080  0.5475
 5850TIP3   OH239040   5.889   6.641   0.651  0.4014  0.0513 -0.0056
 5850TIP3    H139041   5.867   6.561   0.604  0.3731 -0.8487  1.5076
 5850TIP3    H239042   5.829   6.707   0.615  0.6993 -0.5038 -1.5419
 5851TIP3   OH239043   0.015   1.988  13.233  0.5870 -0.4839  0.3413
 5851TIP3    H139044   0.089   1.968  13.176 -0.2742  0.2089 -1.0433
 5851TIP3    H239045  -0.046   1.916  13.220 -0.1892  0.3229 -0.6543
 5852TIP3   OH239046   2.028   5.509   3.512  0.0256  0.6980  0.3021
 5852TIP3    H139047   2.082   5.449   3.461 -0.0217  0.7135  0.2338
 5852TIP3    H239048   1.952   5.526   3.456  1.1038  2.6112 -0.6215
 5853TIP3   OH239049   1.040   6.694   3.908  0.4901  0.3485  0.8495
 5853TIP3    H139050   1.116   6.700   3.966  1.1504 -0.2737  0.0584
 5853TIP3    H239051   1.018   6.600   3.907  1.0299  0.2355 -0.5995
 5854TIP3   OH239052   0.713   4.168  16.382  0.6231 -0.2599 -0.2215
 5854TIP3    H139053   0.783   4.107  16.361 -0.0507 -0.4158 -2.1074
 5854TIP3    H239054   0.643   4.146  16.321 -0.2302  1.3414  0.1563
 5855TIP3   OH239055   6.238   2.518  10.742  0.6702 -0.6791 -0.1111
 5855TIP3    H139056   6.323   2.504  10.702  0.4363  2.2991 -1.8025
 5855TIP3    H239057   6.175   2.480  10.680  0.5545  0.2771 -0.5817
 5856TIP3   OH239058   4.467   1.052   4.987  0.5340 -0.1371  0.2313
 5856TIP3    H139059   4.555   1.057   5.024  1.1798 -0.9650 -1.1471
 5856TIP3    H239060   4.456   0.960   4.964 -0.5318  0.0392 -0.0059
 5857TIP3   OH239061   0.406   0.827  15.131 -0.1090  0.4541  0.0223
 5857TIP3    H139062   0.337   0.892  15.123 -0.0141  0.4358 -0.9782
 5857TIP3    H239063   0.377   0.754  15.077 -2.1650 -2.0613  4.2335
 5858TIP3   OH239064   3.228   2.315  15.646  0.1229  0.0809 -0.8855
 5858TIP3    H139065   3.297   2.378  15.622  0.7215 -0.5016 -0.7218
 5858TIP3    H239066   3.162   2.367  15.691  0.3439  0.6914 -1.2541
 5859TIP3   OH239067   3.752   1.806   2.608  0.1445  0.2197  0.0171
 5859TIP3    H139068   3.715   1.871   2.668  0.6978 -0.1426  0.7555
 5859TIP3    H239069   3.676   1.764   2.569 -0.2220  0.5519  0.3585
 5860TIP3   OH239070   5.338   2.830  13.522 -0.2918  0.0691  0.4735
 5860TIP3    H139071   5.362   2.742  13.552  1.7908 -0.3979 -2.3479
 5860TIP3    H239072   5.399   2.888  13.567 -0.1832 -0.1670  0.6311
 5861TIP3   OH239073   2.938   0.639   4.759 -0.4234  0.0158  0.2643
 5861TIP3    H139074   2.989   0.571   4.803  0.4635  0.9825  0.7474
 5861TIP3    H239075   2.860   0.649   4.814  0.1263  0.3926  0.9845
 5862TIP3   OH239076   5.077   0.726  14.125 -0.4142  0.1177 -0.1931
 5862TIP3    H139077   4.988   0.726  14.160 -0.4212 -0.7290 -0.2080
 5862TIP3    H239078   5.120   0.652  14.167  0.0314  0.0150 -0.8137
 5863TIP3   OH239079   0.129   1.379   4.988  0.5891  0.2753 -0.1566
 5863TIP3    H139080   0.112   1.377   5.082  0.8414  1.4970 -0.0782
 5863TIP3    H239081   0.128   1.472   4.965  1.0351  0.0173 -1.2709
 5864TIP3   OH239082   4.102   6.359  12.017  0.1649  0.1660  0.5900
 5864TIP3    H139083   4.119   6.372  12.110 -0.2303  1.1863  0.5199
 5864TIP3    H239084   4.137   6.438  11.975  2.0082 -1.0997 -0.3187
 5865TIP3   OH239085   5.565   4.863  15.066 -0.5217 -0.0593  0.6009
 5865TIP3    H139086   5.612   4.918  15.128  0.8694 -0.7402  0.1620
 5865TIP3    H239087   5.572   4.774  15.101  0.1408 -0.4300 -0.4413
 5866TIP3   OH239088   2.066   2.394   5.241  0.6708  0.2297 -0.5314
 5866TIP3    H139089   2.121   2.445   5.301 -1.3272 -0.8531  2.3895
 5866TIP3    H239090   2.099   2.305   5.249 -2.0910 -0.6858  2.2449
 5867TIP3   OH239091   1.500   6.135  12.252  0.1532  0.1397  0.1680
 5867TIP3    H139092   1.515   6.203  12.186  0.9889  0.0910  0.3004
 5867TIP3    H239093   1.533   6.054  12.211 -0.1673 -0.0540  0.2900
 5868TIP3   OH239094   3.060   0.812   2.371 -0.2279  0.1079 -0.4887
 5868TIP3    H139095   3.023   0.839   2.455  2.1216  1.5429  0.1146
 5868TIP3    H239096   3.155   0.818   2.383  0.2289 -2.9016 -2.1998
 5869TIP3   OH239097   0.535   3.206  15.133 -0.2166 -0.0164  0.3857
 5869TIP3    H139098   0.627   3.181  15.138  0.1931  1.2056 -0.8122
 5869TIP3    H239099   0.534   3.283  15.077 -2.1381 -0.9717 -0.9729
 5870TIP3   OH239100   4.034   5.006  15.007  0.0364 -0.1196 -0.0375
 5870TIP3    H139101   3.992   4.925  14.980  1.0710 -0.4436 -0.7201
 5870TIP3    H239102   4.034   5.002  15.103  0.5341 -1.1712 -0.0777
 5871TIP3   OH239103   2.959   5.277   3.392  0.2713  0.1822 -0.4653
 5871TIP3    H139104   3.044   5.306   3.359 -0.6473  4.3649  0.5240
 5871TIP3    H239105   2.973   5.258   3.485  0.0447  1.4050 -0.1716
 5872TIP3   OH239106   3.043   6.084   4.292  0.0124 -0.3779 -0.1716
 5872TIP3    H139107   2.957   6.093   4.252  0.1547 -1.3017 -0.7076
 5872TIP3    H239108   3.065   5.991   4.281  1.4590  0.0263 -0.8401
 5873TIP3   OH239109   4.085   4.400  12.288  0.3817 -0.2247  0.2014
 5873TIP3    H139110   4.122   4.467  12.230  0.6589 -1.3472 -0.9568
 5873TIP3    H239111   4.087   4.439  12.375  1.4801  0.8851 -0.3071
 5874TIP3   OH239112   2.969   1.268   4.848  0.2465  0.5906 -0.1153
 5874TIP3    H139113   2.931   1.346   4.808 -3.2207 -0.7305  0.4763
 5874TIP3    H239114   2.964   1.201   4.779  1.3846  0.3402  0.0325
 5875TIP3   OH239115   5.468   1.575   5.283 -0.6084  0.2671  0.1993
 5875TIP3    H139116   5.466   1.589   5.378 -4.9878 -0.3284  0.3200
 5875TIP3    H239117   5.430   1.488   5.270 -0.2020  0.3900 -2.0823
 5876TIP3   OH239118   3.624   6.690  15.667 -0.3554 -0.1263 -0.1440
 5876TIP3    H139119   3.646   6.715  15.756  0.5507 -0.1851 -0.3424
 5876TIP3    H239120   3.630   6.772  15.617 -0.5845 -0.1461 -0.2057
 5877TIP3   OH239121   3.881   2.232  11.861  0.0438 -0.4238  0.4201
 5877TIP3    H139122   3.886   2.298  11.792  2.1963 -0.7769  0.2049
 5877TIP3    H239123   3.825   2.163  11.824 -0.5115  0.3244 -0.1474
 5878TIP3   OH239124   6.029   0.711  14.728  0.5454  0.0428  0.1670
 5878TIP3    H139125   5.980   0.727  14.647  0.6716 -0.4760 -0.0175
 5878TIP3    H239126   5.963   0.705  14.796  0.3785 -0.2672 -0.0200
 5879TIP3   OH239127   4.799   6.231  16.203  0.2844 -0.5104 -0.0707
 5879TIP3    H139128   4.777   6.138  16.208  0.9285 -0.6975 -0.6076
 5879TIP3    H239129   4.859   6.237  16.129 -0.6022  0.5060 -0.7092
 5880TIP3   OH239130   1.176   1.138   1.359 -0.3306  0.8072 -0.2454
 5880TIP3    H139131   1.086   1.144   1.326 -0.5465  1.2523  0.4035
 5880TIP3    H239132   1.187   1.046   1.381 -0.8874  0.8829  0.3732
 5881TIP3   OH239133   2.276   3.892  14.208 -0.5638  0.9677 -0.1236
 5881TIP3    H139134   2.313   3.816  14.253 -0.0996  1.3426  0.1337
 5881TIP3    H239135   2.337   3.963  14.228 -1.7513  1.7313  0.8051
 5882TIP3   OH239136   3.295   4.026   2.350  0.6361  0.3458 -0.3852
 5882TIP3    H139137   3.204   3.999   2.335  0.6195  0.9055 -1.3170
 5882TIP3    H239138   3.313   3.999   2.440 -0.1918 -0.4995 -0.4610
 5883TIP3   OH239139   0.126   4.997   3.770 -0.9416 -0.3112  0.0317
 5883TIP3    H139140   0.141   5.055   3.695 -1.4894  0.8126  0.7710
 5883TIP3    H239141   0.167   4.914   3.746 -0.0704  0.4198 -1.0132
 5884TIP3   OH239142   1.973   6.411  14.794 -0.5158 -1.0260 -0.5148
 5884TIP3    H139143   1.941   6.501  14.783 -2.4146 -1.7205 -0.9292
 5884TIP3    H239144   1.944   6.366  14.715  0.2501 -2.0490 -0.2087
 5885TIP3   OH239145   1.668   6.445   4.088  0.4697  0.3076 -0.4115
 5885TIP3    H139146   1.739   6.468   4.028  0.9865 -1.4005 -0.4686
 5885TIP3    H239147   1.699   6.475   4.174  0.6865  0.7308 -0.6331
 5886TIP3   OH239148   5.147   6.686  10.498 -0.4707 -0.1784  0.3075
 5886TIP3    H139149   5.095   6.708  10.421  2.6264  2.3094 -1.2273
 5886TIP3    H239150   5.109   6.739  10.568 -0.7867  0.6948 -0.5017
 5887TIP3   OH239151   4.925   6.153   3.570 -0.0059 -0.0166 -0.1356
 5887TIP3    H139152   4.900   6.062   3.585 -1.0437  0.1922 -0.5697
 5887TIP3    H239153   4.845   6.203   3.587  1.2369  1.0723  2.8078
 5888TIP3   OH239154   3.857   1.048   1.051 -0.6055  0.4242 -0.1515
 5888TIP3    H139155   3.905   0.983   1.102  0.0673  0.2366 -1.0219
 5888TIP3    H239156   3.772   1.053   1.094  0.4925  1.4533  1.9843
 5889TIP3   OH239157   6.039   3.842  14.456  0.1554 -0.5527  0.5782
 5889TIP3    H139158   6.012   3.779  14.523 -1.3464 -1.2774 -0.6727
 5889TIP3    H239159   6.118   3.804  14.418 -1.7574 -2.7218 -1.4481
 5890TIP3   OH239160   3.370   3.147  13.358  0.9282 -0.0932 -0.1272
 5890TIP3    H139161   3.371   3.242  13.359  2.7582 -0.1013  0.9342
 5890TIP3    H239162   3.367   3.122  13.450  0.4915 -1.0732 -0.3933
 5891TIP3   OH239163   3.770   1.202   4.260 -0.2931  0.2578 -0.1086
 5891TIP3    H139164   3.793   1.240   4.175 -1.0084 -0.1033 -0.4672
 5891TIP3    H239165   3.707   1.133   4.240  0.7317 -0.8874  0.5804
 5892TIP3   OH239166   6.342   1.011  13.029  0.6197 -0.2242  0.1896
 5892TIP3    H139167   6.291   1.059  13.094  0.9262  1.0511 -0.5080
 5892TIP3    H239168   6.289   1.016  12.949  0.4630 -1.3981  0.2078
 5893TIP3   OH239169   4.647   1.926  16.553  0.0116  0.8714 -0.0664
 5893TIP3    H139170   4.740   1.914  16.572 -0.4214  0.3788  1.8352
 5893TIP3    H239171   4.638   2.019  16.532  0.9778  0.8524 -0.5808
 5894TIP3   OH239172   2.945   0.217   4.212 -0.1059 -0.3162 -0.1714
 5894TIP3    H139173   2.902   0.294   4.249 -0.0548 -0.5825  0.4439
 5894TIP3    H239174   3.012   0.194   4.277 -0.3537 -1.0861 -0.1899
 5895TIP3   OH239175   6.190   1.325   4.127 -0.0764 -0.7374  0.3391
 5895TIP3    H139176   6.267   1.312   4.073  1.0560 -0.5888  1.8994
 5895TIP3    H239177   6.149   1.239   4.133  0.3562 -0.9565  0.1045
 5896TIP3   OH239178   0.436   5.276  16.286  0.0276 -0.2432 -0.4282
 5896TIP3    H139179   0.468   5.186  16.281  1.2122  0.1645 -0.1958
 5896TIP3    H239180   0.513   5.331  16.273 -1.0394  0.7750 -2.9164
 5897TIP3   OH239181   3.211   4.294   3.210 -0.1976 -0.5596 -0.5614
 5897TIP3    H139182   3.128   4.341   3.217 -0.3523 -1.1706  2.1943
 5897TIP3    H239183   3.273   4.349   3.257  0.4984 -1.1790 -0.7540
 5898TIP3   OH239184   2.494   4.331   5.752  0.2365  0.3086  0.0530
 5898TIP3    H139185   2.399   4.325   5.763  0.3301 -1.4123  0.0599
 5898TIP3    H239186   2.523   4.388   5.824 -0.7339  0.5189  0.2811
 5899TIP3   OH239187   6.436   6.631   0.399  0.2126  0.0798  0.6121
 5899TIP3    H139188   6.398   6.619   0.486 -1.3840  1.1429  0.0895
 5899TIP3    H239189   6.515   6.682   0.415 -2.0479  3.6472  1.1562
 5900TIP3   OH239190   3.395   4.783  12.281  0.3914  0.5189 -0.0583
 5900TIP3    H139191   3.474   4.751  12.324  0.6185  1.5953  0.3502
 5900TIP3    H239192   3.324   4.727  12.314  0.8834 -0.0336  0.0615
 5901TIP3   OH239193   6.782   0.175   2.543  0.3781 -0.0932  0.0376
 5901TIP3    H139194   6.849   0.180   2.475  0.6917  0.2641  0.3718
 5901TIP3    H239195   6.802   0.094   2.590  0.5528  0.0011  0.1217
 5902TIP3   OH239196   5.694   4.592   6.131  0.3962  0.1130 -0.3214
 5902TIP3    H139197   5.768   4.531   6.131 -0.0872 -0.4774  1.3915
 5902TIP3    H239198   5.726   4.669   6.177 -0.0509 -0.1293  0.3908
 5903TIP3   OH239199   1.045   2.342   5.463  0.3107 -0.0496 -0.4550
 5903TIP3    H139200   1.025   2.312   5.374 -0.7071 -0.0901 -0.2215
 5903TIP3    H239201   1.011   2.272   5.519 -0.1515  0.5571  0.0145
 5904TIP3   OH239202   2.233   4.634   5.763  0.3401  0.1239 -0.2853
 5904TIP3    H139203   2.247   4.572   5.692 -1.2326 -0.7433  0.1459
 5904TIP3    H239204   2.202   4.714   5.719 -0.7219 -0.4413 -0.5800
 5905TIP3   OH239205   1.127   0.615   5.864 -0.3352  0.0071 -0.7199
 5905TIP3    H139206   1.165   0.558   5.931 -1.5049 -0.4245 -0.4104
 5905TIP3    H239207   1.127   0.702   5.903  1.3753  0.2243 -1.1576
 5906TIP3   OH239208   2.734   6.581  13.167  0.5906 -0.1898 -0.5484
 5906TIP3    H139209   2.751   6.629  13.086 -0.4749  1.0056 -0.0721
 5906TIP3    H239210   2.803   6.514  13.169  1.5426  0.7203 -1.6800
 5907TIP3   OH239211   0.397   4.244  16.693 -0.7623  0.5043  0.0761
 5907TIP3    H139212   0.425   4.223  16.782  0.6331 -0.5413 -0.5981
 5907TIP3    H239213   0.442   4.180  16.638 -3.0143 -0.0301 -1.2275
 5908TIP3   OH239214   3.828   5.115  12.080 -0.5854  0.7324 -0.4132
 5908TIP3    H139215   3.742   5.107  12.039 -0.2520 -0.0947 -0.9770
 5908TIP3    H239216   3.810   5.110  12.174 -1.3337  2.4145 -0.4535
 5909TIP3   OH239217   4.064   2.137  16.687 -0.4953 -0.3087 -0.2909
 5909TIP3    H139218   4.106   2.126  16.773 -0.1422 -0.6892 -0.5066
 5909TIP3    H239219   4.028   2.225  16.689  0.6496  0.1695 -0.2409
 5910TIP3   OH239220   2.834   5.466  14.188  0.1414 -0.0986  0.1542
 5910TIP3    H139221   2.875   5.521  14.254 -0.3381  0.0330  0.3475
 5910TIP3    H239222   2.843   5.377  14.221 -1.2073  0.0716  1.0152
 5911TIP3   OH239223   4.986   1.991  14.280  0.4631  0.4475 -0.3849
 5911TIP3    H139224   4.989   1.954  14.368  2.3802 -0.4887 -0.8085
 5911TIP3    H239225   5.073   1.972  14.243 -0.3293  0.7459 -2.4986
 5912TIP3   OH239226   4.364   0.834   1.128  0.3675 -0.1413  0.1840
 5912TIP3    H139227   4.295   0.838   1.061  1.0226  0.1532 -0.4841
 5912TIP3    H239228   4.445   0.840   1.078  0.9144 -1.6865  0.8756
 5913TIP3   OH239229   0.919   6.180  14.020 -0.7845 -0.6072  0.1105
 5913TIP3    H139230   0.874   6.243  14.076  0.2166 -0.4292  0.7267
 5913TIP3    H239231   1.002   6.163  14.064 -0.3267 -1.0871 -0.9066
 5914TIP3   OH239232   1.668   0.517   4.342  0.4197 -0.3627  0.1818
 5914TIP3    H139233   1.755   0.542   4.311  0.1692  1.0632  0.5892
 5914TIP3    H239234   1.658   0.564   4.424 -0.2197 -1.5661  0.8058
 5915TIP3   OH239235   4.958   0.480   3.749  0.4935  0.1041  0.2684
 5915TIP3    H139236   5.013   0.489   3.671 -1.4479 -1.8823 -1.4335
 5915TIP3    H239237   5.004   0.417   3.804  0.5630 -0.5818 -0.5555
 5916TIP3   OH239238   5.425   5.467  12.014  0.0814 -0.0189  0.5361
 5916TIP3    H139239   5.500   5.514  12.050  1.1416 -1.5311  0.3291
 5916TIP3    H239240   5.443   5.375  12.033 -2.0808 -0.3515  1.1615
 5917TIP3   OH239241   6.701   5.950  13.168 -0.1685 -0.9551  0.4584
 5917TIP3    H139242   6.640   5.947  13.095 -0.4968  2.1998  0.5373
 5917TIP3    H239243   6.646   5.965  13.245  0.4636 -1.0608  0.9377
 5918TIP3   OH239244   0.453   2.104  15.187 -0.2949 -0.1326 -0.1813
 5918TIP3    H139245   0.361   2.129  15.192  0.1007  1.3805 -0.1370
 5918TIP3    H239246   0.493   2.141  15.266  1.0328  2.3103 -1.9377
 5919TIP3   OH239247   5.430   1.567  12.261  0.3623 -0.8811  0.6391
 5919TIP3    H139248   5.461   1.477  12.248 -1.5982 -1.4656 -0.2448
 5919TIP3    H239249   5.336   1.557  12.275  0.1744  1.0257  0.8049
 5920TIP3   OH239250   6.614   0.199   4.941  0.6003  0.2479  0.2145
 5920TIP3    H139251   6.654   0.285   4.927  0.9283  0.3140  1.4291
 5920TIP3    H239252   6.648   0.171   5.026  0.5603 -1.1282 -0.2117
 5921TIP3   OH239253   1.234   2.637   0.150  0.4289 -0.2946  0.8950
 5921TIP3    H139254   1.241   2.615   0.243 -0.0157 -0.5107  0.8777
 5921TIP3    H239255   1.286   2.717   0.141 -1.9126  1.4045  1.9331
 5922TIP3   OH239256   2.443   4.021   4.058  0.4271  0.3030 -0.4012
 5922TIP3    H139257   2.462   4.042   3.966 -0.4831  1.6837 -0.2917
 5922TIP3    H239258   2.529   4.022   4.101  0.6509  1.6362 -0.8529
 5923TIP3   OH239259   4.474   1.833   4.964 -0.1974  0.2502 -0.2359
 5923TIP3    H139260   4.519   1.752   4.940 -0.0190  0.2549  0.0885
 5923TIP3    H239261   4.452   1.823   5.056 -1.2863  0.0487 -0.5093
 5924TIP3   OH239262   2.936   0.472  13.791  0.6146  0.4442 -0.2679
 5924TIP3    H139263   3.004   0.520  13.743  0.0097  0.8164 -0.7445
 5924TIP3    H239264   2.958   0.380  13.777  0.8576  0.5601 -0.6495
 5925TIP3   OH239265   5.975   4.842   1.674 -0.3525 -0.4692 -0.8435
 5925TIP3    H139266   5.904   4.877   1.621 -1.0459 -1.1047 -0.3392
 5925TIP3    H239267   5.943   4.757   1.705  0.3772 -0.4814 -0.0950
 5926TIP3   OH239268   6.388   2.839   5.383  0.3166 -0.1488  0.5682
 5926TIP3    H139269   6.407   2.748   5.407  0.6047 -0.4199 -0.6308
 5926TIP3    H239270   6.473   2.873   5.352 -0.4395 -0.4511 -1.9926
 5927TIP3   OH239271   3.083   4.547  16.930  0.2886  0.2139 -0.0466
 5927TIP3    H139272   3.100   4.592  16.847 -1.2126  0.6441 -0.1316
 5927TIP3    H239273   3.028   4.473  16.906 -0.4035  0.5139  0.5881
 5928TIP3   OH239274   5.407   2.165  12.757 -0.6569 -0.1624 -0.1333
 5928TIP3    H139275   5.471   2.141  12.824 -1.3866  0.0232  0.6365
 5928TIP3    H239276   5.332   2.108  12.773 -1.1345  0.4015 -0.3190
 5929TIP3   OH239277   2.534   6.466  13.577  0.4896  0.1151  0.3885
 5929TIP3    H139278   2.600   6.477  13.509 -1.3218  1.3596 -1.2065
 5929TIP3    H239279   2.529   6.371  13.591  1.8795 -0.0449 -0.1806
 5930TIP3   OH239280   2.981   4.248  13.426 -0.0936  0.3170  0.0690
 5930TIP3    H139281   2.932   4.309  13.481  1.3782  2.0528 -0.5202
 5930TIP3    H239282   2.973   4.283  13.337  2.5530  0.8848  0.0222
 5931TIP3   OH239283   0.414   1.444   5.549 -0.7815  0.6145 -0.1175
 5931TIP3    H139284   0.366   1.504   5.492 -0.6817 -0.7296 -1.6541
 5931TIP3    H239285   0.504   1.475   5.547 -0.8048  0.6504 -0.5729
 5932TIP3   OH239286   2.980   0.624  12.404  0.1413 -0.2920 -0.4022
 5932TIP3    H139287   2.919   0.654  12.337 -0.4906 -0.8253 -0.0718
 5932TIP3    H239288   2.943   0.540  12.434  1.4203 -0.9906 -0.7303
 5933TIP3   OH239289   5.745   2.452   1.363  0.0706  0.4391  0.3960
 5933TIP3    H139290   5.724   2.477   1.273 -0.5929 -1.4990 -0.0179
 5933TIP3    H239291   5.840   2.437   1.362 -0.2347 -1.6388 -0.5428
 5934TIP3   OH239292   5.444   6.469   5.999 -0.2405  0.6430  0.7372
 5934TIP3    H139293   5.387   6.466   6.076 -1.0043  0.1297  0.1533
 5934TIP3    H239294   5.489   6.385   5.999 -1.1296  0.1551 -0.0408
 5935TIP3   OH239295   4.301   3.416  11.565 -0.0193  0.2111  0.6757
 5935TIP3    H139296   4.380   3.452  11.525 -0.8706  0.2696 -0.9761
 5935TIP3    H239297   4.231   3.434  11.502 -1.3726  0.2531  2.1628
 5936TIP3   OH239298   3.673   1.987   0.162 -0.2255  0.1465 -0.0914
 5936TIP3    H139299   3.706   1.930   0.093 -0.6836  0.8901 -0.9501
 5936TIP3    H239300   3.582   1.959   0.175 -0.8500  1.4872 -1.4170
 5937TIP3   OH239301   3.036   0.429  13.072 -0.0562 -0.4321  0.4385
 5937TIP3    H139302   3.033   0.345  13.026 -0.2898  0.1404 -0.5979
 5937TIP3    H239303   2.944   0.452  13.086 -0.0406  0.5719 -0.9949
 5938TIP3   OH239304   6.272   1.457  14.042 -0.6862 -0.0502 -0.3369
 5938TIP3    H139305   6.359   1.485  14.071 -0.8330  1.1093 -0.9928
 5938TIP3    H239306   6.228   1.538  14.015 -1.8066 -0.6842 -0.4550
 5939TIP3   OH239307   5.567   1.844   0.281  0.2682 -0.6252 -0.4066
 5939TIP3    H139308   5.533   1.754   0.275  0.4832 -0.6612 -1.1317
 5939TIP3    H239309   5.519   1.882   0.354  0.9822 -1.6828  0.6348
 5940TIP3   OH239310   6.303   2.058  14.266  0.2005  0.1580  0.1487
 5940TIP3    H139311   6.315   2.144  14.305  0.7393 -0.2377  0.8911
 5940TIP3    H239312   6.305   2.072  14.172  1.1971  0.8320  0.2714
 5941TIP3   OH239313   3.006   5.004   4.120  0.0848  0.2101  0.4211
 5941TIP3    H139314   3.078   5.052   4.160 -0.3461  0.5233  0.8276
 5941TIP3    H239315   2.969   5.067   4.057  0.1239  0.0701  0.2566
 5942TIP3   OH239316   0.757   2.656   5.014 -0.2888  0.1634 -0.2621
 5942TIP3    H139317   0.824   2.588   5.002 -0.5515 -0.1852  0.2320
 5942TIP3    H239318   0.697   2.643   4.941 -1.1322 -1.0731  0.6300
 5943TIP3   OH239319   4.040   6.022   3.563 -0.3547  0.0852  0.4978
 5943TIP3    H139320   4.008   6.007   3.652  1.7253 -2.2084  0.9144
 5943TIP3    H239321   4.133   5.999   3.567  0.7726  3.8738 -1.3116
 5944TIP3   OH239322   2.362   6.006  11.505 -0.2357 -0.1354  0.1842
 5944TIP3    H139323   2.452   5.984  11.482 -0.5837 -0.0378 -1.3189
 5944TIP3    H239324   2.347   6.091  11.464 -0.0946  1.2414  2.8478
 5945TIP3   OH239325   3.455   4.313   0.449  0.6339 -0.3347 -0.3353
 5945TIP3    H139326   3.409   4.381   0.400  0.0992 -0.8891 -0.5975
 5945TIP3    H239327   3.492   4.359   0.525 -2.6133 -0.3742  1.3455
 5946TIP3   OH239328   2.614   1.382  16.180 -0.3399 -0.8071  0.3195
 5946TIP3    H139329   2.668   1.304  16.188  0.4331 -0.5136 -1.6143
 5946TIP3    H239330   2.524   1.349  16.168 -0.4400 -1.3166  2.3661
 5947TIP3   OH239331   4.324   4.123  15.249  0.2868  0.2966  0.5714
 5947TIP3    H139332   4.383   4.198  15.245 -0.6968  1.1558  1.8001
 5947TIP3    H239333   4.327   4.094  15.340 -2.3870  1.3751  1.0676
 5948TIP3   OH239334   5.055   3.318   5.231 -0.3368 -0.6302  0.5932
 5948TIP3    H139335   5.033   3.225   5.231  2.0537 -1.2316  0.8179
 5948TIP3    H239336   4.996   3.357   5.296 -1.1620 -2.0121  0.6943
 5949TIP3   OH239337   5.350   4.784   2.150 -0.0022  0.3800  0.1481
 5949TIP3    H139338   5.443   4.803   2.143  0.7670 -2.0952  2.5014
 5949TIP3    H239339   5.322   4.827   2.231 -0.4929 -0.2764  0.3385
 5950TIP3   OH239340   6.814   5.652  16.151 -0.2416 -0.2243  0.2105
 5950TIP3    H139341   6.761   5.661  16.230  1.5471  0.0269  1.4085
 5950TIP3    H239342   6.881   5.588  16.173 -0.2693 -0.8534 -1.4171
 5951TIP3   OH239343   4.226   4.313   2.719  0.6713 -0.6710  0.0402
 5951TIP3    H139344   4.225   4.334   2.813  0.0428  0.7485 -0.2683
 5951TIP3    H239345   4.308   4.352   2.687  1.1743 -1.6671  0.1060
 5952TIP3   OH239346   2.002   4.334   6.678  0.1117  0.1228 -0.2163
 5952TIP3    H139347   2.043   4.411   6.719  2.0112 -0.7362 -0.4682
 5952TIP3    H239348   1.994   4.357   6.586  1.2068 -0.1825 -0.3953
 5953TIP3   OH239349   3.088   4.574   3.117 -0.0262  0.0333  0.0647
 5953TIP3    H139350   3.164   4.564   3.060  0.2124  2.4257 -0.1194
 5953TIP3    H239351   3.013   4.568   3.058  0.2243  2.5626 -0.5911
 5954TIP3   OH239352   1.702   0.785  13.569  0.2689  0.2622  0.1505
 5954TIP3    H139353   1.725   0.767  13.660 -0.2085  1.6205  0.5582
 5954TIP3    H239354   1.607   0.793  13.569  0.3651  1.5850 -0.1964
 5955TIP3   OH239355   4.830   1.798   1.074 -0.2117  0.4677  0.3696
 5955TIP3    H139356   4.891   1.785   1.146  0.2852  3.8169  0.6442
 5955TIP3    H239357   4.744   1.779   1.112  0.4017 -1.7763  0.6815
 5956TIP3   OH239358   2.438   4.146  15.228  0.1698  0.1778 -0.1008
 5956TIP3    H139359   2.466   4.091  15.154 -0.0860  0.8612 -0.7106
 5956TIP3    H239360   2.488   4.227  15.218 -1.8853  1.3598 -1.1071
 5957TIP3   OH239361   3.586   0.436   3.834 -0.1883 -0.3247  0.4532
 5957TIP3    H139362   3.616   0.346   3.843  2.1495  0.4640  1.0132
 5957TIP3    H239363   3.636   0.485   3.900 -1.3315  1.4123  0.0888
 5958TIP3   OH239364   6.420   0.053  12.366  0.2027 -0.0123 -0.6239
 5958TIP3    H139365   6.388  -0.003  12.296 -0.0038 -0.0019 -0.5369
 5958TIP3    H239366   6.458   0.128  12.320  1.4727 -0.7335 -0.7781
 5959TIP3   OH239367   4.701   3.507   2.982  0.1047  0.2751 -0.1872
 5959TIP3    H139368   4.687   3.415   2.959  2.2419  0.5675 -2.8953
 5959TIP3    H239369   4.635   3.554   2.930 -2.1613  0.2227  2.5118
 5960TIP3   OH239370   3.276   1.566  15.370 -0.2098  0.3382  0.3952
 5960TIP3    H139371   3.285   1.645  15.317  0.1217 -0.3034 -0.5193
 5960TIP3    H239372   3.268   1.495  15.306 -0.5505 -0.3627  1.2062
 5961TIP3   OH239373   5.427   6.480  17.000  0.2280 -0.5560 -0.2746
 5961TIP3    H139374   5.424   6.533  16.920 -0.4658  0.6040  0.5079
 5961TIP3    H239375   5.346   6.430  16.999 -0.2088  0.1374  0.1548
 5962TIP3   OH239376   4.897   5.895  14.137  0.2788  0.3456 -0.1355
 5962TIP3    H139377   4.867   5.819  14.188 -1.8004  0.5545 -0.9940
 5962TIP3    H239378   4.863   5.971  14.185  0.6387  0.6596 -0.3723
 5963TIP3   OH239379   5.190   2.784  13.811  0.2600  0.4524  0.1079
 5963TIP3    H139380   5.123   2.801  13.878  0.9437  0.6931  0.7413
 5963TIP3    H239381   5.228   2.870  13.794  0.6632  0.2551  0.0238
 5964TIP3   OH239382   6.431   4.852   6.343 -0.2291 -0.0264  0.4153
 5964TIP3    H139383   6.461   4.873   6.431 -2.5094 -2.4918  1.8635
 5964TIP3    H239384   6.393   4.765   6.350  0.7859 -0.8989 -3.3448
 5965TIP3   OH239385   6.788   2.146   2.645  0.0842  0.3878 -0.0761
 5965TIP3    H139386   6.842   2.084   2.598  0.0430  0.3304 -0.0476
 5965TIP3    H239387   6.728   2.092   2.696 -0.0713  0.4510 -0.1904
 5966TIP3   OH239388   5.292   5.762  13.895  0.1363  0.2444  0.0053
 5966TIP3    H139389   5.349   5.699  13.939  0.6866  0.2906 -0.6293
 5966TIP3    H239390   5.346   5.840  13.882 -0.5648  0.8833  0.8538
 5967TIP3   OH239391   3.819   5.907   6.100 -0.3691 -0.4929 -0.9623
 5967TIP3    H139392   3.872   5.905   6.180 -0.7012  1.4080 -0.6832
 5967TIP3    H239393   3.883   5.895   6.029 -0.2446 -3.6302 -0.3895
 5968TIP3   OH239394   2.675   1.421   3.921 -0.1064 -0.0322  0.2563
 5968TIP3    H139395   2.764   1.455   3.936  0.8154 -2.4741  0.5184
 5968TIP3    H239396   2.664   1.424   3.826  0.0592  0.7176  0.2534
 5969TIP3   OH239397   6.265   2.571  17.185 -0.9277 -0.2177  0.5773
 5969TIP3    H139398   6.321   2.550  17.260 -0.8772 -0.2781  0.5229
 5969TIP3    H239399   6.316   2.633  17.133 -0.2748 -1.4373 -0.2711
 5970TIP3   OH239400   0.514   5.134   2.834  0.1551  0.7007 -0.0579
 5970TIP3    H139401   0.489   5.160   2.745 -1.1179 -0.8719 -0.1949
 5970TIP3    H239402   0.442   5.078   2.863  1.1760  0.1656  1.4894
 5971TIP3   OH239403   4.519   4.388  16.519 -0.0231 -0.2933  0.3056
 5971TIP3    H139404   4.520   4.328  16.593 -0.7891 -1.5410 -0.6645
 5971TIP3    H239405   4.476   4.339  16.449  2.6604 -0.0051 -1.6610
 5972TIP3   OH239406   3.180   2.707   2.195  0.4624 -0.3557  0.5753
 5972TIP3    H139407   3.160   2.687   2.287  3.1005  1.3234  1.5754
 5972TIP3    H239408   3.274   2.693   2.188  0.5307  0.9777 -1.5079
 5973TIP3   OH239409   1.421   3.714  15.621  0.4139 -0.1443  0.2605
 5973TIP3    H139410   1.405   3.633  15.573  0.6651 -1.7871  2.8375
 5973TIP3    H239411   1.334   3.748  15.641  0.3022  0.9357 -1.8960
 5974TIP3   OH239412   5.329   5.447  12.979 -0.1779 -0.1845  0.1404
 5974TIP3    H139413   5.408   5.474  13.026 -0.5084 -1.1496  1.2593
 5974TIP3    H239414   5.279   5.396  13.042 -1.5051  0.0460 -0.6926
 5975TIP3   OH239415   2.449   4.557  13.637 -0.0802 -0.2935 -0.1163
 5975TIP3    H139416   2.538   4.591  13.648 -1.1720  2.2664  1.2044
 5975TIP3    H239417   2.441   4.542  13.543  2.3954 -2.4815 -0.0294
 5976TIP3   OH239418   1.497   1.907  14.407  0.0855  1.0556  0.0424
 5976TIP3    H139419   1.503   1.858  14.490  0.6152  0.3385 -0.4090
 5976TIP3    H239420   1.482   1.997  14.434  0.2570  0.8321  0.9268
 5977TIP3   OH239421   2.120   6.792   3.903 -0.4060 -0.0929  0.8890
 5977TIP3    H139422   2.082   6.871   3.941  0.0855  1.3603 -1.5475
 5977TIP3    H239423   2.213   6.811   3.897 -0.6112  0.2246 -2.0865
 5978TIP3   OH239424   1.361   2.464  15.832 -0.4839  0.0189 -0.5050
 5978TIP3    H139425   1.322   2.383  15.865  1.5622 -0.6774  0.2579
 5978TIP3    H239426   1.392   2.510  15.910  0.3642  0.4833 -1.1091
 5979TIP3   OH239427   2.192   6.022   2.546 -0.0136  0.1505  0.7203
 5979TIP3    H139428   2.286   6.036   2.535 -0.0294 -1.0976 -1.3334
 5979TIP3    H239429   2.184   5.927   2.559 -1.1596 -0.1677 -1.8676
 5980TIP3   OH239430   1.200   6.397   4.729 -0.1393 -0.1374 -0.1800
 5980TIP3    H139431   1.210   6.387   4.635 -2.1862 -0.9875 -0.3363
 5980TIP3    H239432   1.119   6.446   4.740  0.6322  0.8787  1.1141
 5981TIP3   OH239433   3.633   2.908  16.431 -0.3581 -0.2900  0.3415
 5981TIP3    H139434   3.685   2.920  16.351 -0.3122  2.4443  0.7346
 5981TIP3    H239435   3.564   2.847  16.406  1.8863 -2.4636 -0.7282
 5982TIP3   OH239436   1.502   1.350  16.705  0.0077 -0.6548  0.2818
 5982TIP3    H139437   1.415   1.366  16.668 -0.0858 -2.4897 -0.3518
 5982TIP3    H239438   1.537   1.437  16.722 -1.3132  0.1452 -0.9606
 5983TIP3   OH239439   1.429   5.114  15.597 -0.7561  0.2601 -0.5909
 5983TIP3    H139440   1.374   5.181  15.638 -0.2142 -0.0008  0.5873
 5983TIP3    H239441   1.498   5.163  15.553  0.0075  0.4610  0.8145
 5984TIP3   OH239442   1.259   2.335  12.413  0.0179  0.5652 -0.0729
 5984TIP3    H139443   1.323   2.276  12.373 -0.1767  1.9339 -2.5329
 5984TIP3    H239444   1.310   2.389  12.472  0.7246  0.0137 -0.1639
 5985TIP3   OH239445   2.904   6.406  12.782 -0.3952 -0.7383  0.0860
 5985TIP3    H139446   2.823   6.391  12.832 -2.8026 -1.2932 -3.7556
 5985TIP3    H239447   2.885   6.482  12.728  1.3666 -1.3133 -1.4125
 5986TIP3   OH239448   0.941   1.427   2.551 -0.0287 -0.2927  0.4078
 5986TIP3    H139449   0.910   1.502   2.501  1.9996 -0.4254 -1.1064
 5986TIP3    H239450   1.030   1.450   2.577 -0.4981 -0.8705  2.6875
 5987TIP3   OH239451   5.024   1.993   2.743  0.2050 -0.2372 -0.6358
 5987TIP3    H139452   4.948   1.948   2.707 -0.5333  0.5284 -0.0791
 5987TIP3    H239453   5.015   2.083   2.711 -0.4945  0.4671  1.4642
 5988TIP3   OH239454   2.839   0.923   1.809  0.4302  0.5616 -0.1598
 5988TIP3    H139455   2.787   0.946   1.885 -0.2782  0.4305 -0.6016
 5988TIP3    H239456   2.828   0.997   1.749  1.0704  0.7130 -0.0976
 5989TIP3   OH239457   2.201   2.095  16.713 -0.1898  0.3984 -0.5171
 5989TIP3    H139458   2.189   2.024  16.649  0.6106  1.0291 -1.3801
 5989TIP3    H239459   2.292   2.086  16.742 -0.1766  0.8957 -0.4051
 5990TIP3   OH239460   2.866   4.418   5.802  0.5610  0.4693 -0.6168
 5990TIP3    H139461   2.902   4.409   5.891  0.5349 -0.1884 -0.6715
 5990TIP3    H239462   2.827   4.333   5.784 -0.8340  1.1012 -0.6522
 5991TIP3   OH239463   0.796   6.795   3.976 -0.2248  0.0019  0.1121
 5991TIP3    H139464   0.885   6.775   3.946 -0.5700  1.2106 -1.8414
 5991TIP3    H239465   0.742   6.726   3.938 -0.4443  0.6704 -0.8287
 5992TIP3   OH239466   2.242   1.108   2.050  0.0321 -0.3787  0.3925
 5992TIP3    H139467   2.303   1.178   2.025  0.8187 -0.6585  1.5182
 5992TIP3    H239468   2.156   1.151   2.047  0.4808  0.5797  0.8271
 5993TIP3   OH239469   6.431   3.085   2.295  0.2963  0.3029 -0.1909
 5993TIP3    H139470   6.374   3.160   2.278  0.6278  0.4614 -0.6126
 5993TIP3    H239471   6.514   3.108   2.253  0.2929 -0.4464 -0.6191
 5994TIP3   OH239472   2.502   1.174   2.563 -0.7740 -0.4311 -0.6706
 5994TIP3    H139473   2.585   1.221   2.573 -0.6791 -0.7216 -0.0633
 5994TIP3    H239474   2.511   1.127   2.481 -0.8465  0.5628 -1.2629
 5995TIP3   OH239475   0.144   5.675   1.677  0.0768  0.1889 -0.5743
 5995TIP3    H139476   0.163   5.599   1.733 -0.0445 -0.0628 -0.8697
 5995TIP3    H239477   0.085   5.729   1.729  1.2577  0.7696  0.1853
 5996TIP3   OH239478   0.680   5.583   5.242  0.4008 -0.4256  0.0641
 5996TIP3    H139479   0.621   5.650   5.277  0.8080  0.2597 -0.5305
 5996TIP3    H239480   0.625   5.506   5.228  0.4186 -1.0350  3.1025
 5997TIP3   OH239481   3.561   1.018  14.591  0.2083  0.0067 -0.0859
 5997TIP3    H139482   3.585   0.938  14.544  1.3312  0.3700 -0.1399
 5997TIP3    H239483   3.470   1.004  14.616 -0.8902  0.4183 -3.6224
 5998TIP3   OH239484   1.609   1.026  13.333  0.1539  0.2218 -0.6422
 5998TIP3    H139485   1.603   1.065  13.246 -2.1844  1.7315  0.1437
 5998TIP3    H239486   1.631   1.100  13.390  1.2406 -0.6760  0.1077
 5999TIP3   OH239487   4.601   1.921   6.455 -0.1561 -0.4588 -0.5275
 5999TIP3    H139488   4.554   1.994   6.496 -0.4943  0.3077 -2.2224
 5999TIP3    H239489   4.535   1.852   6.447  0.2779 -1.1397  1.4821
 6000TIP3   OH239490   6.249   6.163   4.312 -0.1589 -0.2795 -0.1974
 6000TIP3    H139491   6.310   6.236   4.317  0.1925 -0.6013  0.2292
 6000TIP3    H239492   6.305   6.085   4.304 -0.4441 -0.7514  2.0254
 6001TIP3   OH239493   4.484   5.524   3.533  0.0732 -0.3988  0.1745
 6001TIP3    H139494   4.507   5.477   3.613  0.8676 -0.9967 -0.4009
 6001TIP3    H239495   4.430   5.462   3.483  1.4147 -0.8344 -0.7430
 6002TIP3   OH239496   2.404   5.600  13.236 -0.4944 -0.2593 -0.1832
 6002TIP3    H139497   2.480   5.634  13.282 -0.7890  0.8255 -0.4876
 6002TIP3    H239498   2.336   5.593  13.304 -0.9919  1.5427 -0.4795
 6003TIP3   OH239499   5.950   0.397  15.214  0.0073  0.1374 -0.6164
 6003TIP3    H139500   5.960   0.492  15.201 -1.1391  0.3762  0.2053
 6003TIP3    H239501   5.939   0.387  15.308  2.8254 -1.0855 -0.3577
 6004TIP3   OH239502   3.833   0.443   0.102 -0.2645  0.3137 -0.1598
 6004TIP3    H139503   3.895   0.431   0.031  1.6063  1.0369  1.2922
 6004TIP3    H239504   3.884   0.486   0.171 -1.9831 -0.4897  1.6605
 6005TIP3   OH239505   6.062   3.722  14.772 -0.2324  0.1284  0.0819
 6005TIP3    H139506   6.060   3.655  14.841  1.9592 -0.3488 -0.3105
 6005TIP3    H239507   6.037   3.676  14.692  1.0699 -0.1695 -0.1510
 6006TIP3   OH239508   1.882   0.239   4.658  0.3810  0.2982  0.4314
 6006TIP3    H139509   1.876   0.334   4.671 -1.2976  0.1667  0.6015
 6006TIP3    H239510   1.897   0.204   4.745  1.0780  0.3951  0.3587
 6007TIP3   OH239511   0.987   4.341  14.623 -0.2344 -0.4442  0.4656
 6007TIP3    H139512   1.043   4.272  14.589 -0.7536 -0.4475 -0.3822
 6007TIP3    H239513   1.046   4.414  14.639 -0.2122  0.0343 -1.7707
 6008TIP3   OH239514   2.702   3.084   3.277 -0.3365 -0.3107 -0.0135
 6008TIP3    H139515   2.748   3.141   3.215  0.7414 -0.6883  0.4294
 6008TIP3    H239516   2.622   3.057   3.230 -0.6592  1.2181 -0.3802
 6009TIP3   OH239517   6.385   0.611   5.265 -0.2705  0.1490 -0.3384
 6009TIP3    H139518   6.460   0.565   5.303  0.3669  0.9264 -0.6537
 6009TIP3    H239519   6.314   0.547   5.270  0.4181 -0.6145 -0.0839
 6010TIP3   OH239520   6.751   4.402   4.584  0.1590 -0.5515  0.2010
 6010TIP3    H139521   6.704   4.473   4.540 -0.3349 -0.4407  0.9021
 6010TIP3    H239522   6.767   4.435   4.672 -0.0797 -1.3089  0.5332
 6011TIP3   OH239523   3.848   0.749   3.697  0.2465 -0.1761 -0.1360
 6011TIP3    H139524   3.817   0.824   3.647 -0.6931  0.8402  1.9251
 6011TIP3    H239525   3.881   0.688   3.630 -0.1069  1.5197 -1.9113
 6012TIP3   OH239526   2.365   2.079   3.545 -0.0403 -0.6650 -0.4043
 6012TIP3    H139527   2.274   2.074   3.572  0.4817 -1.3869  1.3036
 6012TIP3    H239528   2.401   1.992   3.564  0.4911 -1.0553 -3.0276
 6013TIP3   OH239529   4.238   5.056  11.208  0.0038 -0.4667 -0.3679
 6013TIP3    H139530   4.248   4.989  11.141 -0.0395 -0.1875 -0.6565
 6013TIP3    H239531   4.172   5.116  11.173 -0.2225 -0.4737  0.0478
 6014TIP3   OH239532   0.566   5.217   1.619  0.0978 -0.5212  0.2004
 6014TIP3    H139533   0.641   5.249   1.668 -0.9211  3.1330 -0.4806
 6014TIP3    H239534   0.494   5.216   1.683 -0.3684  0.6824 -0.2863
 6015TIP3   OH239535   1.750   2.568  14.648  0.1624 -0.1081  0.3770
 6015TIP3    H139536   1.840   2.551  14.673 -0.2100 -1.3336  0.9422
 6015TIP3    H239537   1.751   2.567  14.552  1.1822  2.3807  0.3291
 6016TIP3   OH239538   3.418   0.777   5.847 -0.3724 -0.1783  0.2599
 6016TIP3    H139539   3.482   0.777   5.919  0.5804  0.6340 -0.5763
 6016TIP3    H239540   3.371   0.860   5.857 -0.3497 -0.1397  0.0356
 6017TIP3   OH239541   5.768   0.030   1.629  0.1247 -0.0464 -0.0581
 6017TIP3    H139542   5.812  -0.041   1.582 -0.1766  0.2938 -0.8636
 6017TIP3    H239543   5.678  -0.000   1.639 -0.0775  0.3403 -0.6637
 6018TIP3   OH239544   0.832   4.082   1.372  0.1338 -0.2099  0.5297
 6018TIP3    H139545   0.753   4.089   1.426 -1.0528 -0.5680 -1.1145
 6018TIP3    H239546   0.904   4.074   1.435 -0.9755  1.5269  2.0910
 6019TIP3   OH239547   5.483   6.686  15.623  0.1126 -0.5643  0.3757
 6019TIP3    H139548   5.484   6.721  15.712  0.5538 -1.8474  0.8955
 6019TIP3    H239549   5.451   6.596  15.633  0.4659 -0.8230 -0.7184
 6020TIP3   OH239550   4.236   4.245  12.611 -0.0835 -0.4395  0.2302
 6020TIP3    H139551   4.244   4.233  12.517 -0.7611 -2.3558  0.3923
 6020TIP3    H239552   4.200   4.333  12.621  1.6850  0.4801 -1.2085
 6021TIP3   OH239553   0.029   1.020   5.220  0.5587  0.3796 -0.1084
 6021TIP3    H139554   0.061   1.110   5.213  0.4499  0.3367 -1.3556
 6021TIP3    H239555  -0.028   1.020   5.296  2.8919  0.6475  1.6931
 6022TIP3   OH239556   6.474   4.244   2.097 -0.0132 -0.0999 -0.2073
 6022TIP3    H139557   6.524   4.255   2.016 -0.9098 -0.0996 -0.7664
 6022TIP3    H239558   6.531   4.193   2.154  0.0121 -1.4308 -1.3961
 6023TIP3   OH239559   3.764   3.056  15.128  0.3437  0.1074  0.4735
 6023TIP3    H139560   3.756   3.128  15.066  0.1982  0.1428  0.5313
 6023TIP3    H239561   3.728   2.981  15.082 -1.3992  0.5142  1.1445
 6024TIP3   OH239562   4.842   2.667  14.983  0.0794 -0.1812 -0.1691
 6024TIP3    H139563   4.762   2.691  15.030  0.2776  1.1902 -0.4900
 6024TIP3    H239564   4.906   2.651  15.052 -0.3951 -0.9799  0.0831
 6025TIP3   OH239565   6.186   2.350  12.161 -0.4285 -0.3360  0.2116
 6025TIP3    H139566   6.201   2.410  12.234 -1.3925 -0.8819  0.8676
 6025TIP3    H239567   6.091   2.343  12.155 -0.3319 -2.7819  0.9707
 6026TIP3   OH239568   3.568   0.563   3.449  0.2508 -0.3281  0.3354
 6026TIP3    H139569   3.652   0.517   3.447  1.0976  0.9605  3.4563
 6026TIP3    H239570   3.505   0.496   3.476  0.6969 -0.6891  0.4857
 6027TIP3   OH239571   5.107   6.794   0.500 -0.6754  0.2327 -0.1580
 6027TIP3    H139572   5.052   6.820   0.426 -0.7827  2.1193  0.5554
 6027TIP3    H239573   5.047   6.755   0.563 -0.8076  0.0347 -0.4029
 6028TIP3   OH239574   5.235   1.209   5.845  0.0724 -0.1737 -0.2920
 6028TIP3    H139575   5.261   1.148   5.776 -0.9802 -3.9194  2.4235
 6028TIP3    H239576   5.318   1.232   5.888  0.5424  0.8000 -1.7031
 6029TIP3   OH239577   0.773   1.714  16.295  0.2932  0.4895 -0.4979
 6029TIP3    H139578   0.729   1.676  16.371 -3.0010  3.5174 -0.7440
 6029TIP3    H239579   0.866   1.712  16.317 -0.6004  1.3442  3.6330
 6030TIP3   OH239580   3.734   6.748   2.446  0.2455 -0.3376  0.5019
 6030TIP3    H139581   3.777   6.792   2.373  1.9659 -0.2701  1.5533
 6030TIP3    H239582   3.645   6.783   2.446  1.0904  1.8537  0.2699
 6031TIP3   OH239583   2.866   1.836  14.339 -0.0440  0.1148 -0.4412
 6031TIP3    H139584   2.845   1.744  14.326 -0.0237  0.0973 -0.3468
 6031TIP3    H239585   2.826   1.858  14.423  1.8595 -0.3835  0.6115
 6032TIP3   OH239586   5.844   5.962  15.818  1.0763  0.2896 -0.4861
 6032TIP3    H139587   5.783   6.034  15.830 -1.1000 -1.0625 -2.9864
 6032TIP3    H239588   5.926   6.003  15.791  1.1133  2.0633  2.1678
 6033TIP3   OH239589   4.373   6.562   0.786  0.2778 -0.0372  0.3334
 6033TIP3    H139590   4.453   6.598   0.747 -0.2620 -0.9711 -1.6803
 6033TIP3    H239591   4.378   6.588   0.878  0.4165  4.2074 -0.7963
 6034TIP3   OH239592   4.132   2.837   0.023  0.3638  0.3206 -0.6049
 6034TIP3    H139593   4.107   2.786   0.100  0.3699 -0.0762 -0.8637
 6034TIP3    H239594   4.141   2.927   0.055  0.7899  0.0857 -0.0569
 6035TIP3   OH239595   3.496   1.384  16.928 -0.3181  0.1493  0.1451
 6035TIP3    H139596   3.549   1.372  17.007  0.6040  0.0883 -0.4776
 6035TIP3    H239597   3.529   1.465  16.889  0.2756 -0.6365 -0.9999
 6036TIP3   OH239598   0.811   6.079   3.293 -0.0499  0.1627  0.4423
 6036TIP3    H139599   0.733   6.111   3.338  0.5238  1.9547  0.2154
 6036TIP3    H239600   0.827   6.144   3.224  1.3372 -0.4507  0.1734
 6037TIP3   OH239601   2.866   1.931  16.509  0.1510 -0.0559  0.3166
 6037TIP3    H139602   2.865   1.878  16.429  1.0317 -0.1493  0.3600
 6037TIP3    H239603   2.874   2.021  16.478  0.6364 -0.1035  0.3045
 6038TIP3   OH239604   6.595   3.125  13.042 -0.2551 -0.1378 -0.3937
 6038TIP3    H139605   6.505   3.159  13.036 -0.5686 -0.5685  1.4628
 6038TIP3    H239606   6.612   3.086  12.956 -1.9009 -0.1846 -0.7155
 6039TIP3   OH239607   4.222   2.446  12.415  0.3696 -0.4190 -0.4302
 6039TIP3    H139608   4.235   2.371  12.474 -2.4244  0.2111  1.0945
 6039TIP3    H239609   4.286   2.511  12.445  3.2596 -2.3625 -2.1784
 6040TIP3   OH239610   4.168   1.532  12.158  0.2644 -0.1359  0.0120
 6040TIP3    H139611   4.130   1.575  12.235  1.8307 -1.8548  1.8144
 6040TIP3    H239612   4.257   1.567  12.153  0.7864 -1.4366  0.1165
 6041TIP3   OH239613   2.894   1.454  13.287 -0.3774  0.3722 -0.4746
 6041TIP3    H139614   2.964   1.440  13.223 -0.1548  1.3841 -0.4560
 6041TIP3    H239615   2.867   1.545  13.275 -2.1468 -0.1813 -0.9259
 6042TIP3   OH239616   1.840   6.207  16.402 -0.3100  0.4751 -0.4414
 6042TIP3    H139617   1.911   6.144  16.392 -0.9225  0.1924 -3.3993
 6042TIP3    H239618   1.766   6.167  16.358 -1.8618  1.5312  1.1290
 6043TIP3   OH239619   6.776   1.974  14.954 -0.0984  0.0371 -0.2284
 6043TIP3    H139620   6.762   2.006  15.043  0.0820 -1.0350  0.1919
 6043TIP3    H239621   6.717   2.027  14.900 -2.2320 -1.1594  0.8752
 6044TIP3   OH239622   2.046   3.766   4.327  0.0604 -0.0913 -0.4110
 6044TIP3    H139623   2.108   3.761   4.254  1.5581  0.2668  0.8099
 6044TIP3    H239624   2.030   3.675   4.351 -0.8696 -0.2318 -1.5379
 6045TIP3   OH239625   0.939   2.302   5.217 -0.2071 -0.3057  0.0903
 6045TIP3    H139626   0.867   2.242   5.196 -0.2169 -0.1530 -0.3217
 6045TIP3    H239627   0.934   2.369   5.149 -0.1630  0.1316  0.5152
 6046TIP3   OH239628   4.457   5.395   1.244  0.0622 -0.2329  0.6029
 6046TIP3    H139629   4.513   5.318   1.241  0.1577 -0.1073 -1.3148
 6046TIP3    H239630   4.409   5.387   1.327 -0.8421 -3.0025 -0.1571
 6047TIP3   OH239631   3.180   3.093  12.505 -0.0903 -0.0800  0.1838
 6047TIP3    H139632   3.240   3.075  12.578  1.9801  0.3548 -1.3702
 6047TIP3    H239633   3.150   3.007  12.477 -0.4643 -0.2855  1.1930
 6048TIP3   OH239634   0.508   4.705   3.660 -0.1744 -0.3251  0.8784
 6048TIP3    H139635   0.492   4.773   3.595  0.5408  1.5143  2.5727
 6048TIP3    H239636   0.538   4.630   3.609 -1.4927  0.4181 -1.0826
 6049TIP3   OH239637   1.589   6.483   2.788 -0.6249  0.3371  0.0622
 6049TIP3    H139638   1.679   6.458   2.765 -0.8939 -3.0911  2.5146
 6049TIP3    H239639   1.539   6.466   2.709  0.3829 -0.4681 -0.4197
 6050TIP3   OH239640   6.684   4.571  11.486 -0.0574 -0.1867  0.4526
 6050TIP3    H139641   6.751   4.504  11.477  0.6864  0.6326 -0.1624
 6050TIP3    H239642   6.700   4.612  11.571  0.7654  0.5965 -0.0787
 6051TIP3   OH239643   0.835   5.894   1.115 -0.4079  0.4654 -0.8179
 6051TIP3    H139644   0.773   5.967   1.112  0.9813  1.6613 -0.9538
 6051TIP3    H239645   0.831   5.856   1.027  0.2198  1.5362 -1.3175
 6052TIP3   OH239646   2.774   3.694   3.272  0.3485  0.0774 -0.3546
 6052TIP3    H139647   2.834   3.766   3.252  1.0873 -0.5464 -0.4012
 6052TIP3    H239648   2.814   3.649   3.346 -1.4932  1.3310  1.4540
 6053TIP3   OH239649   3.134   3.201  16.096 -0.3685  0.0996 -0.2147
 6053TIP3    H139650   3.138   3.293  16.069  2.0479  0.0441 -0.0922
 6053TIP3    H239651   3.124   3.152  16.014  1.6108  0.2771 -0.5803
 6054TIP3   OH239652   2.068   3.648  13.689  0.1164 -0.0711  0.1574
 6054TIP3    H139653   2.126   3.632  13.615 -0.9033 -0.7470 -0.5167
 6054TIP3    H239654   2.054   3.561  13.727  0.7222  0.2826  1.2280
 6055TIP3   OH239655   4.559   6.333   2.602 -0.2922 -0.3281 -0.1890
 6055TIP3    H139656   4.565   6.240   2.624 -0.9266 -0.1886  0.5992
 6055TIP3    H239657   4.619   6.376   2.663  1.3977 -0.3889 -1.7525
 6056TIP3   OH239658   2.728   0.448  12.108 -0.4961 -0.0613 -0.4697
 6056TIP3    H139659   2.775   0.375  12.067  1.4337  1.4575 -1.0465
 6056TIP3    H239660   2.636   0.423  12.103 -0.0657 -1.3115 -3.0177
 6057TIP3   OH239661   6.514   5.601  15.744 -0.1156  0.0331 -0.2328
 6057TIP3    H139662   6.428   5.591  15.703  0.4749 -1.9881 -1.0529
 6057TIP3    H239663   6.531   5.695  15.741 -0.9498  0.1533 -2.8872
 6058TIP3   OH239664   3.446   3.030   3.439  0.0558  0.2034 -0.6228
 6058TIP3    H139665   3.472   3.063   3.353  0.1291  1.9117  0.0349
 6058TIP3    H239666   3.502   3.076   3.501  2.4303 -3.5594  0.1775
 6059TIP3   OH239667   4.253   4.211   1.284  0.7496  0.2076  0.3651
 6059TIP3    H139668   4.232   4.273   1.354  0.2312  1.1867 -0.6367
 6059TIP3    H239669   4.192   4.233   1.213  2.3208  0.2925 -1.0015
 6060TIP3   OH239670   3.102   5.716  14.790 -0.6263  0.3356 -0.5329
 6060TIP3    H139671   3.134   5.788  14.735  2.9225 -2.0095 -1.7280
 6060TIP3    H239672   3.149   5.727  14.873 -0.8218 -0.0413 -0.3739
 6061TIP3   OH239673   1.041   4.378  16.259  0.1290 -0.2170  0.3100
 6061TIP3    H139674   0.989   4.307  16.221 -0.0124  0.1379 -0.1609
 6061TIP3    H239675   1.129   4.365  16.225  0.3617 -0.8539  1.1532
 6062TIP3   OH239676   3.644   0.152  13.578 -0.0225  0.5300 -0.4766
 6062TIP3    H139677   3.614   0.092  13.510  0.7336 -0.1845 -0.1941
 6062TIP3    H239678   3.571   0.212  13.592 -0.8248 -0.3850 -0.6983
 6063TIP3   OH239679   4.791   0.490  15.487 -0.7104  0.3483 -0.2191
 6063TIP3    H139680   4.765   0.529  15.570 -1.1926  1.7325 -1.0142
 6063TIP3    H239681   4.733   0.530  15.422  0.2869 -0.0249 -1.3531
 6064TIP3   OH239682   3.855   0.009   5.861  0.2101 -0.2567  0.3024
 6064TIP3    H139683   3.920   0.073   5.887 -0.6505  1.3555 -1.3849
 6064TIP3    H239684   3.897  -0.042   5.792  0.4936 -0.7894  0.8584
 6065TIP3   OH239685   4.713   3.298  15.927 -0.1685  0.2778 -0.1050
 6065TIP3    H139686   4.760   3.259  16.000 -1.3805 -2.0793 -0.5311
 6065TIP3    H239687   4.781   3.320  15.863  0.5367 -1.4211  0.0355
 6066TIP3   OH239688   0.770   0.234   1.642  0.0756 -0.4105 -0.5106
 6066TIP3    H139689   0.729   0.210   1.559  1.2484  0.2622 -1.2931
 6066TIP3    H239690   0.779   0.151   1.689  2.1607 -1.2503 -2.3152
 6067TIP3   OH239691   1.797   4.501   3.939 -0.2179  0.0444 -0.7796
 6067TIP3    H139692   1.776   4.476   4.029 -0.3515 -0.2349 -0.8871
 6067TIP3    H239693   1.875   4.556   3.946 -1.0288  1.1598 -0.3713
 6068TIP3   OH239694   4.428   5.168   4.655  0.1998 -0.0519  0.3311
 6068TIP3    H139695   4.483   5.234   4.699  1.9861  0.3359 -2.3823
 6068TIP3    H239696   4.411   5.205   4.569  1.0257 -3.0210 -1.1670
 6069TIP3   OH239697   5.469   4.554  15.558  0.1091  0.6664 -0.2418
 6069TIP3    H139698   5.428   4.513  15.634  1.6772 -0.0549  0.2260
 6069TIP3    H239699   5.563   4.554  15.578  0.8991 -2.2876 -3.4379
 6070TIP3   OH239700   4.683   1.695  11.525 -0.4127  0.0312 -0.2212
 6070TIP3    H139701   4.624   1.697  11.601 -0.5723 -1.6166 -0.2900
 6070TIP3    H239702   4.768   1.668  11.562 -0.6909 -1.5989 -0.7432
 6071TIP3   OH239703   5.307   3.478  15.754 -0.2759 -0.5362 -0.3373
 6071TIP3    H139704   5.358   3.414  15.706  0.7927 -0.0411  0.1370
 6071TIP3    H239705   5.369   3.548  15.777 -0.9146 -0.4134  1.1181
 6072TIP3   OH239706   1.861   1.933   2.634 -0.0209  0.3597 -0.0410
 6072TIP3    H139707   1.790   1.991   2.607 -0.5342  0.0579  0.6360
 6072TIP3    H239708   1.845   1.851   2.588 -1.7807 -0.6733  2.2905
 6073TIP3   OH239709   4.863   1.104   2.545 -0.8202  0.2913 -0.0826
 6073TIP3    H139710   4.800   1.059   2.600 -0.2605  0.0528  0.3747
 6073TIP3    H239711   4.924   1.035   2.517 -0.1261  0.7052  0.3814
 6074TIP3   OH239712   0.745   6.547  15.776  0.0328 -0.0120 -0.4354
 6074TIP3    H139713   0.671   6.514  15.827  0.9557  0.3507  1.1507
 6074TIP3    H239714   0.705   6.607  15.713 -1.1767 -0.9236 -0.5502
 6075TIP3   OH239715   6.491   2.397   5.601 -0.3395 -0.3030  0.4162
 6075TIP3    H139716   6.447   2.326   5.648  0.6470 -1.7191 -0.7568
 6075TIP3    H239717   6.420   2.446   5.559 -1.0374 -0.4717  1.3844
 6076TIP3   OH239718   4.949   1.571   5.610  0.0056 -0.4487  0.4983
 6076TIP3    H139719   4.943   1.653   5.659 -0.1785 -1.1322  1.6448
 6076TIP3    H239720   4.963   1.598   5.519 -0.5227  0.8566  0.7952
 6077TIP3   OH239721   2.087   2.073  15.714 -0.1720 -0.1649  0.5972
 6077TIP3    H139722   2.032   2.112  15.647 -0.9520  0.9439  1.8744
 6077TIP3    H239723   2.078   1.978  15.701  0.4434  0.0311 -1.4522
 6078TIP3   OH239724   1.145   2.699   0.868 -0.6996  0.2478 -0.0504
 6078TIP3    H139725   1.080   2.636   0.834  0.8879 -1.8794  0.7204
 6078TIP3    H239726   1.190   2.730   0.790 -1.2060  0.1007 -0.4121
 6079TIP3   OH239727   2.205   5.276   6.119 -0.3429  0.7806 -0.3529
 6079TIP3    H139728   2.139   5.212   6.093  0.2275 -0.1033  0.3658
 6079TIP3    H239729   2.230   5.251   6.208 -0.8986  2.6523  0.3621
 6080TIP3   OH239730   0.650   0.318  14.981  0.7613 -0.3504 -0.7443
 6080TIP3    H139731   0.734   0.274  14.971  1.0808 -0.0766  0.5936
 6080TIP3    H239732   0.599   0.290  14.906  1.4015 -2.0092 -0.5831
 6081TIP3   OH239733   4.080   6.806  13.554  0.0895 -0.1614 -1.0111
 6081TIP3    H139734   4.087   6.855  13.636  0.5662  0.1862 -1.2567
 6081TIP3    H239735   4.127   6.725  13.569  2.5706  1.0746 -1.8269
 6082TIP3   OH239736   4.526   4.789  14.375  0.0639 -0.0082 -0.7592
 6082TIP3    H139737   4.604   4.784  14.429 -0.3636 -0.7047 -0.1920
 6082TIP3    H239738   4.506   4.698  14.352 -0.5497  0.1615 -0.9346
 6083TIP3   OH239739   1.814   3.774  13.208 -0.0939 -0.2392  0.4211
 6083TIP3    H139740   1.747   3.835  13.238 -0.7369 -1.2575  1.1246
 6083TIP3    H239741   1.852   3.815  13.131 -2.6693 -0.3722 -0.9938
 6084TIP3   OH239742   3.679   2.885   0.523  0.3476 -0.6128 -0.0607
 6084TIP3    H139743   3.620   2.867   0.596 -0.5885 -1.0182 -0.9113
 6084TIP3    H239744   3.753   2.930   0.563 -1.2961  1.4185  0.7877
 6085TIP3   OH239745   0.843   1.758   4.244  0.0794  0.4179 -1.5078
 6085TIP3    H139746   0.808   1.837   4.287 -1.0227 -1.2036  0.6712
 6085TIP3    H239747   0.928   1.745   4.285 -0.6186 -0.6557 -0.3462
 6086TIP3   OH239748   6.002   3.233  11.781 -0.1888 -0.2632  0.9788
 6086TIP3    H139749   6.011   3.246  11.876 -1.0070 -2.7259  1.4386
 6086TIP3    H239750   5.907   3.238  11.766 -0.0642  0.0318  0.3122
 6087TIP3   OH239751   3.373   4.408  12.827 -0.6142  0.5888 -0.6345
 6087TIP3    H139752   3.375   4.393  12.732  0.1263 -1.4943 -0.3086
 6087TIP3    H239753   3.460   4.444  12.847  0.2141 -1.4662 -0.3862
 6088TIP3   OH239754   6.344   5.387  13.882  0.3182  0.0382 -0.1006
 6088TIP3    H139755   6.324   5.356  13.794  0.2272 -1.6087  0.4732
 6088TIP3    H239756   6.284   5.460  13.897 -2.3771 -2.1176  0.0115
 6089TIP3   OH239757   1.749   1.683  16.239  0.5595 -0.0261 -0.3813
 6089TIP3    H139758   1.802   1.716  16.312 -0.2714 -0.4486  0.4185
 6089TIP3    H239759   1.807   1.624  16.192  0.6222 -0.9723  0.8574
 6090TIP3   OH239760   2.172   2.724   0.524 -0.4713 -0.4256  0.3333
 6090TIP3    H139761   2.111   2.781   0.570 -2.7712 -0.7783 -2.0840
 6090TIP3    H239762   2.220   2.782   0.465  1.4930 -0.1759  2.1075
 6091TIP3   OH239763   0.874   2.834  12.943 -0.5700  0.8595  0.3470
 6091TIP3    H139764   0.834   2.747  12.938 -0.9756  0.9062  2.1416
 6091TIP3    H239765   0.808   2.893  12.907 -0.5080  0.4769 -0.3881
 6092TIP3   OH239766   4.464   4.996   4.280 -0.2040 -0.5838  0.2234
 6092TIP3    H139767   4.551   4.960   4.260 -0.4909 -0.6404 -0.9771
 6092TIP3    H239768   4.438   4.952   4.360  0.0094 -2.0944 -0.5209
 6093TIP3   OH239769   5.444   5.146   5.427 -0.0511  0.2053  0.4827
 6093TIP3    H139770   5.378   5.194   5.378 -0.5574 -1.0770 -0.1304
 6093TIP3    H239771   5.522   5.148   5.371  0.7779  2.5740  1.6485
 6094TIP3   OH239772   6.592   1.972   5.230 -0.6193 -0.4541 -0.2367
 6094TIP3    H139773   6.540   2.032   5.284 -1.0923 -2.3555  1.4768
 6094TIP3    H239774   6.567   1.992   5.140 -2.0537  0.7228  0.4110
 6095TIP3   OH239775   5.976   3.792   2.866  0.1241 -0.2102 -0.2215
 6095TIP3    H139776   6.025   3.789   2.784  0.3871 -0.5127 -0.0538
 6095TIP3    H239777   5.965   3.886   2.885  2.0687 -0.1364  0.5917
 6096TIP3   OH239778   6.697   4.263   1.400  0.0832  0.7059 -0.2206
 6096TIP3    H139779   6.632   4.333   1.412  1.4211  1.8976  0.3419
 6096TIP3    H239780   6.777   4.310   1.375  0.8272 -0.7008 -0.5078
 6097TIP3   OH239781   0.502   4.220   4.269 -0.0366 -0.7683 -0.0962
 6097TIP3    H139782   0.436   4.163   4.307 -0.8766 -0.8062 -1.5547
 6097TIP3    H239783   0.456   4.303   4.256  0.1082 -0.8868 -1.4016
 6098TIP3   OH239784   4.088   5.132   2.751 -0.0244 -0.1510 -0.6480
 6098TIP3    H139785   4.076   5.038   2.747  0.0840 -0.2196  0.5189
 6098TIP3    H239786   4.138   5.153   2.672  2.4530 -1.4693  0.5108
 6099TIP3   OH239787   5.945   6.217   2.482 -0.1085 -0.0767  0.2678
 6099TIP3    H139788   6.038   6.226   2.466 -0.2137  1.5966  0.5134
 6099TIP3    H239789   5.921   6.134   2.441  2.0797 -2.1106  2.8809
 6100TIP3   OH239790   5.844   5.971   5.197  0.3744 -0.4940 -0.6639
 6100TIP3    H139791   5.785   5.996   5.126  1.5225 -0.2676 -1.5605
 6100TIP3    H239792   5.908   6.042   5.201 -0.4531  0.1671  1.5131
 6101TIP3   OH239793   2.060   5.809  14.464  0.5548  0.2017  0.3520
 6101TIP3    H139794   2.100   5.896  14.475 -0.3196  0.4373  1.8965
 6101TIP3    H239795   2.133   5.750  14.449  1.2454  1.0592  0.3363
 6102TIP3   OH239796   3.637   5.997  14.441  0.0341 -0.3093  0.3450
 6102TIP3    H139797   3.635   6.090  14.464  0.3874 -0.0090 -0.7801
 6102TIP3    H239798   3.726   5.982  14.410 -0.7275 -0.3880 -1.9280
 6103TIP3   OH239799   5.703   4.152  16.813 -0.2814  0.0353 -0.2597
 6103TIP3    H139800   5.763   4.127  16.883 -2.6899 -2.1765  1.0875
 6103TIP3    H239801   5.705   4.079  16.752 -1.2608  0.1567 -0.4451
 6104TIP3   OH239802   0.640   4.960   3.068  0.6251 -0.1402  0.1664
 6104TIP3    H139803   0.629   5.043   3.115 -0.9414  0.7793 -1.7258
 6104TIP3    H239804   0.565   4.907   3.096  2.4598 -1.5543  2.5608
 6105TIP3   OH239805   6.818   1.089  15.501 -0.3198  0.0640 -0.0172
 6105TIP3    H139806   6.833   1.184  15.497  2.4484 -0.3770 -1.6588
 6105TIP3    H239807   6.828   1.068  15.594  1.5846  1.0533  0.0460
 6106TIP3   OH239808   0.601   3.655  14.728  0.3092  0.4018 -0.3504
 6106TIP3    H139809   0.685   3.613  14.742  0.3049  0.0430 -1.3673
 6106TIP3    H239810   0.584   3.703  14.809  1.3516  0.2424 -0.0365
 6107TIP3   OH239811   3.357   3.200  14.424  0.3978 -0.0630 -0.3652
 6107TIP3    H139812   3.358   3.266  14.493  0.8196 -1.0219  0.5722
 6107TIP3    H239813   3.269   3.162  14.429  0.2697  0.1928 -0.6736
 6108TIP3   OH239814   5.216   5.824  16.236 -0.3838  0.3411 -0.1858
 6108TIP3    H139815   5.172   5.780  16.309  1.2036 -0.9293  0.0132
 6108TIP3    H239816   5.195   5.917  16.249  2.8225  0.6482  4.0425
 6109TIP3   OH239817   5.060   0.521   5.059  0.5918 -0.0080  0.3142
 6109TIP3    H139818   4.987   0.486   5.109  0.7736  1.6699  1.8389
 6109TIP3    H239819   5.103   0.582   5.119  1.2734  1.5153 -1.6393
 6110TIP3   OH239820   3.019   4.202   4.937 -0.0327  1.1598 -0.3398
 6110TIP3    H139821   3.002   4.256   5.014 -0.7224 -0.3538  0.5990
 6110TIP3    H239822   2.944   4.141   4.934  2.1522 -1.6621  0.3494
 6111TIP3   OH239823   3.059   3.466   4.097 -0.2254 -0.4695  0.4936
 6111TIP3    H139824   3.029   3.413   4.171 -1.5311 -0.2868  0.0981
 6111TIP3    H239825   3.094   3.403   4.034 -1.3315 -0.8235  0.2305
 6112TIP3   OH239826   5.707   3.890   4.967 -0.4001 -1.2954  0.0549
 6112TIP3    H139827   5.649   3.966   4.972  1.2994 -0.0007  0.6903
 6112TIP3    H239828   5.708   3.855   5.056 -0.2262 -1.3353  0.0371
 6113TIP3   OH239829   2.996   2.334  14.148  0.0583  0.0382 -0.1942
 6113TIP3    H139830   2.932   2.353  14.217 -1.3468  1.0517 -1.7543
 6113TIP3    H239831   3.006   2.417  14.101 -0.8239 -1.2476 -2.7048
 6114TIP3   OH239832   3.696   2.413  13.256  0.3077  0.0240  0.4684
 6114TIP3    H139833   3.637   2.468  13.205  0.4099  0.4398  0.8048
 6114TIP3    H239834   3.709   2.335  13.201 -1.8005 -0.7865  1.0592
 6115TIP3   OH239835   2.241   3.423  14.905  0.2980  1.0216  0.7644
 6115TIP3    H139836   2.234   3.328  14.907  1.9012  0.8940  1.4609
 6115TIP3    H239837   2.151   3.455  14.908 -0.2021 -0.4569  1.5172
 6116TIP3   OH239838   6.774   4.973   0.319 -0.3099  0.0823  0.4126
 6116TIP3    H139839   6.764   4.916   0.242  0.0754 -1.8202  1.7387
 6116TIP3    H239840   6.686   5.008   0.334 -1.1854 -2.3874  1.2424
 6117TIP3   OH239841   5.063   4.784   2.276  0.1058  0.0339  0.2634
 6117TIP3    H139842   5.065   4.879   2.267 -0.2171 -0.1341 -2.1472
 6117TIP3    H239843   5.045   4.768   2.368 -0.0423  2.3112  0.6513
 6118TIP3   OH239844   6.277   4.434  11.150 -0.3853 -0.0580  0.4732
 6118TIP3    H139845   6.222   4.358  11.168  0.5405 -0.6464  0.8113
 6118TIP3    H239846   6.314   4.457  11.235  1.1997 -0.6779 -0.0340
 6119TIP3   OH239847   1.531   1.822  12.091  0.0954  0.2214 -0.1095
 6119TIP3    H139848   1.594   1.881  12.050  0.9872  0.4076  1.4994
 6119TIP3    H239849   1.445   1.860  12.070  0.5691  0.8331 -0.9762
 6120TIP3   OH239850   6.807   2.291  13.430  0.5212  0.2043 -0.2658
 6120TIP3    H139851   6.814   2.385  13.413  2.4709  0.3828  1.2191
 6120TIP3    H239852   6.897   2.259  13.420  0.5786 -0.7990  2.9067
 6121TIP3   OH239853   0.563   2.174   1.919 -0.7613 -0.3583 -0.3965
 6121TIP3    H139854   0.648   2.190   1.961 -1.4524  0.4428  0.7082
 6121TIP3    H239855   0.552   2.250   1.861 -0.8926 -0.2793 -0.2672
 6122TIP3   OH239856   4.990   3.731  17.121 -0.1348 -0.2522 -0.4931
 6122TIP3    H139857   5.083   3.751  17.128 -0.2803  0.4528 -0.6016
 6122TIP3    H239858   4.968   3.747  17.029 -0.7170  1.0867 -0.1204
 6123TIP3   OH239859   5.454   2.428  12.861 -0.1657 -0.6011  0.0115
 6123TIP3    H139860   5.376   2.446  12.913 -0.6922  2.3233 -1.6436
 6123TIP3    H239861   5.426   2.360  12.799 -0.3167 -2.1360  1.7320
 6124TIP3   OH239862   3.885   3.489   5.425  0.1066  0.6940  0.0554
 6124TIP3    H139863   3.974   3.499   5.389  0.9998 -0.5455  1.8576
 6124TIP3    H239864   3.869   3.571   5.470  0.5099  0.7549  0.0965
 6125TIP3   OH239865   4.975   5.369   2.743 -0.2634  0.8128  0.1659
 6125TIP3    H139866   5.004   5.341   2.830 -1.5035 -2.9128 -0.5434
 6125TIP3    H239867   4.884   5.393   2.754 -0.3192  0.6934 -0.0284
 6126TIP3   OH239868   0.464   0.659   6.498  0.0894  0.1072  0.3205
 6126TIP3    H139869   0.402   0.627   6.563  0.1783  0.4732  0.5898
 6126TIP3    H239870   0.459   0.596   6.426  1.0462 -1.1139  1.2858
 6127TIP3   OH239871   5.015   1.034  15.357  0.4519  0.6384  0.0641
 6127TIP3    H139872   4.978   0.990  15.281  1.8344 -1.1210  0.3699
 6127TIP3    H239873   4.940   1.074  15.401 -0.3988  1.4289 -2.0457
 6128TIP3   OH239874   3.380   2.803   2.937  0.3362 -0.3118 -0.3127
 6128TIP3    H139875   3.407   2.823   2.847 -0.1048  0.9436 -0.1752
 6128TIP3    H239876   3.285   2.817   2.936  0.4696  0.6840  0.5966
 6129TIP3   OH239877   2.196   4.543  15.557 -0.6272  0.1518  0.0139
 6129TIP3    H139878   2.170   4.552  15.466  0.5007 -1.8701 -0.5546
 6129TIP3    H239879   2.136   4.477  15.592  2.2968 -3.1399 -0.8018
 6130TIP3   OH239880   1.409   5.821  12.440  0.2091  0.0881 -0.2479
 6130TIP3    H139881   1.429   5.863  12.356 -0.8930  0.3523 -0.3876
 6130TIP3    H239882   1.358   5.744  12.417  1.3894 -0.8127  0.0791
 6131TIP3   OH239883   5.383   1.297   1.296  0.1654 -0.2048  0.2139
 6131TIP3    H139884   5.342   1.351   1.228  1.6615 -0.6886 -1.1010
 6131TIP3    H239885   5.474   1.325   1.297  0.5939 -1.5814  0.6416
 6132TIP3   OH239886   2.089   6.213  12.299  0.4446  0.0218 -0.0792
 6132TIP3    H139887   2.057   6.196  12.387 -2.2335  1.5596 -0.6902
 6132TIP3    H239888   2.103   6.127  12.261 -0.2881 -0.6692  1.1939
 6133TIP3   OH239889   4.968   4.776  11.628 -0.2350  0.4394 -0.1671
 6133TIP3    H139890   4.940   4.843  11.565 -0.5953 -0.2467 -0.7482
 6133TIP3    H239891   5.061   4.793  11.641  0.0599  0.0429 -1.6022
 6134TIP3   OH239892   3.682   0.400  12.980  0.4930  0.3476 -0.2449
 6134TIP3    H139893   3.774   0.395  13.008  0.6581 -0.7430 -0.9552
 6134TIP3    H239894   3.649   0.311  12.992 -1.3435  1.3533  2.8781
 6135TIP3   OH239895   2.361   3.793   1.464  0.0647  0.1686  0.3464
 6135TIP3    H139896   2.349   3.698   1.452 -0.7669  0.3456 -0.2874
 6135TIP3    H239897   2.406   3.801   1.548 -0.5334 -0.7632  0.7700
 6136TIP3   OH239898   0.182   3.928  15.048 -0.2422  0.0078 -0.0556
 6136TIP3    H139899   0.215   4.010  15.011  2.8178 -0.3963  1.6578
 6136TIP3    H239900   0.142   3.954  15.131  2.7303 -0.4444  1.5818
 6137TIP3   OH239901   2.597   6.179  14.179  0.5494  0.0075  0.2377
 6137TIP3    H139902   2.647   6.241  14.128  0.7115 -1.1856 -1.0809
 6137TIP3    H239903   2.516   6.225  14.201  0.8628  0.8362 -0.3467
 6138TIP3   OH239904   0.657   4.449  11.367 -0.3727  0.0366  0.1831
 6138TIP3    H139905   0.617   4.380  11.421 -0.4340  0.0937  0.2097
 6138TIP3    H239906   0.638   4.422  11.277  1.3405 -1.0526  0.1089
 6139TIP3   OH239907   3.112   5.998   2.571  0.5838 -0.4322  0.0035
 6139TIP3    H139908   3.047   6.059   2.607 -0.4618 -0.5431 -1.6748
 6139TIP3    H239909   3.145   6.042   2.493 -0.2811 -2.0727 -1.3132
 6140TIP3   OH239910   5.659   2.616   4.050  0.0931  0.2223 -0.0149
 6140TIP3    H139911   5.743   2.658   4.069 -0.0087  0.3849  0.0781
 6140TIP3    H239912   5.676   2.561   3.973 -0.0388  1.2702 -0.8002
 6141TIP3   OH239913   3.774   2.968  15.375 -0.4789  0.5413  0.2544
 6141TIP3    H139914   3.783   3.004  15.286 -0.1130  1.2934  0.5967
 6141TIP3    H239915   3.689   2.999  15.405 -1.0405 -0.5305 -0.2032
 6142TIP3   OH239916   6.349   1.012   4.817 -0.4935 -0.5522 -0.6399
 6142TIP3    H139917   6.256   1.008   4.794 -0.6886 -1.8789  0.3120
 6142TIP3    H239918   6.390   0.948   4.760 -0.2610 -0.4415 -0.5966
 6143TIP3   OH239919   0.058   0.357   4.140 -0.3556 -0.3755  0.8961
 6143TIP3    H139920   0.087   0.442   4.174  1.0579 -0.6127  0.3220
 6143TIP3    H239921   0.125   0.296   4.170 -1.3554 -1.2921  1.2741
 6144TIP3   OH239922   3.857   5.306  15.300  0.1307 -0.3572 -0.7300
 6144TIP3    H139923   3.810   5.382  15.334  0.2442 -0.6222  0.0222
 6144TIP3    H239924   3.789   5.256  15.254 -0.3206 -0.7200  0.3217
 6145TIP3   OH239925   3.724   5.425   4.178 -0.4638 -0.4533 -0.5805
 6145TIP3    H139926   3.646   5.478   4.159  0.5901  0.6906 -1.7561
 6145TIP3    H239927   3.707   5.389   4.265 -1.0346  2.1454  0.4291
 6146TIP3   OH239928   3.799   1.886   5.357  0.5015 -0.3948 -0.3115
 6146TIP3    H139929   3.892   1.903   5.371 -0.1000  2.2796  0.7380
 6146TIP3    H239930   3.757   1.917   5.437 -1.6179  1.6481 -2.1313
 6147TIP3   OH239931   2.737   1.754   0.648 -0.3090 -0.4259 -0.5649
 6147TIP3    H139932   2.694   1.793   0.572 -1.5889 -0.6556  0.0324
 6147TIP3    H239933   2.667   1.709   0.695  0.2333  0.6445  1.3417
 6148TIP3   OH239934   1.932   6.358  14.260 -0.2935 -0.2299  0.4928
 6148TIP3    H139935   1.861   6.421  14.273  0.0610  0.5202 -1.0566
 6148TIP3    H239936   1.929   6.338  14.167 -0.6424 -2.8265  1.0219
 6149TIP3   OH239937   2.234   5.755  15.910  0.0253  0.1044 -0.6182
 6149TIP3    H139938   2.268   5.667  15.898 -0.2891 -0.1432  0.2631
 6149TIP3    H239939   2.211   5.785  15.822  1.9160  0.0333 -1.1482
 6150TIP3   OH239940   0.296   3.859  11.967  0.2792  0.1217  0.7517
 6150TIP3    H139941   0.261   3.804  12.038  0.0050 -1.7668 -0.7983
 6150TIP3    H239942   0.283   3.806  11.888  0.9646  2.0221 -0.6516
 6151TIP3   OH239943   4.447   2.762  13.004  1.4648  0.4843 -0.1280
 6151TIP3    H139944   4.365   2.810  13.020  1.7312  0.8036  0.2753
 6151TIP3    H239945   4.512   2.807  13.058  1.5108 -0.9364  1.0245
 6152TIP3   OH239946   4.306   3.317   1.594  0.0220 -0.2205 -0.2151
 6152TIP3    H139947   4.323   3.393   1.539  0.6473  0.2588  0.6322
 6152TIP3    H239948   4.378   3.257   1.574  0.1520 -0.1193 -0.0530
 6153TIP3   OH239949   3.802   0.144  16.618 -0.0484 -0.0253  0.2142
 6153TIP3    H139950   3.801   0.220  16.676  0.4098  0.6473 -0.6514
 6153TIP3    H239951   3.874   0.161  16.557  0.9522 -1.7882  0.8628
 6154TIP3   OH239952   4.213   2.197  12.176  0.6185  0.4115  0.3480
 6154TIP3    H139953   4.190   2.281  12.137 -1.4411 -0.2631  0.0677
 6154TIP3    H239954   4.301   2.179  12.142  0.6402  1.9182 -0.4584
 6155TIP3   OH239955   0.183   1.834  15.737 -0.0101 -0.3234 -0.0442
 6155TIP3    H139956   0.233   1.883  15.802 -0.3055  1.0046 -0.7939
 6155TIP3    H239957   0.092   1.841  15.766  0.0309 -1.1640  0.3096
 6156TIP3   OH239958   1.359   3.152  14.024  0.0562  0.3542 -0.1728
 6156TIP3    H139959   1.277   3.182  13.984  0.2365  0.3605 -0.5413
 6156TIP3    H239960   1.358   3.190  14.112 -0.1867  0.6136 -0.2861
 6157TIP3   OH239961   4.548   4.385  16.986  0.1856 -0.2547 -0.9487
 6157TIP3    H139962   4.605   4.460  16.971 -1.1755  0.4379 -2.8484
 6157TIP3    H239963   4.589   4.313  16.938  0.5886 -0.3017 -0.5360
 6158TIP3   OH239964   5.012   0.792  14.469 -0.1392 -0.4443 -0.1176
 6158TIP3    H139965   4.955   0.814  14.543  0.0498 -1.0610  0.2217
 6158TIP3    H239966   5.094   0.837  14.488 -0.2105 -0.3121 -0.1268
 6159TIP3   OH239967   1.266   4.267  13.173 -0.0578  0.6595  0.9212
 6159TIP3    H139968   1.283   4.227  13.258  2.9148 -1.5311 -0.6137
 6159TIP3    H239969   1.187   4.224  13.141 -0.5404  0.6878  2.0653
 6160TIP3   OH239970   3.038   3.026   4.054  0.1497 -0.3733 -0.5486
 6160TIP3    H139971   3.079   2.993   3.974 -1.1837  0.0126 -1.4104
 6160TIP3    H239972   2.982   3.098   4.024  0.8450  0.8360  0.9327
 6161TIP3   OH239973   3.341   0.558   2.595 -0.1130  0.1311 -0.8328
 6161TIP3    H139974   3.338   0.621   2.523 -0.5909  1.3264  0.2260
 6161TIP3    H239975   3.434   0.544   2.612  0.1125 -2.4447 -3.6350
 6162TIP3   OH239976   4.284   0.607  15.152 -0.5724 -0.4604 -0.5446
 6162TIP3    H139977   4.273   0.624  15.246 -0.7357  1.4065 -0.8897
 6162TIP3    H239978   4.294   0.512  15.146  0.3608 -0.5124  1.4499
 6163TIP3   OH239979   6.620   1.663   1.086  0.1557 -0.5907 -0.0397
 6163TIP3    H139980   6.659   1.644   1.172  1.3091  0.3829 -0.3413
 6163TIP3    H239981   6.667   1.605   1.026  0.3904 -0.2027 -0.2343
 6164TIP3   OH239982   5.743   0.514  14.203  0.1669  0.3081  0.4345
 6164TIP3    H139983   5.793   0.500  14.123  2.6911  1.1912  1.7720
 6164TIP3    H239984   5.739   0.609  14.212  0.7900  0.2137  1.8435
 6165TIP3   OH239985   4.490   6.089  12.600  0.0236  0.2513 -0.1813
 6165TIP3    H139986   4.456   6.134  12.677 -1.9777  0.7520 -1.3256
 6165TIP3    H239987   4.560   6.033  12.633  0.0061  1.3806  1.8055
 6166TIP3   OH239988   5.039   4.653   5.638 -0.1662 -0.0950 -0.1756
 6166TIP3    H139989   4.970   4.638   5.702 -0.5882 -0.0593 -0.6177
 6166TIP3    H239990   5.095   4.576   5.644  0.0370  0.1009  0.5327
 6167TIP3   OH239991   5.708   2.694   5.818 -0.0917 -0.0644  0.2073
 6167TIP3    H139992   5.729   2.756   5.888  1.4917 -0.8452  0.4373
 6167TIP3    H239993   5.688   2.612   5.864  1.0929 -0.6175 -0.2544
 6168TIP3   OH239994   0.298   5.208  15.211  0.2091  0.0646 -0.3473
 6168TIP3    H139995   0.227   5.270  15.192  0.6288  0.3760 -0.9024
 6168TIP3    H239996   0.287   5.187  15.304 -1.2449 -0.6885 -0.6641
 6169TIP3   OH239997   0.482   4.094   0.154 -0.3010  0.0997  0.3549
 6169TIP3    H139998   0.558   4.141   0.188 -0.2194  1.0348 -1.0966
 6169TIP3    H239999   0.446   4.048   0.230  1.9042 -0.6232  0.9774
 6170TIP3   OH240000   2.202   3.557  11.099 -0.8280 -0.6768 -0.0136
 6170TIP3    H140001   2.164   3.569  11.012  0.9757  0.3880 -0.7065
 6170TIP3    H240002   2.277   3.499  11.085  0.8724  1.3467  0.3889
 6171TIP3   OH240003   1.910   3.344   3.346  0.5138  0.2242 -0.0172
 6171TIP3    H140004   1.830   3.302   3.376 -0.3792  1.7806 -0.1448
 6171TIP3    H240005   1.907   3.336   3.250  0.7666 -0.1714  0.0081
 6172TIP3   OH240006   6.568   1.518   4.934 -0.3886 -0.2024  0.3816
 6172TIP3    H140007   6.524   1.475   4.861 -0.2253 -0.1284  0.2384
 6172TIP3    H240008   6.577   1.450   5.000 -0.1249 -0.3932  0.1519
 6173TIP3   OH240009   1.387   2.571   1.058 -0.0535 -0.3691  0.4596
 6173TIP3    H140010   1.466   2.604   1.016  0.7069 -0.2010  1.9679
 6173TIP3    H240011   1.320   2.635   1.034  0.1731 -0.6893 -1.0970
 6174TIP3   OH240012   2.258   0.615  16.767  0.1079 -0.2275 -0.0394
 6174TIP3    H140013   2.176   0.662  16.785  0.2398 -0.4146  1.0586
 6174TIP3    H240014   2.271   0.558  16.843 -0.4843 -2.6845 -1.7228
 6175TIP3   OH240015   2.096   3.587  16.541 -0.2861 -0.2257 -0.4774
 6175TIP3    H140016   2.073   3.495  16.559  1.2403 -0.4997  0.1622
 6175TIP3    H240017   2.086   3.630  16.626  0.2259 -0.0624 -0.5018
 6176TIP3   OH240018   0.376   1.048  16.259 -0.3726  0.2585  0.5818
 6176TIP3    H140019   0.306   1.103  16.224  0.2258 -0.3453 -1.6454
 6176TIP3    H240020   0.371   0.967  16.209  0.5645 -0.6026  1.8628
 6177TIP3   OH240021   0.590   5.388  14.426  0.1637  0.2612 -0.3426
 6177TIP3    H140022   0.533   5.344  14.362 -1.3814  2.7221 -0.7232
 6177TIP3    H240023   0.649   5.442  14.373 -0.7999  1.9395  0.2539
 6178TIP3   OH240024   1.071   5.181  11.223 -0.6451  0.3471 -0.0715
 6178TIP3    H140025   1.041   5.151  11.137  0.0614 -0.5501 -0.0094
 6178TIP3    H240026   1.062   5.105  11.280 -0.8687  0.8661  0.6059
 6179TIP3   OH240027   5.565   0.241   1.146  0.0831  0.4684  0.5039
 6179TIP3    H140028   5.473   0.261   1.166  0.7256  1.8794  2.0684
 6179TIP3    H240029   5.589   0.174   1.210 -0.0269 -0.3765 -0.3242
 6180TIP3   OH240030   4.781   6.565  15.710 -0.0419  0.0757  0.3047
 6180TIP3    H140031   4.780   6.508  15.633  0.7684 -1.8848  1.6987
 6180TIP3    H240032   4.781   6.654  15.674  0.5532 -0.8021 -1.9561
 6181TIP3   OH240033   6.493   5.508  13.575  0.6600  0.2832 -0.6528
 6181TIP3    H140034   6.481   5.603  13.576 -0.0819  0.1855 -0.1837
 6181TIP3    H240035   6.430   5.476  13.510  0.7351  0.0883 -0.6316
 6182TIP3   OH240036   4.972   0.634  17.129  0.1775  0.0118 -0.0547
 6182TIP3    H140037   5.016   0.684  17.059  1.4763  1.3114  1.6215
 6182TIP3    H240038   5.011   0.547  17.124  0.8459  0.3275 -0.4517
 6183TIP3   OH240039   5.595   4.303  15.116  0.4806 -0.1935 -0.4996
 6183TIP3    H140040   5.654   4.235  15.148  0.3231  0.2247  0.7212
 6183TIP3    H240041   5.561   4.269  15.033  1.9114 -0.7319 -0.8750
 6184TIP3   OH240042   4.819   4.390   0.726  0.6270 -0.0615  0.0848
 6184TIP3    H140043   4.739   4.408   0.776  1.5098 -0.7606  1.7722
 6184TIP3    H240044   4.831   4.469   0.672  0.4246  1.3228  2.0087
 6185TIP3   OH240045   4.426   2.164   5.060 -0.2154 -0.8605  0.4614
 6185TIP3    H140046   4.409   2.250   5.099  0.6585 -0.1772 -0.6258
 6185TIP3    H240047   4.344   2.116   5.071 -0.4763 -0.1484  1.7405
 6186TIP3   OH240048   2.700   1.006  10.857  0.0127 -0.6834 -0.4600
 6186TIP3    H140049   2.658   1.090  10.878 -1.9664 -1.0676 -2.6819
 6186TIP3    H240050   2.791   1.029  10.837 -0.6715  1.0794 -1.7169
 6187TIP3   OH240051   5.118   5.936  11.788  0.3563 -0.0737  0.3490
 6187TIP3    H140052   5.057   6.002  11.756 -0.7945 -0.4966  1.6532
 6187TIP3    H240053   5.097   5.858  11.737  1.6180  0.4919 -1.0880
 6188TIP3   OH240054   4.963   0.279  16.425  0.5253  0.0659  0.1831
 6188TIP3    H140055   4.976   0.243  16.513  1.7458  0.0705  0.0124
 6188TIP3    H240056   4.871   0.264  16.407  0.0829  0.7482  1.7710
 6189TIP3   OH240057   3.086   4.389  10.447  1.2040  1.1550 -0.4799
 6189TIP3    H140058   3.161   4.390  10.388  0.3590 -0.3312 -1.6204
 6189TIP3    H240059   3.085   4.300  10.483  0.6031  1.4818  0.3358
 6190TIP3   OH240060   2.665   2.639   2.784 -0.2307 -0.3497 -0.0573
 6190TIP3    H140061   2.716   2.570   2.826 -0.1922  0.2886  0.9617
 6190TIP3    H240062   2.691   2.635   2.692 -1.2694 -2.5869 -0.2806
 6191TIP3   OH240063   5.991   2.812  11.158 -0.2331 -0.1927 -0.4054
 6191TIP3    H140064   5.936   2.757  11.213  2.0210 -0.5368  1.5561
 6191TIP3    H240065   6.015   2.756  11.084  0.1220 -1.0906  0.3780
 6192TIP3   OH240066   5.819   2.070   3.902 -0.1369  0.6742  0.5479
 6192TIP3    H140067   5.863   2.031   3.826 -1.9096  0.0750 -0.1954
 6192TIP3    H240068   5.889   2.113   3.951  1.6315 -2.0428  0.5270
 6193TIP3   OH240069   1.236   2.460   5.659 -0.3178 -0.3211  0.0152
 6193TIP3    H140070   1.194   2.375   5.653 -1.6533  0.3091  0.1024
 6193TIP3    H240071   1.177   2.511   5.715  0.9694  0.3519  0.7674
 6194TIP3   OH240072   1.339   3.550  10.901 -0.5879 -0.2449 -0.2124
 6194TIP3    H140073   1.420   3.601  10.906 -0.8644  0.0625  1.6816
 6194TIP3    H240074   1.273   3.606  10.941 -1.0348 -1.7742  1.2854
 6195TIP3   OH240075   6.079   0.792  14.027 -0.3569  0.1830  0.4771
 6195TIP3    H140076   6.173   0.784  14.042 -0.5687 -1.8630  0.9090
 6195TIP3    H240077   6.071   0.852  13.954  1.4104 -1.5524 -1.2025
 6196TIP3   OH240078   5.992   1.726  16.505  0.9132  0.2410  1.1334
 6196TIP3    H140079   5.917   1.696  16.557 -0.7055  1.3652 -0.4962
 6196TIP3    H240080   6.002   1.818  16.530 -0.4579  1.0523 -1.1491
 6197TIP3   OH240081   1.915   5.039  16.398  0.0011  0.6573  0.1192
 6197TIP3    H140082   1.912   5.130  16.370 -0.2734 -0.1038 -2.3715
 6197TIP3    H240083   1.859   4.992  16.336 -1.6788 -0.8788  2.6932
 6198TIP3   OH240084   2.262   5.919   0.749  0.2416  0.5955 -0.1854
 6198TIP3    H140085   2.221   5.955   0.670  1.0600  1.3308 -0.2750
 6198TIP3    H240086   2.223   5.832   0.758  0.2833  0.4322 -1.4991
 6199TIP3   OH240087   1.999   1.783  16.820  0.4375  0.0616  0.4426
 6199TIP3    H140088   1.980   1.698  16.781 -0.4013 -0.0838  1.1513
 6199TIP3    H240089   1.983   1.846  16.751  1.6996 -0.3942 -0.2915
 6200TIP3   OH240090   0.760   2.339   0.519 -0.5879 -0.2808  1.0119
 6200TIP3    H140091   0.748   2.309   0.429 -1.6824 -0.2299  1.1393
 6200TIP3    H240092   0.815   2.272   0.559 -0.6591 -0.6527  0.4932
 6201TIP3   OH240093   3.777   2.998   0.077 -0.0045 -0.2871  0.3804
 6201TIP3    H140094   3.701   2.939   0.080 -1.1078  0.8762 -2.8074
 6201TIP3    H240095   3.826   2.970   0.000  2.0769 -0.0822  1.5909
 6202TIP3   OH240096   5.290   1.657   0.496 -0.2972  0.7078 -0.7082
 6202TIP3    H140097   5.332   1.580   0.457 -1.9873 -0.6965  0.1608
 6202TIP3    H240098   5.214   1.674   0.439 -0.0805  1.5634 -0.7404
 6203TIP3   OH240099   0.286   1.508  12.231 -0.2979  0.2591 -0.3662
 6203TIP3    H140100   0.310   1.420  12.205  1.3171  0.0977  1.5410
 6203TIP3    H240101   0.284   1.505  12.326  0.3056  2.3888 -0.2542
 6204TIP3   OH240102   2.742   0.324   0.783  0.2530 -0.1838 -0.1086
 6204TIP3    H140103   2.792   0.246   0.808 -1.0271 -1.0426 -0.1877
 6204TIP3    H240104   2.677   0.291   0.721 -0.9716  0.7834  0.6595
 6205TIP3   OH240105   3.454   4.525   4.162 -0.0473  0.0561 -0.4055
 6205TIP3    H140106   3.426   4.588   4.096 -3.4165  0.5573  1.3460
 6205TIP3    H240107   3.372   4.495   4.202  1.7699 -1.6377  2.2324
 6206TIP3   OH240108   5.584   4.083  14.439  0.7535 -0.3014  0.1449
 6206TIP3    H140109   5.652   4.081  14.506  0.0126 -0.9267  0.8953
 6206TIP3    H240110   5.597   4.003  14.389  1.1329  0.0274 -0.2853
 6207TIP3   OH240111   3.562   3.213   0.043  0.6626  0.2658 -0.5437
 6207TIP3    H140112   3.622   3.168   0.102 -2.2923 -0.9286  1.7079
 6207TIP3    H240113   3.560   3.159  -0.036  1.8665 -0.1535 -0.2832
 6208TIP3   OH240114   6.643   2.958   5.307  0.1769 -0.4807 -0.5883
 6208TIP3    H140115   6.609   3.033   5.258  1.4776  0.6787  0.2441
 6208TIP3    H240116   6.722   2.933   5.260  2.1705  1.4786  1.6036
 6209TIP3   OH240117   1.377   5.833  11.626 -0.0381 -0.5531 -0.6420
 6209TIP3    H140118   1.349   5.744  11.647 -0.6012 -0.3917 -0.7188
 6209TIP3    H240119   1.473   5.829  11.630 -0.0855 -0.9351  0.2917
 6210TIP3   OH240120   6.100   5.829   1.733 -0.1290 -0.0516  0.3113
 6210TIP3    H140121   6.061   5.814   1.819  1.9671 -1.3392  1.0593
 6210TIP3    H240122   6.133   5.919   1.737  0.3260 -0.2529  0.9746
 6211TIP3   OH240123   6.571   3.373  14.898  0.7672 -0.0603 -0.6317
 6211TIP3    H140124   6.517   3.402  14.826  1.4392 -1.6538 -1.8095
 6211TIP3    H240125   6.653   3.421  14.888  1.2939 -1.1600 -1.6336
 6212TIP3   OH240126   1.778   3.699  12.058 -0.2909  0.9068  0.3073
 6212TIP3    H140127   1.836   3.763  12.018  2.3924 -1.9359 -0.5023
 6212TIP3    H240128   1.706   3.689  11.995  0.4783  1.3666 -0.6585
 6213TIP3   OH240129   5.899   2.339   5.019 -0.1113 -0.3679 -0.2522
 6213TIP3    H140130   5.807   2.315   5.007 -0.4633 -0.5753  2.4137
 6213TIP3    H240131   5.947   2.257   5.008 -0.4983 -0.7299  0.6796
 6214TIP3   OH240132   5.844   0.953  13.230  0.0879 -0.0833 -0.4181
 6214TIP3    H140133   5.922   0.952  13.287  0.0679  1.8544 -0.3085
 6214TIP3    H240134   5.873   1.001  13.152 -1.4957  2.3029  0.4088
 6215TIP3   OH240135   6.431   1.698  12.888  0.2090  0.0012  0.0179
 6215TIP3    H140136   6.506   1.668  12.939  1.0147 -0.3629 -1.3665
 6215TIP3    H240137   6.391   1.618  12.854  0.7103  0.3071 -1.3490
 6216TIP3   OH240138   4.175   6.324  17.216 -0.1843  0.6235  0.1958
 6216TIP3    H140139   4.174   6.250  17.155  0.7742  0.7311  0.0465
 6216TIP3    H240140   4.161   6.285  17.302 -3.4093  0.6479 -0.2521
 6217TIP3   OH240141   5.914   0.719  14.987 -0.1622  0.0551  0.4919
 6217TIP3    H140142   5.854   0.644  14.983  0.4839 -0.4718  0.6194
 6217TIP3    H240143   5.866   0.790  14.945 -1.2619 -0.1076  1.4379
 6218TIP3   OH240144   3.483   6.072   1.739  0.1160  0.6130 -0.5085
 6218TIP3    H140145   3.471   6.129   1.663  1.1241  0.6917 -0.6235
 6218TIP3    H240146   3.427   6.110   1.807  1.2153  2.1066 -0.4064
 6219TIP3   OH240147   3.105   6.397  12.009 -0.0403  0.4254  0.4332
 6219TIP3    H140148   3.023   6.346  12.010  0.0812  0.1569 -1.5678
 6219TIP3    H240149   3.107   6.436  11.922  1.7161  0.8492  0.6586
 6220TIP3   OH240150   6.305   2.132   4.823  0.2286 -0.2110  0.2140
 6220TIP3    H140151   6.285   2.124   4.917  2.5818 -0.8504  0.7038
 6220TIP3    H240152   6.259   2.058   4.783  0.4743 -0.8644  1.1007
 6221TIP3   OH240153   2.487   2.311  13.406  0.1876  0.0056 -0.7398
 6221TIP3    H140154   2.523   2.222  13.410 -1.0532 -0.4631  0.5476
 6221TIP3    H240155   2.495   2.344  13.496 -1.3347  0.3861 -0.7241
 6222TIP3   OH240156   2.679   5.655   5.901 -0.5616 -0.0689  0.3441
 6222TIP3    H140157   2.716   5.575   5.938  0.0666  1.0526  2.2298
 6222TIP3    H240158   2.749   5.720   5.911 -2.3123  1.6001  2.1428
 6223TIP3   OH240159   3.513   3.618   5.650  0.1724 -0.3086 -0.0410
 6223TIP3    H140160   3.509   3.674   5.728  2.0015  2.0966 -1.6166
 6223TIP3    H240161   3.445   3.653   5.592  0.2319 -0.7728 -0.3928
 6224TIP3   OH240162   3.541   4.992   5.308 -0.0565  0.3041  0.6692
 6224TIP3    H140163   3.548   5.056   5.237 -2.5838 -0.0971  0.0128
 6224TIP3    H240164   3.572   5.038   5.386 -1.2302  2.1217  0.0730
 6225TIP3   OH240165   5.570   4.316  14.301  0.2349 -0.2731 -0.1499
 6225TIP3    H140166   5.574   4.234  14.351  0.7149 -0.7427 -0.9378
 6225TIP3    H240167   5.558   4.287  14.210 -0.8585  0.5717 -0.2743
 6226TIP3   OH240168   6.301   6.670   0.916 -0.1228  0.4119  0.6490
 6226TIP3    H140169   6.271   6.711   0.997  0.3594 -1.3414  1.7472
 6226TIP3    H240170   6.355   6.596   0.945 -2.8308 -2.4443 -1.1813
 6227TIP3   OH240171   0.591   5.264   1.166 -0.2582  0.2930 -0.0427
 6227TIP3    H140172   0.563   5.303   1.249  0.8722 -2.0597  1.4886
 6227TIP3    H240173   0.604   5.172   1.186  2.3771  0.1396 -2.2561
 6228TIP3   OH240174   2.002   3.932  12.212 -0.4944  0.7300 -0.6043
 6228TIP3    H140175   1.949   3.921  12.290  0.6736  1.1269  0.2601
 6228TIP3    H240176   1.939   3.929  12.140 -1.4264 -0.9090  0.2473
 6229TIP3   OH240177   6.173   2.401  16.936  0.4447  0.0418 -0.6373
 6229TIP3    H140178   6.191   2.311  16.963  1.4823 -0.0855 -1.7154
 6229TIP3    H240179   6.203   2.455  17.009 -1.8258 -0.5579  0.7911
 6230TIP3   OH240180   4.782   0.242  14.672  0.0024 -0.3011 -0.1914
 6230TIP3    H140181   4.813   0.232  14.762  0.2813 -0.3975 -0.2935
 6230TIP3    H240182   4.694   0.277  14.680 -0.1938 -0.8590  0.1346
 6231TIP3   OH240183   3.930   5.104  13.748 -0.1947 -0.3158 -0.4498
 6231TIP3    H140184   3.987   5.171  13.708 -0.8667  0.1580 -0.6121
 6231TIP3    H240185   3.871   5.078  13.678  0.8858 -2.0056 -0.7513
 6232TIP3   OH240186   0.597   0.400   2.000 -0.1766  0.5570 -0.2077
 6232TIP3    H140187   0.537   0.358   1.938 -0.7325  1.1815 -0.0945
 6232TIP3    H240188   0.550   0.400   2.083  0.5662 -0.2677  0.2206
 6233TIP3   OH240189   5.318   0.935   0.113  0.1664 -0.2134 -0.1608
 6233TIP3    H140190   5.235   0.914   0.070  0.0285 -1.0919  0.5049
 6233TIP3    H240191   5.297   1.007   0.173 -0.2139 -0.7223  0.3203
 6234TIP3   OH240192   3.362   2.310  14.580  0.1373  0.5224 -0.1001
 6234TIP3    H140193   3.397   2.398  14.595 -0.3976  0.7504 -0.1798
 6234TIP3    H240194   3.383   2.292  14.488  0.9621  0.2354  0.1364
 6235TIP3   OH240195   4.557   3.311  15.414 -0.5495  0.7081  0.2763
 6235TIP3    H140196   4.540   3.226  15.372 -0.1343  1.3592 -1.2406
 6235TIP3    H240197   4.493   3.371  15.374 -0.5353  1.2195  1.0074
 6236TIP3   OH240198   1.075   6.640  14.784  0.1693 -0.2740  0.6235
 6236TIP3    H140199   1.068   6.564  14.727  2.7734  0.3895 -0.6623
 6236TIP3    H240200   1.109   6.605  14.867  2.2485 -0.4326 -0.2622
 6237TIP3   OH240201   4.270   1.350   2.575 -0.2788 -0.5261  0.3071
 6237TIP3    H140202   4.230   1.299   2.504 -0.8444 -0.9148  0.8955
 6237TIP3    H240203   4.197   1.368   2.634 -0.0881  1.0138  0.0781
 6238TIP3   OH240204   5.696   6.183   2.185 -0.0695 -0.4662  0.1341
 6238TIP3    H140205   5.780   6.226   2.172  0.3146 -0.8261  1.3194
 6238TIP3    H240206   5.635   6.231   2.129  0.9808 -0.3934 -0.9558
 6239TIP3   OH240207   3.418   0.893  14.344 -0.4865  0.1745  0.5472
 6239TIP3    H140208   3.361   0.831  14.299  0.9481 -0.6025 -0.2410
 6239TIP3    H240209   3.469   0.840  14.404 -1.6796  1.0761  2.4062
 6240TIP3   OH240210   5.774   2.470   0.771 -0.5002 -0.3045  0.1646
 6240TIP3    H140211   5.750   2.389   0.815 -2.1946 -0.3848 -0.8511
 6240TIP3    H240212   5.692   2.519   0.766  0.2650  0.9541 -0.2966
 6241TIP3   OH240213   3.321   2.574   1.122 -0.6666 -0.5199  0.4890
 6241TIP3    H140214   3.384   2.643   1.139 -1.7589  0.3558  1.0515
 6241TIP3    H240215   3.273   2.564   1.205 -0.8895 -1.5514  0.2429
 6242TIP3   OH240216   5.263   6.737   1.835  0.1029 -0.5423  0.3378
 6242TIP3    H140217   5.189   6.678   1.848 -0.2791  0.0644  0.9831
 6242TIP3    H240218   5.253   6.803   1.904  1.4371 -0.6440  0.6393
 6243TIP3   OH240219   3.120   1.403  15.759 -0.0801 -0.4642  0.3480
 6243TIP3    H140220   3.166   1.443  15.833 -0.9875 -1.9389  1.7192
 6243TIP3    H240221   3.028   1.404  15.784 -0.4318 -0.7110 -0.8952
 6244TIP3   OH240222   5.666   2.393  16.344 -0.2754 -0.3386 -0.1785
 6244TIP3    H140223   5.704   2.386  16.432  0.2907 -0.0930 -0.3958
 6244TIP3    H240224   5.663   2.302  16.312 -0.1508 -0.3923 -0.0392
 6245TIP3   OH240225   2.038   3.855   1.630 -0.4575  0.5650 -0.1486
 6245TIP3    H140226   2.017   3.907   1.553 -3.1126 -0.3437 -0.0839
 6245TIP3    H240227   2.067   3.770   1.595 -0.7544  0.4765 -0.1860
 6246TIP3   OH240228   0.661   0.957  12.135  0.8216  0.6169 -0.3690
 6246TIP3    H140229   0.577   0.958  12.183  1.3853 -0.8475  0.6887
 6246TIP3    H240230   0.636   0.965  12.043 -0.3982  1.5369  0.0190
 6247TIP3   OH240231   6.092   4.747  12.911 -0.0346  0.2886  0.1333
 6247TIP3    H140232   6.131   4.762  12.998  0.9560  2.0404 -0.5868
 6247TIP3    H240233   5.998   4.736  12.929  0.2141  0.2512  1.4703
 6248TIP3   OH240234   6.083   2.977   1.592 -0.1586  0.0767  0.1929
 6248TIP3    H140235   6.038   2.912   1.646  2.5341 -0.8787  1.3882
 6248TIP3    H240236   6.098   3.051   1.652 -0.3077  0.4691 -0.2499
 6249TIP3   OH240237   3.787   3.659   4.880  0.2314 -0.6102  0.7123
 6249TIP3    H140238   3.820   3.686   4.966  0.0643 -1.0393  0.9071
 6249TIP3    H240239   3.725   3.589   4.898 -1.4788  0.7966  0.4236
 6250TIP3   OH240240   2.443   2.519  15.667 -0.1057 -0.7602 -0.0607
 6250TIP3    H140241   2.521   2.573  15.652  1.0063 -2.5505 -0.9103
 6250TIP3    H240242   2.468   2.432  15.637 -1.7396 -1.8536  1.6468
 6251TIP3   OH240243   1.803   3.815   2.574 -0.5825 -0.9808  0.4385
 6251TIP3    H140244   1.782   3.729   2.539  1.0620 -1.9835  1.8525
 6251TIP3    H240245   1.847   3.860   2.502 -3.7893 -0.3232 -1.1853
 6252TIP3   OH240246   4.828   3.606  11.630  0.2339  0.5066 -0.1040
 6252TIP3    H140247   4.805   3.681  11.685 -0.8165 -0.1125  0.3039
 6252TIP3    H240248   4.759   3.542  11.647  2.0019 -1.1976  0.7962
 6253TIP3   OH240249   4.188   4.324   1.680  0.3032  0.4012  0.1660
 6253TIP3    H140250   4.256   4.368   1.627 -0.0368 -0.0252 -0.6297
 6253TIP3    H240251   4.222   4.236   1.694  1.0473  0.9443  1.8815
 6254TIP3   OH240252   4.977   0.296   4.283  0.3352  0.4206  0.2546
 6254TIP3    H140253   5.021   0.340   4.354 -0.4154  0.5648  0.6394
 6254TIP3    H240254   5.035   0.224   4.259  1.4464  1.4724 -0.2215
 6255TIP3   OH240255   0.608   5.245   4.306 -0.2201 -0.3596 -0.3879
 6255TIP3    H140256   0.703   5.256   4.305 -0.3834  1.3592  0.6791
 6255TIP3    H240257   0.585   5.237   4.213  1.0176 -1.3180 -0.6242
 6256TIP3   OH240258   1.788   2.918  14.378 -0.4193 -0.0051  0.5148
 6256TIP3    H140259   1.869   2.961  14.407 -0.7552 -0.3922  2.0944
 6256TIP3    H240260   1.770   2.955  14.292  0.2518  1.7167  1.0944
 6257TIP3   OH240261   3.034   1.513   1.064 -0.3464  0.0101  0.0936
 6257TIP3    H140262   3.044   1.605   1.037 -1.8532  0.1043 -0.2364
 6257TIP3    H240263   2.957   1.483   1.015 -0.2760 -1.2228  0.7274
 6258TIP3   OH240264   6.245   6.251   2.391  0.0740 -0.2989  0.4904
 6258TIP3    H140265   6.261   6.293   2.306  3.3368 -1.4362  0.4784
 6258TIP3    H240266   6.299   6.172   2.389 -2.8082 -2.4175  2.1383
 6259TIP3   OH240267   3.782   1.283  12.665  0.5421  0.4486  0.3670
 6259TIP3    H140268   3.866   1.240  12.651 -0.3118 -1.1660  0.1417
 6259TIP3    H240269   3.754   1.254  12.752  0.0669  0.7359  0.3118
 6260TIP3   OH240270   3.928   1.996   2.518 -0.9757  0.2778 -0.0059
 6260TIP3    H140271   3.881   1.913   2.524 -0.0592 -0.2127  0.3693
 6260TIP3    H240272   3.860   2.062   2.532 -1.8503 -0.3725 -1.0524
 6261TIP3   OH240273   4.559   3.781   6.249  0.0387 -0.2547  0.0990
 6261TIP3    H140274   4.613   3.815   6.320  0.0890 -2.0198  0.9390
 6261TIP3    H240275   4.567   3.686   6.257 -3.0141 -0.5539  0.1245
 6262TIP3   OH240276   3.119   5.879   6.136  0.0153  0.0827  0.2945
 6262TIP3    H140277   3.180   5.907   6.204 -0.8413  2.9737 -0.0719
 6262TIP3    H240278   3.169   5.886   6.054  0.4923 -1.7286  0.3888
 6263TIP3   OH240279   0.060   4.284  10.314  0.1460  0.4499 -0.0127
 6263TIP3    H140280   0.086   4.224  10.245  1.3938 -0.1149  0.9197
 6263TIP3    H240281   0.133   4.346  10.320 -0.8442  1.7130 -0.5468
 6264TIP3   OH240282   5.322   0.957   2.711  0.0230 -0.0166 -0.3835
 6264TIP3    H140283   5.409   0.979   2.745 -0.4787  0.1068  0.8549
 6264TIP3    H240284   5.316   1.004   2.628  0.5772  1.1554  0.2331
 6265TIP3   OH240285   3.953   4.141   0.448  0.1210  0.5452 -0.2964
 6265TIP3    H140286   3.905   4.132   0.366  1.2280 -0.8943 -0.8171
 6265TIP3    H240287   3.899   4.095   0.512 -0.1839  0.6909 -0.4457
 6266TIP3   OH240288   4.855   5.933  11.188 -0.3280 -0.1406  0.1738
 6266TIP3    H140289   4.874   5.926  11.095 -0.1332  1.4186  0.0763
 6266TIP3    H240290   4.780   5.993  11.192 -1.1467 -1.1951  0.9443
 6267TIP3   OH240291   3.149   3.804   3.294 -0.9303  0.3519  0.0076
 6267TIP3    H140292   3.217   3.781   3.357 -2.4902 -0.3681  1.4771
 6267TIP3    H240293   3.196   3.829   3.215  0.9874 -2.6947  0.1096
 6268TIP3   OH240294   4.367   6.569  16.670 -0.6847 -0.6571  0.3807
 6268TIP3    H140295   4.344   6.479  16.645  0.3554 -1.4084  2.0144
 6268TIP3    H240296   4.328   6.580  16.757 -2.1904  1.0548 -0.4865
 6269TIP3   OH240297   3.060   6.736  16.689  0.4760  0.1115 -0.2649
 6269TIP3    H140298   2.965   6.733  16.684  0.5998 -0.7956 -3.0818
 6269TIP3    H240299   3.081   6.829  16.699 -0.6625  0.5093 -1.4786
 6270TIP3   OH240300   6.630   3.045  16.354 -0.1086 -0.0653 -0.4399
 6270TIP3    H140301   6.610   2.953  16.374  2.2962 -0.8546 -1.5317
 6270TIP3    H240302   6.691   3.072  16.423  1.6001 -0.2392 -1.8705
 6271TIP3   OH240303   6.478   2.106  13.615 -0.2712 -0.2303  0.1694
 6271TIP3    H140304   6.540   2.052  13.565  0.8890 -1.1321  2.4916
 6271TIP3    H240305   6.527   2.185  13.637 -0.9039  0.3352 -0.4535
 6272TIP3   OH240306   3.583   3.899   0.821 -0.0757  0.1511  0.2888
 6272TIP3    H140307   3.515   3.966   0.819 -1.2162 -1.0138 -1.8132
 6272TIP3    H240308   3.537   3.818   0.798  1.6026 -1.0490  1.0639
 6273TIP3   OH240309   3.328   4.527   3.287 -0.2057 -0.1882 -0.1582
 6273TIP3    H140310   3.265   4.598   3.272 -0.2047 -0.1115  0.1925
 6273TIP3    H240311   3.395   4.540   3.220  0.7605  1.2706  1.0451
 6274TIP3   OH240312   2.080   3.705  14.764 -0.3614 -0.3640 -0.3915
 6274TIP3    H140313   1.994   3.700  14.721 -1.3060  0.3218  1.3272
 6274TIP3    H240314   2.140   3.736  14.697 -2.1671  2.5466 -0.7278
 6275TIP3   OH240315   3.164   0.361  13.451  0.2983  0.0796  0.2938
 6275TIP3    H140316   3.103   0.328  13.516  0.3196 -1.5498 -0.4870
 6275TIP3    H240317   3.171   0.291  13.386  2.0136  0.7412 -0.2850
 6276TIP3   OH240318   5.438   5.565   4.915  0.5048  0.1868  0.2712
 6276TIP3    H140319   5.436   5.645   4.863 -0.7063 -1.9630 -3.1589
 6276TIP3    H240320   5.371   5.579   4.982  0.2806  2.0461 -0.2947
 6277TIP3   OH240321   3.112   2.457  13.551  0.0756  0.0142  0.5156
 6277TIP3    H140322   3.171   2.468  13.625 -1.1723  2.5162  1.1807
 6277TIP3    H240323   3.135   2.528  13.491 -0.1920 -0.8633 -0.6457
 6278TIP3   OH240324   0.292   2.810   5.078 -0.5831 -0.5371 -0.1680
 6278TIP3    H140325   0.381   2.786   5.106 -0.0059  0.6586 -0.9623
 6278TIP3    H240326   0.299   2.822   4.983 -0.8660  2.6620  0.1732
 6279TIP3   OH240327   2.539   3.582  10.902  0.5278 -0.4613 -0.4978
 6279TIP3    H140328   2.510   3.500  10.942  1.1735 -1.0288 -1.1869
 6279TIP3    H240329   2.552   3.561  10.810 -1.6871  1.0133 -1.2034
 6280TIP3   OH240330   4.909   2.070  13.214  0.2489  0.1561 -0.5892
 6280TIP3    H140331   4.918   2.116  13.130  2.2368 -1.3846 -1.2813
 6280TIP3    H240332   4.999   2.063  13.246 -0.2516 -1.3667  0.5242
 6281TIP3   OH240333   5.951   1.256   6.047 -0.6514 -0.0746 -0.0023
 6281TIP3    H140334   5.858   1.239   6.065 -0.2786 -0.9138  1.1581
 6281TIP3    H240335   5.988   1.281   6.132  0.5097 -1.2775 -0.1330
 6282TIP3   OH240336   2.461   1.997   6.100  0.2126  0.0862  0.4208
 6282TIP3    H140337   2.479   1.958   6.014 -2.0187  0.5484 -0.2891
 6282TIP3    H240338   2.463   1.923   6.161 -0.1617 -0.5519 -0.3321
 6283TIP3   OH240339   2.364   6.414   6.599  0.0715  0.2520 -0.5827
 6283TIP3    H140340   2.430   6.472   6.561 -1.0758  0.8875 -1.6703
 6283TIP3    H240341   2.293   6.473   6.625 -0.6255 -0.5522 -0.6415
 6284TIP3   OH240342   2.818   5.761  14.692  0.4927  0.4869 -0.1142
 6284TIP3    H140343   2.802   5.765  14.787 -1.0591  0.9932 -0.3836
 6284TIP3    H240344   2.906   5.798  14.682  1.6522 -1.7592  1.3539
 6285TIP3   OH240345   4.785   3.125  17.209 -0.0534 -0.5455  0.7629
 6285TIP3    H140346   4.726   3.049  17.217 -0.6080 -0.3735 -1.4199
 6285TIP3    H240347   4.782   3.166  17.295 -2.9171 -0.7145  0.7846
 6286TIP3   OH240348   1.950   6.633   6.337  0.0882 -0.1262  0.3317
 6286TIP3    H140349   1.902   6.580   6.400  0.6031 -0.0096  0.8223
 6286TIP3    H240350   2.006   6.570   6.291 -2.9111 -0.8662 -2.5975
 6287TIP3   OH240351   5.353   6.114   1.599 -0.0974 -0.3158  0.2054
 6287TIP3    H140352   5.294   6.150   1.666  0.1657 -0.5897  0.5819
 6287TIP3    H240353   5.440   6.123   1.636 -0.2030 -3.4613  1.2836
 6288TIP3   OH240354   4.654   5.750  12.922 -0.0247 -0.0997  0.7761
 6288TIP3    H140355   4.658   5.722  13.013  1.5720  1.4109  1.2225
 6288TIP3    H240356   4.745   5.751  12.893 -0.4024  0.6436 -0.4532
 6289TIP3   OH240357   0.496   1.354   2.144  0.0081 -0.0957  0.1057
 6289TIP3    H140358   0.421   1.314   2.188 -0.0165 -0.5150 -0.3138
 6289TIP3    H240359   0.570   1.297   2.167  0.5026  1.2160  1.8426
 6290TIP3   OH240360   1.570   5.379  14.040 -0.3053  0.1666 -0.9720
 6290TIP3    H140361   1.514   5.433  14.097 -0.8007 -0.2098 -1.1011
 6290TIP3    H240362   1.653   5.374  14.086 -0.3675  0.7615 -0.7910
 6291TIP3   OH240363   2.781   4.596  10.841  0.0790 -0.2515  0.0162
 6291TIP3    H140364   2.736   4.593  10.757  0.9442 -1.2484 -0.4169
 6291TIP3    H240365   2.712   4.582  10.906 -0.6930  1.1195 -0.4779
 6292TIP3   OH240366   4.454   0.575  15.785  0.0099  1.0388 -0.5517
 6292TIP3    H140367   4.419   0.516  15.718 -0.2023  0.9352 -0.3517
 6292TIP3    H240368   4.396   0.651  15.782  0.2407  1.2035 -0.7597
 6293TIP3   OH240369   2.039   2.496  13.103  0.0947  0.3646 -0.3676
 6293TIP3    H140370   2.090   2.464  13.177  0.8049  0.8813 -0.6279
 6293TIP3    H240371   2.104   2.523  13.038 -0.5079  0.7521 -0.8233
 6294TIP3   OH240372   5.073   1.753  14.835 -0.4106 -0.0390 -0.2564
 6294TIP3    H140373   5.042   1.769  14.924 -0.1476 -1.3739  0.0824
 6294TIP3    H240374   5.143   1.817  14.822  0.0152 -0.3109  0.7351
 6295TIP3   OH240375   6.324   2.634   6.634  0.3580  0.8825 -0.5358
 6295TIP3    H140376   6.340   2.558   6.691  1.8468  1.0336 -0.7366
 6295TIP3    H240377   6.336   2.602   6.545  0.3588  1.2051 -0.6551
 6296TIP3   OH240378   0.280   6.264   4.772  0.7890 -0.1153 -0.2049
 6296TIP3    H140379   0.221   6.190   4.785 -0.2420  0.4580 -1.5655
 6296TIP3    H240380   0.264   6.293   4.682  1.0450  1.8710  0.3576
 6297TIP3   OH240381   1.742   2.006  17.099  0.0036  0.5223 -0.2536
 6297TIP3    H140382   1.707   2.002  17.188  1.5569 -3.5656  0.3014
 6297TIP3    H240383   1.813   2.070  17.104  1.5851 -1.3248  2.0995
 6298TIP3   OH240384   1.283   5.111   5.538 -0.8674 -0.1964  0.2132
 6298TIP3    H140385   1.268   5.076   5.451 -0.9592 -1.4429  0.7251
 6298TIP3    H240386   1.375   5.091   5.556  0.0631  2.8722 -0.8551
 6299TIP3   OH240387   0.980   3.006   3.787 -0.0781  0.0646 -0.4027
 6299TIP3    H140388   0.981   2.911   3.777 -0.4223  0.1051 -0.8172
 6299TIP3    H240389   0.906   3.024   3.844  0.7695 -0.0166  0.7406
 6300TIP3   OH240390   2.148   0.876   4.512 -0.1743 -0.0724  0.3432
 6300TIP3    H140391   2.140   0.971   4.516 -0.1818 -0.1016  1.1961
 6300TIP3    H240392   2.222   0.856   4.569  0.3937 -0.5105 -0.5342
 6301TIP3   OH240393   0.556   2.811   2.781 -0.4236 -0.4507 -0.3090
 6301TIP3    H140394   0.531   2.726   2.744  0.4676 -0.5957 -0.5783
 6301TIP3    H240395   0.561   2.795   2.875 -0.8766 -0.5414 -0.3010
 6302TIP3   OH240396   0.404   5.749  15.645  0.3032  0.1676 -0.5434
 6302TIP3    H140397   0.328   5.788  15.601  1.5003 -0.2673 -3.0904
 6302TIP3    H240398   0.428   5.675  15.590 -0.0858 -2.4453  2.6329
 6303TIP3   OH240399   3.815   2.741   0.867  0.1055 -0.2841  0.4095
 6303TIP3    H140400   3.849   2.657   0.836  1.2790  0.1594  0.4615
 6303TIP3    H240401   3.856   2.752   0.953 -0.4330  0.1091  0.6116
 6304TIP3   OH240402   3.714   1.774  14.668 -0.0751  0.0019  0.2312
 6304TIP3    H140403   3.658   1.725  14.607 -0.7851  0.9639  0.1009
 6304TIP3    H240404   3.788   1.716  14.684 -1.7736 -1.8892  1.4703
 6305TIP3   OH240405   6.367   3.757   0.585  0.1082  0.3341 -0.0730
 6305TIP3    H140406   6.282   3.760   0.628  0.7971  0.5550  1.2917
 6305TIP3    H240407   6.349   3.787   0.495 -1.5022 -1.0629 -0.2472
 6306TIP3   OH240408   2.018   5.158   2.771 -0.3344  0.1664  0.3473
 6306TIP3    H140409   1.995   5.246   2.741 -0.3500  1.2375  3.3180
 6306TIP3    H240410   2.099   5.170   2.820  0.5178 -1.7539 -0.5389
 6307TIP3   OH240411   1.454   6.572  12.115  0.3947 -0.4134  0.5657
 6307TIP3    H140412   1.495   6.503  12.063 -0.2183  0.9819 -1.8632
 6307TIP3    H240413   1.511   6.648  12.104 -0.4712  0.2883  0.8341
 6308TIP3   OH240414   4.596   2.987  14.917  0.5997  0.4227 -0.1722
 6308TIP3    H140415   4.655   2.983  14.841 -0.0858 -0.6085 -0.6629
 6308TIP3    H240416   4.543   3.065  14.903  1.0076  0.6639 -0.3650
 6309TIP3   OH240417   5.108   0.463  11.793  0.4481 -0.3464  0.6194
 6309TIP3    H140418   5.073   0.542  11.752  1.5696 -0.2653 -0.2202
 6309TIP3    H240419   5.042   0.438  11.857 -0.6557  0.3799 -0.2043
 6310TIP3   OH240420   1.469   2.003  11.022  0.1704  0.1977 -0.1771
 6310TIP3    H140421   1.563   1.990  11.030  0.0035 -0.0555  1.5100
 6310TIP3    H240422   1.459   2.062  10.947  1.7753  1.8391  0.8683
 6311TIP3   OH240423   4.049   6.778  10.923 -0.6275  0.5944  0.6351
 6311TIP3    H140424   4.047   6.844  10.853  0.0090 -0.7360 -0.6554
 6311TIP3    H240425   4.065   6.829  11.003  1.1629  1.8856 -0.5017
 6312TIP3   OH240426   2.358   3.726  16.479  0.0010 -0.1069  0.1127
 6312TIP3    H140427   2.414   3.680  16.542  0.1039  0.6627  0.5823
 6312TIP3    H240428   2.269   3.700  16.503  0.0237  0.3906  0.7438
 6313TIP3   OH240429   5.625   1.064  10.707  0.0039  0.4631  1.7090
 6313TIP3    H140430   5.612   0.998  10.638 -1.0485 -0.4454  2.7512
 6313TIP3    H240431   5.536   1.088  10.733  0.3656  2.9336  0.7715
 6314TIP3   OH240432   1.522   1.356   5.669  0.4944  0.2497  0.0148
 6314TIP3    H140433   1.550   1.440   5.705 -1.5284  1.0636 -0.2396
 6314TIP3    H240434   1.517   1.298   5.745  2.7153  0.0893  0.0767
 6315TIP3   OH240435   4.325   3.227   4.359 -0.1140 -0.5028 -0.4671
 6315TIP3    H140436   4.247   3.265   4.320  0.4434 -0.9249 -2.0428
 6315TIP3    H240437   4.344   3.282   4.434 -1.0765  0.4794 -0.9338
 6316TIP3   OH240438   6.237   2.753  14.413 -0.0411 -0.2705 -1.1054
 6316TIP3    H140439   6.148   2.783  14.431 -0.0230 -1.9838  2.1494
 6316TIP3    H240440   6.293   2.827  14.438 -0.3874 -0.3700 -0.0025
 6317TIP3   OH240441   4.100   5.448  15.009 -0.5850  0.3144  0.0641
 6317TIP3    H140442   4.122   5.515  14.944  1.8507 -0.9344 -0.4586
 6317TIP3    H240443   4.159   5.466  15.083 -0.1733 -1.0216  0.0629
 6318TIP3   OH240444   2.989   5.717   5.396  0.4688 -0.1245  0.1702
 6318TIP3    H140445   2.989   5.691   5.304  0.1466 -0.3314  0.2280
 6318TIP3    H240446   2.938   5.798   5.398  0.4221 -0.1548  0.1796
 6319TIP3   OH240447   2.987   5.515  13.655 -0.7266  0.1146 -0.6282
 6319TIP3    H140448   2.955   5.502  13.566 -1.2566  0.3106 -0.4682
 6319TIP3    H240449   2.969   5.432  13.700 -1.8886  0.5439 -0.2761
 6320TIP3   OH240450   2.140   1.899   2.045  0.0826 -0.3409 -0.1495
 6320TIP3    H140451   2.066   1.838   2.049  1.1193 -1.6264 -0.4776
 6320TIP3    H240452   2.194   1.875   2.121  0.5949  0.0386 -0.3973
 6321TIP3   OH240453   3.694   5.458   1.393  0.0978 -0.1374  0.1336
 6321TIP3    H140454   3.634   5.472   1.467  0.2046 -0.1635  0.2247
 6321TIP3    H240455   3.683   5.536   1.338  2.0469  1.1827  1.5715
 6322TIP3   OH240456   4.425   1.098   3.572 -0.5618  0.2621  0.1616
 6322TIP3    H140457   4.459   1.187   3.570  0.1330  0.0190  0.8753
 6322TIP3    H240458   4.494   1.045   3.532  0.0192 -0.2693  1.8305
 6323TIP3   OH240459   2.889   1.248   5.905  0.4438  0.7523 -0.2345
 6323TIP3    H140460   2.808   1.211   5.870  1.2369 -1.0514 -0.2235
 6323TIP3    H240461   2.901   1.329   5.856 -0.5498  0.2462 -1.3512
 6324TIP3   OH240462   3.930   0.895   1.471  0.8178 -0.2357  0.4471
 6324TIP3    H140463   3.844   0.876   1.509  0.2525  0.4424 -0.4759
 6324TIP3    H240464   3.979   0.813   1.481 -0.5295 -1.2125 -0.6127
 6325TIP3   OH240465   4.440   3.147  11.567  0.6907  0.3629 -0.4552
 6325TIP3    H140466   4.453   3.119  11.476 -0.1505  1.5935 -0.9731
 6325TIP3    H240467   4.376   3.218  11.561  1.7584  1.4809  0.9361
 6326TIP3   OH240468   1.279   3.648  13.561  0.2790 -0.2416 -0.6120
 6326TIP3    H140469   1.193   3.688  13.577  0.1568 -0.1029 -1.6036
 6326TIP3    H240470   1.271   3.559  13.597  0.1010  0.1424  0.3340
 6327TIP3   OH240471   2.906   3.785  14.477 -0.1427  0.0382 -0.3123
 6327TIP3    H140472   3.001   3.780  14.491 -0.3377 -1.0329  0.6707
 6327TIP3    H240473   2.868   3.742  14.553 -1.4734  1.7431  0.0083
 6328TIP3   OH240474   3.792   5.820  15.957  0.2095 -0.3410 -0.0009
 6328TIP3    H140475   3.702   5.827  15.989  0.5223  1.8254  0.4430
 6328TIP3    H240476   3.783   5.821  15.862 -0.1412  1.2427  0.0420
 6329TIP3   OH240477   2.512   5.364  13.128  0.4217 -0.0027 -0.1909
 6329TIP3    H140478   2.451   5.301  13.088  2.0035 -0.4961 -1.8977
 6329TIP3    H240479   2.457   5.439  13.151 -1.1388 -1.1551 -0.0386
 6330TIP3   OH240480   3.468   5.189  16.521  0.0757 -0.0358  0.0553
 6330TIP3    H140481   3.466   5.239  16.602  0.1039  1.0537 -0.6172
 6330TIP3    H240482   3.408   5.235  16.462  0.0471 -0.8260 -0.5443
 6331TIP3   OH240483   5.675   3.094  14.650  0.0164  0.1723  0.2710
 6331TIP3    H140484   5.661   3.014  14.598 -0.0748  0.5818 -0.3379
 6331TIP3    H240485   5.698   3.062  14.737  0.2796 -0.5275 -0.0504
 6332TIP3   OH240486   3.405   4.748  16.783  0.0332  0.2671 -0.1123
 6332TIP3    H140487   3.397   4.789  16.697  0.1175 -0.3138 -0.4024
 6332TIP3    H240488   3.393   4.655  16.766 -1.9483  0.3463  0.8010
 6333TIP3   OH240489   2.243   2.201  13.339  0.3458  0.3732  0.2976
 6333TIP3    H140490   2.309   2.252  13.386  2.3899 -0.5780 -1.4835
 6333TIP3    H240491   2.241   2.117  13.384  1.5221 -0.1564 -0.6164
 6334TIP3   OH240492   0.194   0.244  12.408  0.1901 -0.1655  0.3002
 6334TIP3    H140493   0.278   0.208  12.378 -0.1257 -0.0186 -0.7694
 6334TIP3    H240494   0.142   0.254  12.329 -0.9103 -0.4044  0.9779
 6335TIP3   OH240495   1.193   6.616   2.114 -0.0313  0.0692 -0.3366
 6335TIP3    H140496   1.183   6.704   2.077 -0.3494  0.2869  0.2719
 6335TIP3    H240497   1.287   6.597   2.105  0.0824  0.5734 -0.2379
 6336TIP3   OH240498   1.142   4.280   3.188 -0.5838  0.4603 -0.5413
 6336TIP3    H140499   1.061   4.230   3.180 -1.5455  1.6774  1.1180
 6336TIP3    H240500   1.211   4.215   3.194 -1.5300 -0.6090 -1.1690
 6337TIP3   OH240501   0.295   1.422   0.324  0.1203  0.3546  0.0706
 6337TIP3    H140502   0.339   1.380   0.250  1.9625 -1.4533  2.1126
 6337TIP3    H240503   0.230   1.358   0.353 -1.4423  1.5616 -0.7028
 6338TIP3   OH240504   2.744   2.106   3.071 -0.2196 -0.1172 -0.1149
 6338TIP3    H140505   2.760   2.018   3.106  0.7372  0.0795 -0.0289
 6338TIP3    H240506   2.695   2.092   2.991  0.2185 -0.7517 -0.2727
 6339TIP3   OH240507   2.749   1.354   1.248  0.3268  0.1584  0.2130
 6339TIP3    H140508   2.839   1.342   1.279  0.9050  0.1102 -1.4194
 6339TIP3    H240509   2.748   1.442   1.210  0.1499 -0.4436 -1.2332
 6340TIP3   OH240510   2.884   0.271   5.065 -0.5148  0.0089  0.2446
 6340TIP3    H140511   2.839   0.209   5.122 -0.0416  1.5885  2.3952
 6340TIP3    H240512   2.813   0.315   5.018 -1.1573  1.0364  2.1030
 6341TIP3   OH240513   6.574   3.487  16.573 -0.0679 -0.5200 -0.3071
 6341TIP3    H140514   6.641   3.552  16.553  0.5655 -0.9197  0.4628
 6341TIP3    H240515   6.511   3.493  16.501 -0.1018  1.0498 -0.1583
 6342TIP3   OH240516   2.460   5.743   2.171  0.2092  0.0005 -0.0023
 6342TIP3    H140517   2.399   5.721   2.101 -0.8640  0.0691  0.8843
 6342TIP3    H240518   2.547   5.722   2.136 -0.1479  1.6662 -1.9787
 6343TIP3   OH240519   2.650   2.629   1.609 -0.0862  0.2759 -0.6425
 6343TIP3    H140520   2.600   2.615   1.529 -0.6375  1.7693 -0.5875
 6343TIP3    H240521   2.599   2.695   1.657  0.3998 -0.3670  0.7774
 6344TIP3   OH240522   4.520   4.437   5.364  0.5811  0.3015  0.2555
 6344TIP3    H140523   4.596   4.464   5.416  0.8441 -0.6590  0.3747
 6344TIP3    H240524   4.491   4.355   5.405  0.2287  0.0206 -0.5578
 6345TIP3   OH240525   0.057   5.894  16.738 -0.6582  0.6534 -0.2944
 6345TIP3    H140526   0.011   5.845  16.807 -0.6338  1.7531  0.5289
 6345TIP3    H240527   0.047   5.841  16.660  1.8638 -2.1196  1.1995
 6346TIP3   OH240528   0.712   1.375  13.738  0.2880 -0.4868 -0.4295
 6346TIP3    H140529   0.723   1.466  13.712 -0.6980 -0.3498 -0.3855
 6346TIP3    H240530   0.620   1.368  13.764 -0.0776 -1.8614 -1.9692
 6347TIP3   OH240531   0.737   0.409   4.250  0.3114  0.0976 -0.5696
 6347TIP3    H140532   0.698   0.466   4.184  2.2049 -0.4423 -2.2022
 6347TIP3    H240533   0.725   0.321   4.215 -1.4817 -0.4542  1.3418
 6348TIP3   OH240534   6.615   5.159   2.059  0.3074 -0.8414  0.7065
 6348TIP3    H140535   6.588   5.249   2.040 -0.0638 -1.3149 -1.1717
 6348TIP3    H240536   6.702   5.152   2.020  0.2422 -1.3567  0.6486
 6349TIP3   OH240537   3.377   4.945   4.992 -0.1177  0.4627 -0.5771
 6349TIP3    H140538   3.318   4.870   4.990 -0.5196  0.7818 -0.7336
 6349TIP3    H240539   3.329   5.014   5.037  0.2710  0.6118 -0.3811
 6350TIP3   OH240540   2.740   0.171   1.891  0.7300 -0.0677  0.3560
 6350TIP3    H140541   2.644   0.171   1.883  0.7125 -0.9637  0.5334
 6350TIP3    H240542   2.764   0.263   1.883 -0.1085  0.1151 -0.1892
 6351TIP3   OH240543   3.055   0.342  11.387 -0.2149  0.3539  0.5455
 6351TIP3    H140544   2.982   0.321  11.328 -1.2496  0.6422  1.7206
 6351TIP3    H240545   3.064   0.264  11.442 -0.3376  0.7540  1.1256
 6352TIP3   OH240546   3.628   1.002   2.231 -0.0430  0.1030 -0.3631
 6352TIP3    H140547   3.604   1.093   2.246 -0.9101 -0.0891 -0.5663
 6352TIP3    H240548   3.605   0.986   2.139  1.0108 -0.0414 -0.6124
 6353TIP3   OH240549   6.390   3.354   3.971  0.0248  0.2585 -0.2438
 6353TIP3    H140550   6.375   3.320   3.883 -2.2496 -0.0172  0.2195
 6353TIP3    H240551   6.310   3.332   4.020 -0.3699  3.7239  0.8361
 6354TIP3   OH240552   6.728   6.333  16.402 -0.9652 -0.3621  0.1308
 6354TIP3    H140553   6.771   6.282  16.471 -1.3920  0.2107  0.8293
 6354TIP3    H240554   6.714   6.270  16.331 -2.9838 -1.6517  1.6094
 6355TIP3   OH240555   3.753   0.442  16.018 -0.0526 -0.1210  0.0582
 6355TIP3    H140556   3.819   0.492  15.969 -0.2660 -1.1319 -1.3084
 6355TIP3    H240557   3.679   0.502  16.028  0.3129  0.3649 -0.1438
 6356TIP3   OH240558   1.059   1.778   6.470 -0.4300  0.5241 -0.0636
 6356TIP3    H140559   0.981   1.728   6.493  0.7537 -0.5352  1.8003
 6356TIP3    H240560   1.091   1.812   6.554  1.5251  0.2977 -0.6945
 6357TIP3   OH240561   2.483   2.309  14.260  0.0064  0.2265  0.2732
 6357TIP3    H140562   2.545   2.381  14.258 -1.6107  1.6373  0.2127
 6357TIP3    H240563   2.429   2.325  14.337 -0.9495 -0.3960 -0.2473
 6358TIP3   OH240564   2.257   4.255   1.007  0.0327 -0.1209  0.4605
 6358TIP3    H140565   2.244   4.179   0.950  1.5234 -0.0249 -0.0420
 6358TIP3    H240566   2.313   4.223   1.078  0.4798  0.4457  0.3704
 6359TIP3   OH240567   4.009   1.315  14.570 -0.0512 -0.2430  0.4194
 6359TIP3    H140568   3.989   1.223  14.556 -1.6904 -0.1041  1.7638
 6359TIP3    H240569   4.007   1.327  14.665  2.5319  0.6699  0.4085
 6360TIP3   OH240570   0.723   2.647   3.687 -0.0627 -0.7057 -0.5896
 6360TIP3    H140571   0.635   2.658   3.652  0.1667 -0.8200 -1.2144
 6360TIP3    H240572   0.746   2.733   3.724 -0.3842 -0.6438 -0.5385
 6361TIP3   OH240573   1.094   2.080  13.716 -0.2532  0.2013  0.1488
 6361TIP3    H140574   1.070   2.032  13.796 -2.2882  1.1309  0.1186
 6361TIP3    H240575   1.119   2.011  13.654 -1.5317 -0.7340  0.6487
 6362TIP3   OH240576   5.373   6.442   1.692 -0.5350  0.2989 -0.0840
 6362TIP3    H140577   5.309   6.503   1.655 -2.1055 -0.7095  0.9232
 6362TIP3    H240578   5.323   6.390   1.754  1.3708 -0.2250  1.0464
 6363TIP3   OH240579   4.053   4.778  13.031  0.4695  0.0036 -0.6368
 6363TIP3    H140580   4.115   4.711  13.005  1.6015  0.4482  0.8363
 6363TIP3    H240581   3.979   4.729  13.068  0.4875 -0.4853 -1.2397
 6364TIP3   OH240582   6.202   3.406   5.780 -0.3801  0.6129 -0.2910
 6364TIP3    H140583   6.264   3.334   5.789 -1.9371 -0.5797  1.3834
 6364TIP3    H240584   6.181   3.408   5.686 -0.1069 -0.9354 -0.3989
 6365TIP3   OH240585   3.554   5.189   0.537 -0.1543  0.3621  0.1225
 6365TIP3    H140586   3.611   5.248   0.587 -0.0460  1.4357 -1.2544
 6365TIP3    H240587   3.538   5.235   0.455  1.4922 -2.3539 -1.7751
 6366TIP3   OH240588   4.583   2.384  10.780  0.6137 -0.0237  0.7549
 6366TIP3    H140589   4.578   2.295  10.746  1.8835 -0.6803  2.2430
 6366TIP3    H240590   4.603   2.438  10.704  0.4293 -1.0738 -0.0476
 6367TIP3   OH240591   0.363   2.524   5.836 -0.0599  0.3926 -0.3523
 6367TIP3    H140592   0.310   2.565   5.768  1.9393  0.8029 -1.7008
 6367TIP3    H240593   0.432   2.588   5.855  2.4274 -1.8160 -1.6689
 6368TIP3   OH240594   6.306   3.652   2.933 -0.1488  0.7571  0.1966
 6368TIP3    H140595   6.264   3.737   2.917 -1.7214 -0.5221 -2.6366
 6368TIP3    H240596   6.238   3.599   2.974  0.2545  0.2123  0.1645
 6369TIP3   OH240597   4.705   5.057   3.414 -0.5607  0.5699  0.8085
 6369TIP3    H140598   4.613   5.043   3.437 -0.6088  0.4549  0.5462
 6369TIP3    H240599   4.719   5.150   3.428 -1.4933  1.1560 -1.9089
 6370TIP3   OH240600   6.297   6.582   0.654 -0.5798 -0.2301 -0.1844
 6370TIP3    H140601   6.255   6.606   0.737 -0.3898  0.1886 -0.2059
 6370TIP3    H240602   6.282   6.488   0.646 -0.7794 -0.2371  0.2245
 6371TIP3   OH240603   0.682   2.367  16.027  0.1919  0.2807 -0.2757
 6371TIP3    H140604   0.758   2.425  16.035  1.0603 -0.7648 -0.6970
 6371TIP3    H240605   0.627   2.389  16.102  1.3776  0.4072  0.5830
 6372TIP3   OH240606   1.212   1.219  12.710 -0.7242  0.4593 -0.4447
 6372TIP3    H140607   1.135   1.185  12.664 -1.9833  0.0940  1.8584
 6372TIP3    H240608   1.250   1.143  12.754 -0.1135  0.9699 -0.0805
 6373TIP3   OH240609   2.871   4.336  14.983  0.1633 -0.4363 -0.4129
 6373TIP3    H140610   2.784   4.297  14.984  0.6533 -1.7494 -3.3037
 6373TIP3    H240611   2.930   4.261  14.975  1.4519  0.5608 -0.3563
 6374TIP3   OH240612   1.023   1.792   1.639  0.4815  0.0008 -0.1307
 6374TIP3    H140613   0.997   1.863   1.698 -0.8597 -0.5213 -0.0811
 6374TIP3    H240614   1.025   1.714   1.694  1.2947 -0.1146 -0.3285
 6375TIP3   OH240615   2.663   5.567  10.644  0.1717 -0.6501  0.1689
 6375TIP3    H140616   2.722   5.498  10.675  1.4167  0.2794 -0.0695
 6375TIP3    H240617   2.595   5.521  10.596 -1.1964 -2.0393  3.2941
 6376TIP3   OH240618   4.045   4.108  11.086  0.0858 -0.4116  0.2164
 6376TIP3    H140619   3.955   4.106  11.052  0.4437  3.0061 -1.1894
 6376TIP3    H240620   4.099   4.075  11.015  0.0970 -1.0753  0.5268
 6377TIP3   OH240621   4.383   0.039   3.415  0.2585 -0.4440  0.4327
 6377TIP3    H140622   4.318   0.087   3.465  1.1050 -0.4454  1.5607
 6377TIP3    H240623   4.355   0.048   3.324 -1.1651 -0.2333  0.8789
 6378TIP3   OH240624   1.291   4.326  16.118  0.3784  0.0276 -0.0052
 6378TIP3    H140625   1.281   4.239  16.081 -0.1169 -0.0370  0.2779
 6378TIP3    H240626   1.364   4.317  16.180  1.4080  0.2106 -1.1789
 6379TIP3   OH240627   6.752   4.989  16.638 -0.6969 -0.3308 -0.1335
 6379TIP3    H140628   6.821   5.028  16.693 -0.1437 -0.5200 -0.6825
 6379TIP3    H240629   6.785   4.902  16.618 -1.4777 -0.7185  0.2682
 6380TIP3   OH240630   2.334   0.022   2.601  0.0559 -0.0711  0.3561
 6380TIP3    H140631   2.261  -0.025   2.641 -1.0832  1.7681  0.4664
 6380TIP3    H240632   2.321   0.113   2.625  0.7797  0.7135 -2.0568
 6381TIP3   OH240633   6.511   4.441  15.212 -0.1479 -0.3565 -0.0266
 6381TIP3    H140634   6.540   4.532  15.207  1.1170 -0.6032  2.0601
 6381TIP3    H240635   6.450   4.439  15.286 -1.3041 -0.9383 -0.9779
 6382TIP3   OH240636   0.350   0.539  15.391 -0.1169  0.7739  0.2506
 6382TIP3    H140637   0.265   0.526  15.349  1.0803 -1.2408 -1.7253
 6382TIP3    H240638   0.345   0.487  15.471  0.1368 -1.6436 -1.2231
 6383TIP3   OH240639   3.088   4.514   0.932  0.4871  0.1791  0.3034
 6383TIP3    H140640   3.111   4.435   0.883 -1.6039 -0.7911  0.8190
 6383TIP3    H240641   3.165   4.533   0.985  0.9811 -1.5815  0.2540
 6384TIP3   OH240642   3.875   1.174   5.751  0.0036  0.0203 -0.0206
 6384TIP3    H140643   3.874   1.083   5.720  0.8384 -0.0249  0.0666
 6384TIP3    H240644   3.820   1.221   5.688 -1.2132 -0.7149  0.4901
 6385TIP3   OH240645   0.334   3.389  17.259  0.6973  0.7020 -0.3689
 6385TIP3    H140646   0.310   3.452  17.327  0.1964 -0.0883  0.1995
 6385TIP3    H240647   0.331   3.439  17.178 -0.4016  1.2492 -0.0127
 6386TIP3   OH240648   2.042   3.395   1.046 -0.2056 -0.1117 -0.0693
 6386TIP3    H140649   1.965   3.406   0.990  0.0197  0.4528 -0.2760
 6386TIP3    H240650   2.068   3.485   1.069  1.8224 -0.1632 -1.9661
 6387TIP3   OH240651   4.092   6.087   4.341 -0.0092 -0.0952  0.3508
 6387TIP3    H140652   4.014   6.142   4.338  1.3643  1.9344  1.0474
 6387TIP3    H240653   4.165   6.146   4.324  1.4876 -1.7645  0.7268
 6388TIP3   OH240654   3.463   3.335  15.902  0.1422 -0.2931 -0.0669
 6388TIP3    H140655   3.469   3.372  15.990  1.4591 -1.0894  0.1942
 6388TIP3    H240656   3.525   3.387  15.850  0.3527 -0.6896 -0.2132
 6389TIP3   OH240657   3.359   5.197   1.140 -0.0056 -0.3053  0.1645
 6389TIP3    H140658   3.281   5.252   1.145  0.0250  0.0567 -2.5739
 6389TIP3    H240659   3.405   5.213   1.222 -1.9362  0.7753  1.0780
 6390TIP3   OH240660   6.527   5.669  16.052 -0.4576  0.7377  0.1001
 6390TIP3    H140661   6.505   5.619  15.973  0.5216 -2.2452  1.6626
 6390TIP3    H240662   6.623   5.664  16.058 -0.6380 -0.7803  2.5150
 6391TIP3   OH240663   3.092   4.013  16.081 -0.5311 -0.3322  0.1213
 6391TIP3    H140664   3.005   4.034  16.116 -0.8332 -0.3377 -0.6232
 6391TIP3    H240665   3.103   3.919  16.098 -0.6476 -0.3193  0.2617
 6392TIP3   OH240666   5.406   2.716   4.492 -0.1592 -0.2802  0.5927
 6392TIP3    H140667   5.348   2.784   4.457 -0.0661 -0.3459  0.3091
 6392TIP3    H240668   5.494   2.754   4.486 -0.0429 -0.6446 -0.1041
 6393TIP3   OH240669   0.095   2.387   2.721  0.1125 -0.0742 -0.3851
 6393TIP3    H140670   0.019   2.399   2.778  0.0571 -0.4427 -0.3818
 6393TIP3    H240671   0.075   2.308   2.671  1.3486 -1.2893  0.9914
 6394TIP3   OH240672   6.130   4.363   5.545 -1.0940 -0.0204 -0.0519
 6394TIP3    H140673   6.041   4.339   5.569 -0.4978 -2.1215  0.1508
 6394TIP3    H240674   6.181   4.283   5.558  1.0552  1.4594  0.9862
 6395TIP3   OH240675   4.313   2.894  15.811 -0.1361  0.6146 -0.4059
 6395TIP3    H140676   4.243   2.880  15.874  0.0707  3.8042  0.5991
 6395TIP3    H240677   4.285   2.970  15.760  0.9572 -0.2721 -2.3804
 6396TIP3   OH240678   4.286   0.312  17.012 -0.2922  0.4789 -0.1228
 6396TIP3    H140679   4.240   0.270  16.939  2.8717 -0.9742 -1.4002
 6396TIP3    H240680   4.306   0.241  17.072 -0.7440  1.2779  0.9891
 6397TIP3   OH240681   6.406   0.722   2.732  0.0229 -0.0160 -0.2358
 6397TIP3    H140682   6.319   0.743   2.698  0.4619 -0.5475 -1.7757
 6397TIP3    H240683   6.397   0.726   2.827 -1.0659  2.3237 -0.4118
 6398TIP3   OH240684   2.614   6.511  10.842 -0.5042 -0.3804  0.6104
 6398TIP3    H140685   2.612   6.543  10.752  0.8863  1.4998  1.2253
 6398TIP3    H240686   2.655   6.424  10.836 -0.7653 -0.4360 -0.5912
 6399TIP3   OH240687   1.527   1.365   0.340 -0.0671  0.7123  0.0866
 6399TIP3    H140688   1.511   1.453   0.307  0.4250  1.6363  2.1988
 6399TIP3    H240689   1.441   1.332   0.364 -0.1923  0.8102 -0.2232
 6400TIP3   OH240690   3.865   2.541   2.092  0.4337 -0.2528  0.3942
 6400TIP3    H140691   3.912   2.512   2.014  1.0101 -0.8070  0.9394
 6400TIP3    H240692   3.896   2.630   2.107  1.1634 -0.5339  0.6175
 6401TIP3   OH240693   4.415   0.581   3.166  0.1563  0.1560  0.4295
 6401TIP3    H140694   4.348   0.645   3.189 -0.4595 -0.4226  0.2534
 6401TIP3    H240695   4.497   0.630   3.171 -0.1378  0.5335  2.0021
 6402TIP3   OH240696   1.125   0.859   5.964 -0.1371 -0.8162 -0.2888
 6402TIP3    H140697   1.050   0.877   5.907 -0.0040 -0.0221 -0.2271
 6402TIP3    H240698   1.170   0.944   5.971 -0.3385 -0.8242  1.2787
 6403TIP3   OH240699   6.033   5.693   1.277 -0.0166 -0.2658 -0.0263
 6403TIP3    H140700   5.965   5.748   1.239 -0.3524 -0.7750 -0.1646
 6403TIP3    H240701   6.018   5.698   1.371  0.4221  0.4862  0.0065
 6404TIP3   OH240702   2.342   4.658  15.222  0.5095  0.8992  0.0029
 6404TIP3    H140703   2.249   4.665  15.242  0.6857  2.9505  0.2497
 6404TIP3    H240704   2.346   4.633  15.129 -0.2897  0.6733  0.0355
 6405TIP3   OH240705   2.525   0.694  13.723 -0.2506 -0.2261  0.4558
 6405TIP3    H140706   2.585   0.765  13.747 -0.9180  0.4353  0.2036
 6405TIP3    H240707   2.453   0.701  13.786 -0.1988 -0.8379  0.5853
 6406TIP3   OH240708   3.310   1.066  14.721  0.0645 -0.2023  0.3899
 6406TIP3    H140709   3.222   1.098  14.742 -0.7665 -1.8395 -0.5460
 6406TIP3    H240710   3.360   1.076  14.803 -0.6677  1.7665  0.6177
 6407TIP3   OH240711   0.083   2.132   3.043 -0.0424 -0.1649  0.1177
 6407TIP3    H140712   0.066   2.075   3.118  0.6948  0.3542  0.6771
 6407TIP3    H240713   0.050   2.218   3.070 -2.0003 -0.4970 -1.0659
 6408TIP3   OH240714   1.177   0.276  16.897 -0.0907 -0.0153  0.3862
 6408TIP3    H140715   1.258   0.245  16.858  0.1275 -0.4875  1.1921
 6408TIP3    H240716   1.145   0.201  16.948 -2.0060 -0.4724 -1.4236
 6409TIP3   OH240717   4.843   4.048  15.128  0.0917  0.0158 -0.0511
 6409TIP3    H140718   4.758   4.081  15.101 -0.6644 -0.3746  1.8103
 6409TIP3    H240719   4.875   4.000  15.052 -0.1474  2.3963 -1.7028
 6410TIP3   OH240720   1.712   2.311   1.025 -0.4366 -0.8059  0.4111
 6410TIP3    H140721   1.803   2.320   0.994 -0.5350  0.1548  0.3894
 6410TIP3    H240722   1.710   2.361   1.106 -1.4632  0.9105 -0.6422
 6411TIP3   OH240723   2.972   0.319  14.710 -0.4769  0.1727 -0.1370
 6411TIP3    H140724   2.992   0.378  14.783 -2.0622  0.2992  0.2135
 6411TIP3    H240725   2.972   0.376  14.633  2.3594 -0.1608 -0.4388
 6412TIP3   OH240726   6.197   6.284  11.644  0.3623 -0.4217 -0.2531
 6412TIP3    H140727   6.192   6.253  11.554 -1.7322  1.0607 -0.6755
 6412TIP3    H240728   6.202   6.204  11.697 -1.6846 -1.4295 -1.5058
 6413TIP3   OH240729   6.590   0.022  12.744  0.1395 -0.0634  0.4483
 6413TIP3    H140730   6.599   0.095  12.805  0.4929 -0.7893  1.2795
 6413TIP3    H240731   6.672  -0.028  12.754 -0.4645 -1.0552  0.5393
 6414TIP3   OH240732   4.322   0.764   5.799 -0.0768  0.3379  0.1415
 6414TIP3    H140733   4.279   0.684   5.767  0.8568 -0.8927  1.8792
 6414TIP3    H240734   4.355   0.807   5.720 -0.0841 -1.2866 -0.7736
 6415TIP3   OH240735   3.307   0.285   0.480 -0.4078  0.2066  0.4555
 6415TIP3    H140736   3.340   0.341   0.550 -0.0937  0.9110 -0.2498
 6415TIP3    H240737   3.253   0.342   0.426 -0.2906 -0.2235 -0.1247
 6416TIP3   OH240738   1.537   6.257  14.025 -0.5363  0.3696  0.0761
 6416TIP3    H140739   1.530   6.207  14.106  1.6035  0.8121  0.5623
 6416TIP3    H240740   1.449   6.255  13.988 -0.7310 -2.8337  0.6148
 6417TIP3   OH240741   6.159   0.977  11.542 -0.7103 -0.1455  0.1273
 6417TIP3    H140742   6.163   1.038  11.468  2.1763 -1.1245 -0.6138
 6417TIP3    H240743   6.187   1.029  11.618 -1.6334  0.3183  0.1595
 6418TIP3   OH240744   1.018   1.170   5.562 -0.2336 -0.5536  0.0087
 6418TIP3    H140745   1.109   1.145   5.580 -1.4551 -3.9354  1.7988
 6418TIP3    H240746   0.983   1.098   5.510 -1.2747  1.8512 -2.7512
 6419TIP3   OH240747   5.211   5.317  13.500 -0.1631  0.3008 -0.4313
 6419TIP3    H140748   5.132   5.317  13.554  0.5632 -0.0783  0.6468
 6419TIP3    H240749   5.195   5.250  13.434 -0.8654  0.4484 -0.4243
 6420TIP3   OH240750   0.417   4.272  12.100  0.7148  0.3334  0.2864
 6420TIP3    H140751   0.493   4.214  12.089  0.2905 -0.0685 -0.5515
 6420TIP3    H240752   0.342   4.214  12.095  0.3399  0.7597  0.9414
 6421TIP3   OH240753   4.204   0.320  14.101 -0.3133 -0.3402  0.2723
 6421TIP3    H140754   4.154   0.296  14.179 -1.4868 -1.7151 -0.8880
 6421TIP3    H240755   4.284   0.267  14.108  0.5519  1.0910  1.5907
 6422TIP3   OH240756   5.892   6.232  16.777 -0.5401  0.2797  0.6330
 6422TIP3    H140757   5.947   6.164  16.816  0.4077  1.6050  1.7134
 6422TIP3    H240758   5.941   6.262  16.701 -0.5652  0.2786  0.6162
 6423TIP3   OH240759   3.643   0.127   3.894  0.3220  0.6556  0.2538
 6423TIP3    H140760   3.579   0.139   3.964  0.5944 -0.2418  0.6615
 6423TIP3    H240761   3.680   0.041   3.910 -0.9295 -0.3477 -2.0885
 6424TIP3   OH240762   5.180   3.404  13.067  0.0473  0.9487 -0.0991
 6424TIP3    H140763   5.127   3.483  13.058 -1.1689  0.7372  3.9294
 6424TIP3    H240764   5.124   3.334  13.034 -1.2999  1.0699  1.7982
 6425TIP3   OH240765   3.878   4.775  15.108 -0.1552  0.2173 -0.4762
 6425TIP3    H140766   3.796   4.740  15.144  0.2580  0.3731  0.6567
 6425TIP3    H240767   3.867   4.771  15.014 -1.8270  1.0559 -0.3430
 6426TIP3   OH240768   2.243   2.778  17.046  0.3106 -0.2563  0.4302
 6426TIP3    H140769   2.158   2.786  17.004 -0.5335 -1.1778  1.9349
 6426TIP3    H240770   2.230   2.815  17.134  1.9926  1.4780 -0.0162
 6427TIP3   OH240771   3.289   2.915   0.029  0.4128 -0.2744 -0.0986
 6427TIP3    H140772   3.308   2.824   0.004 -0.1791 -1.1191  2.4273
 6427TIP3    H240773   3.246   2.952  -0.048  3.2239 -1.2558 -2.2472
 6428TIP3   OH240774   6.801   6.484   1.433  0.2817  0.2906  0.3835
 6428TIP3    H140775   6.869   6.521   1.490  0.8566  0.9942 -0.7483
 6428TIP3    H240776   6.740   6.557   1.418  1.7947  1.0283 -2.4356
 6429TIP3   OH240777   0.881   0.486   6.516 -0.3847 -0.0390  0.3869
 6429TIP3    H140778   0.963   0.487   6.567 -0.3850 -0.4811  0.3908
 6429TIP3    H240779   0.813   0.497   6.582 -0.1924  3.4491  0.1232
 6430TIP3   OH240780   5.849   1.174  15.222 -0.1297 -0.2107  0.1947
 6430TIP3    H140781   5.776   1.145  15.167 -0.2812  0.3511  0.0933
 6430TIP3    H240782   5.925   1.176  15.163 -0.8875  3.3366 -0.8137
 6431TIP3   OH240783   0.190   2.452   3.544  0.3323  0.8496 -0.3538
 6431TIP3    H140784   0.203   2.541   3.512 -0.0277  0.1753 -2.4842
 6431TIP3    H240785   0.113   2.457   3.600  0.6120  1.9580 -0.0605
 6432TIP3   OH240786   5.759   4.480   5.568 -0.1542  0.0079  0.2013
 6432TIP3    H140787   5.788   4.492   5.478 -2.7106  1.3129 -0.4985
 6432TIP3    H240788   5.819   4.534   5.620  1.4895 -0.9526 -0.6523
 6433TIP3   OH240789   6.326   1.846  16.052  0.4674  0.2522  0.1470
 6433TIP3    H140790   6.268   1.903  16.101 -1.6734 -0.7284 -1.1864
 6433TIP3    H240791   6.408   1.896  16.043 -0.7395  2.3449  0.5705
 6434TIP3   OH240792   0.848   3.026   1.263 -0.0882  0.1029 -0.6292
 6434TIP3    H140793   0.872   3.000   1.352  1.7551  0.9595 -0.8551
 6434TIP3    H240794   0.811   2.947   1.224 -1.3387 -0.1610  1.0260
 6435TIP3   OH240795   6.598   1.399   5.391  0.0804  0.7331  0.1619
 6435TIP3    H140796   6.642   1.470   5.343  0.9353 -1.1425 -1.9444
 6435TIP3    H240797   6.670   1.344   5.422 -0.6004  0.4833  1.3079
 6436TIP3   OH240798   4.801   2.616   0.771 -0.0873 -0.0148 -0.4565
 6436TIP3    H140799   4.836   2.529   0.786  1.4882  0.9619  1.9623
 6436TIP3    H240800   4.862   2.657   0.709  0.4949  0.1070  0.1796
 6437TIP3   OH240801   4.566   2.259  11.489  0.7582  0.6326  1.3055
 6437TIP3    H140802   4.552   2.175  11.445  1.3217  0.8702  0.6612
 6437TIP3    H240803   4.498   2.263  11.556  0.2245  0.0317  0.7999
 6438TIP3   OH240804   6.017   6.113  13.453 -0.2698  0.3576  0.4633
 6438TIP3    H140805   6.046   6.071  13.534  0.8676  0.3255  0.0459
 6438TIP3    H240806   5.940   6.164  13.478  1.3101  2.0320  1.9950
 6439TIP3   OH240807   6.026   5.835   1.986 -0.3441 -0.2905  0.2147
 6439TIP3    H140808   6.017   5.929   2.000 -1.8752 -0.2665 -0.7101
 6439TIP3    H240809   6.062   5.802   2.067 -1.3915  0.8834  1.1934
 6440TIP3   OH240810   0.480   6.621   1.999  0.0155 -0.1875  0.0017
 6440TIP3    H140811   0.431   6.695   2.034  1.6528  0.8844  0.1060
 6440TIP3    H240812   0.471   6.628   1.904 -1.7255 -1.2118  0.0632
 6441TIP3   OH240813   3.325   6.655  14.337 -0.0702 -0.1907  0.2446
 6441TIP3    H140814   3.394   6.593  14.315 -0.4875 -0.1963 -1.1195
 6441TIP3    H240815   3.339   6.729  14.278  0.5407  1.1222  1.9841
 6442TIP3   OH240816   3.273   5.600  17.247  0.8762 -0.3887 -0.3081
 6442TIP3    H140817   3.178   5.608  17.238  0.8147 -0.2717  0.3840
 6442TIP3    H240818   3.308   5.624  17.162  0.4180  2.0885  0.1671
 6443TIP3   OH240819   5.991   3.980   2.042  0.4092 -0.0600  0.1977
 6443TIP3    H140820   6.030   3.936   2.118 -1.2936 -1.4041  0.3165
 6443TIP3    H240821   6.042   4.061   2.033  1.7615 -0.7081  1.6995
 6444TIP3   OH240822   2.819   6.578   4.408  0.1954  0.5447  0.2874
 6444TIP3    H140823   2.810   6.486   4.383 -2.4981  0.8449 -0.0176
 6444TIP3    H240824   2.860   6.620   4.332  3.2505 -0.6849  1.1606
 6445TIP3   OH240825   1.699   0.445   0.079  0.0017 -0.0801  0.0035
 6445TIP3    H140826   1.723   0.538   0.081  3.0831 -0.8239 -0.4299
 6445TIP3    H240827   1.763   0.402   0.135 -1.8096 -1.8980  0.7396
 6446TIP3   OH240828   2.726   4.177  15.532 -0.2619  0.0398 -0.0636
 6446TIP3    H140829   2.679   4.095  15.548 -0.7711  0.0152 -1.6029
 6446TIP3    H240830   2.688   4.211  15.451  0.8813  1.1121 -0.1627
 6447TIP3   OH240831   6.127   5.064  12.081  0.1923  0.2410  0.2954
 6447TIP3    H140832   6.119   5.159  12.095 -2.4276  0.3709 -1.7205
 6447TIP3    H240833   6.052   5.027  12.127 -0.1217 -0.6346 -0.9115
 6448TIP3   OH240834   3.725   3.358   4.537 -0.9304 -0.2783 -0.0879
 6448TIP3    H140835   3.738   3.289   4.472 -3.0463 -0.1850 -0.6476
 6448TIP3    H240836   3.696   3.311   4.616 -2.6105 -0.0315 -0.5432
 6449TIP3   OH240837   2.687   4.173  13.713 -0.0725  0.1773  0.5261
 6449TIP3    H140838   2.720   4.247  13.662 -0.4547  0.4455  0.6592
 6449TIP3    H240839   2.760   4.145  13.767  0.3665 -0.1684 -0.2365
 6450TIP3   OH240840   3.261   2.204  11.008  0.1343 -0.1526  0.4073
 6450TIP3    H140841   3.287   2.287  10.968  0.9260 -0.9410 -0.7508
 6450TIP3    H240842   3.299   2.207  11.096  0.4379  0.5782  0.2562
 6451TIP3   OH240843   6.299   5.639   4.938  0.0775  0.3991 -0.2364
 6451TIP3    H140844   6.280   5.619   4.846  1.2536 -0.9599 -0.1968
 6451TIP3    H240845   6.303   5.554   4.981 -0.7183  1.0509  1.1335
 6452TIP3   OH240846   0.532   4.791  11.537  0.0537 -0.1738  0.0553
 6452TIP3    H140847   0.606   4.800  11.597 -0.7717  1.3445  0.8792
 6452TIP3    H240848   0.479   4.721  11.575 -0.1621  0.3802  0.7883
 6453TIP3   OH240849   6.508   1.078   1.511  0.1950 -0.5280 -0.0470
 6453TIP3    H140850   6.438   1.109   1.454 -1.5181 -1.1050  1.6940
 6453TIP3    H240851   6.538   1.157   1.556  0.2411 -0.3761 -0.3413
 6454TIP3   OH240852   4.841   5.363  17.192  0.0144 -0.2943  1.1837
 6454TIP3    H140853   4.785   5.360  17.114 -0.1511 -0.2484  1.2988
 6454TIP3    H240854   4.780   5.353  17.265  0.2992 -1.5960  1.2629
 6455TIP3   OH240855   6.745   1.654   5.577  0.1069  0.3810  1.1422
 6455TIP3    H140856   6.834   1.655   5.543  0.0648  0.1378  1.0287
 6455TIP3    H240857   6.750   1.603   5.658 -0.2741 -1.1678  0.2094
 6456TIP3   OH240858   1.575   3.781  11.325  1.0173  0.4964  0.3883
 6456TIP3    H140859   1.654   3.728  11.334  0.3081 -0.7415 -0.6792
 6456TIP3    H240860   1.549   3.771  11.234  0.0848  1.5726  0.5219
 6457TIP3   OH240861   4.382   0.558  16.646  0.7732  0.4570 -0.2832
 6457TIP3    H140862   4.359   0.579  16.556  0.2161 -1.7898 -0.6982
 6457TIP3    H240863   4.323   0.610  16.700  0.3708  0.9771 -1.2254
 6458TIP3   OH240864   4.356   3.717   2.998 -0.6938  0.2665 -0.1232
 6458TIP3    H140865   4.350   3.813   2.992 -0.5722  0.2284 -0.9164
 6458TIP3    H240866   4.418   3.693   2.929 -2.3792 -0.5718 -1.3742
 6459TIP3   OH240867   4.680   5.548   0.699  0.0319 -0.1025  0.1192
 6459TIP3    H140868   4.633   5.470   0.669 -1.3765 -0.3246  2.8269
 6459TIP3    H240869   4.612   5.615   0.708  1.1963  1.4250 -1.9748
 6460TIP3   OH240870   5.746   0.129  10.954 -0.0707  0.4413 -0.4834
 6460TIP3    H140871   5.676   0.193  10.965 -0.4385  0.0942 -0.7989
 6460TIP3    H240872   5.816   0.177  10.911 -1.0837  0.1406 -2.5489
 6461TIP3   OH240873   4.192   3.197  12.482  0.6872  0.3909  0.4097
 6461TIP3    H140874   4.112   3.247  12.466 -0.0255 -0.8518 -0.0489
 6461TIP3    H240875   4.185   3.121  12.424  1.4225 -0.5636  1.5219
 6462TIP3   OH240876   6.503   0.180   4.394  0.0449 -0.8655 -0.6083
 6462TIP3    H140877   6.562   0.146   4.327  0.0589  0.3037 -1.1990
 6462TIP3    H240878   6.528   0.271   4.404 -0.7510 -0.7272  0.1328
 6463TIP3   OH240879   3.129   1.455   5.030  0.3254  0.0350  0.7220
 6463TIP3    H140880   3.145   1.400   5.107  0.9772 -0.8073 -0.0115
 6463TIP3    H240881   3.064   1.407   4.979  0.6357  0.1193  0.2461
 6464TIP3   OH240882   3.431   5.889  14.621 -0.6454  0.3593  0.4908
 6464TIP3    H140883   3.426   5.795  14.603 -0.7478 -0.0404  2.4925
 6464TIP3    H240884   3.514   5.916  14.582 -0.8610 -0.4386 -0.5664
 6465TIP3   OH240885   3.640   6.233  12.280  0.0406 -0.1322 -0.0012
 6465TIP3    H140886   3.693   6.210  12.204  1.5666 -2.5209  1.7142
 6465TIP3    H240887   3.552   6.203  12.258  0.6664 -1.6596 -0.4934
 6466TIP3   OH240888   5.113   4.250  16.405 -0.8149 -0.3581  0.1795
 6466TIP3    H140889   5.064   4.292  16.475  0.6360 -1.1581  1.7199
 6466TIP3    H240890   5.205   4.261  16.430 -0.2833 -1.0131 -1.3937
 6467TIP3   OH240891   4.133   4.137   3.958 -0.0714  0.4870  0.1907
 6467TIP3    H140892   4.083   4.214   3.985 -0.7592  0.5782 -1.2785
 6467TIP3    H240893   4.068   4.079   3.918  0.6926 -0.2172 -0.0429
 6468TIP3   OH240894   3.725   6.547  15.957 -0.0551 -0.4971  0.0098
 6468TIP3    H140895   3.634   6.518  15.961  0.3348 -1.7572  0.0907
 6468TIP3    H240896   3.737   6.602  16.034 -0.7575 -0.3158 -0.0139
 6469TIP3   OH240897   2.545   5.256  17.237 -0.1848  0.2171 -0.5928
 6469TIP3    H140898   2.566   5.182  17.294  3.4432  1.2523 -0.4970
 6469TIP3    H240899   2.534   5.330  17.296 -0.2007  0.5275 -0.9817
 6470TIP3   OH240900   1.963   4.412  17.056  0.1647 -0.5756 -0.2070
 6470TIP3    H140901   1.906   4.394  17.131 -0.8651  1.2618 -0.5018
 6470TIP3    H240902   1.907   4.461  16.995  2.2186  1.9100 -0.2092
 6471TIP3   OH240903   5.994   5.013  13.267 -0.1547  0.1479 -0.6196
 6471TIP3    H140904   5.948   5.025  13.183 -1.4524  0.6805  0.1562
 6471TIP3    H240905   6.054   4.940  13.251 -2.3742 -1.6026 -1.2107
 6472TIP3   OH240906   0.532   1.027  12.765  0.0843 -0.2619  0.4486
 6472TIP3    H140907   0.464   1.014  12.831 -0.4393  1.3994  0.2441
 6472TIP3    H240908   0.614   1.021  12.814 -0.2687 -0.0163  1.0712
 6473TIP3   OH240909   1.411   5.176  11.791 -0.2833  0.4122 -0.2192
 6473TIP3    H140910   1.441   5.169  11.881 -3.2255 -0.5845  0.7697
 6473TIP3    H240911   1.371   5.263  11.785  0.5685  0.7729 -0.7971
 6474TIP3   OH240912   2.714   0.098   1.426 -0.4348  0.0923  0.2190
 6474TIP3    H140913   2.642   0.159   1.439  0.6781  1.5197 -0.2184
 6474TIP3    H240914   2.792   0.147   1.451  0.3848 -1.4914  0.8620
 6475TIP3   OH240915   5.120   6.094  16.302 -0.7749 -0.3662 -0.3667
 6475TIP3    H140916   5.035   6.139  16.295 -2.8011 -3.2588  3.4607
 6475TIP3    H240917   5.159   6.130  16.381  0.7772 -0.3420 -1.1398
 6476TIP3   OH240918   3.729   3.489   2.098 -0.0641 -0.1170 -0.4836
 6476TIP3    H140919   3.720   3.432   2.021  0.7578 -0.0718 -0.6207
 6476TIP3    H240920   3.697   3.437   2.171  1.0074 -0.8893 -0.5568
 6477TIP3   OH240921   6.498   4.185   6.521  0.2124  0.2285  0.0809
 6477TIP3    H140922   6.534   4.126   6.454  0.9789  2.3574 -1.4341
 6477TIP3    H240923   6.404   4.166   6.520  0.1365  0.5118 -1.9563
 6478TIP3   OH240924   5.174   2.338   0.435 -0.1036  0.8316 -0.3654
 6478TIP3    H140925   5.170   2.263   0.376 -1.6853  0.3843  0.2764
 6478TIP3    H240926   5.243   2.317   0.497  1.3723  1.1712 -1.8623
 6479TIP3   OH240927   4.553   3.860   5.083 -0.2795  0.3988  0.6214
 6479TIP3    H140928   4.527   3.932   5.141  1.0170  1.3503  0.0185
 6479TIP3    H240929   4.648   3.866   5.078 -0.4446  0.9036 -2.3753
 6480TIP3   OH240930   4.140   6.126  13.421 -0.4051 -0.3299 -0.5298
 6480TIP3    H140931   4.138   6.036  13.455  2.0048 -0.4020 -0.4936
 6480TIP3    H240932   4.201   6.122  13.348 -1.1955  1.0557 -1.2798
 6481TIP3   OH240933   5.065   4.289  12.990  0.3763 -0.2822  0.4419
 6481TIP3    H140934   5.160   4.283  12.979  0.4128 -0.9484  1.0728
 6481TIP3    H240935   5.036   4.198  12.999 -0.4250 -0.1265 -0.5541
 6482TIP3   OH240936   1.908   2.758  10.242  0.1142  0.0040  0.2666
 6482TIP3    H140937   1.837   2.697  10.260  2.3088 -3.1061 -1.2268
 6482TIP3    H240938   1.965   2.752  10.318  0.9440 -0.7233 -0.4036
 6483TIP3   OH240939   1.817   4.822  12.090  0.2823  0.2920 -0.0067
 6483TIP3    H140940   1.751   4.790  12.028  0.3216 -0.2079  0.2092
 6483TIP3    H240941   1.860   4.743  12.123 -0.0588  0.5244  1.0213
 6484TIP3   OH240942   5.729   5.585   0.571  0.0706 -0.1663 -0.0213
 6484TIP3    H140943   5.808   5.630   0.598  0.7542 -0.5427 -1.3673
 6484TIP3    H240944   5.759   5.498   0.543 -0.9883 -0.8017  0.7336
 6485TIP3   OH240945   4.587   1.391   0.830  0.3129 -0.3200 -0.1419
 6485TIP3    H140946   4.492   1.404   0.821  0.0973  0.2982  2.4733
 6485TIP3    H240947   4.623   1.479   0.837  0.7254 -0.6091  1.6636
 6486TIP3   OH240948   0.332   3.870   0.729 -0.5629 -0.8673 -0.3370
 6486TIP3    H140949   0.325   3.781   0.762  0.2402 -0.8917 -0.2235
 6486TIP3    H240950   0.301   3.925   0.801 -0.3060 -1.0138 -0.1135
 6487TIP3   OH240951   3.930   4.150   4.501  0.4753  0.1424  0.0789
 6487TIP3    H140952   3.884   4.139   4.584  1.2962 -1.3129  0.3690
 6487TIP3    H240953   4.018   4.180   4.527  1.3422 -2.1184 -0.1047
 6488TIP3   OH240954   1.818   4.197  13.064 -0.1740  0.6236  0.1881
 6488TIP3    H140955   1.832   4.168  13.154 -1.5164 -2.9801 -0.6903
 6488TIP3    H240956   1.905   4.194  13.024 -0.0220 -0.6200  0.5899
 6489TIP3   OH240957   4.507   3.018   1.958  0.1002  0.0535 -0.1401
 6489TIP3    H140958   4.579   3.003   2.020 -1.9693 -0.2314  2.2840
 6489TIP3    H240959   4.479   2.930   1.932 -0.5273  0.1164  0.3159
 6490TIP3   OH240960   0.328   2.218   5.090  0.2091  0.2419 -0.0014
 6490TIP3    H140961   0.298   2.142   5.141  0.6278 -1.3135 -1.9998
 6490TIP3    H240962   0.380   2.180   5.020 -1.3458  2.2247 -2.3051
 6491TIP3   OH240963   4.856   1.099   0.344  0.3693  0.4235  0.1440
 6491TIP3    H140964   4.831   1.141   0.426 -2.5122  1.9338 -1.4450
 6491TIP3    H240965   4.853   1.005   0.363  1.0107  0.7689  2.0851
 6492TIP3   OH240966   6.102   0.273  12.441  0.1260  0.7643  0.8013
 6492TIP3    H140967   6.161   0.291  12.514  1.0671 -1.0389  0.5121
 6492TIP3    H240968   6.105   0.178  12.431 -2.2854  0.7109  0.3090
 6493TIP3   OH240969   0.110   1.351   4.090  0.5709 -0.2805  0.4607
 6493TIP3    H140970   0.178   1.307   4.140  1.5799  0.1115 -0.5575
 6493TIP3    H240971   0.157   1.405   4.027 -0.6813 -1.7061 -1.7498
 6494TIP3   OH240972   1.868   1.931  13.673 -0.3665  0.5897 -0.0600
 6494TIP3    H140973   1.921   1.956  13.597  0.7025  1.2385  0.8873
 6494TIP3    H240974   1.920   1.865  13.718 -1.1059  0.0312  0.0006
 6495TIP3   OH240975   4.269   3.545   1.984  0.2297  0.6227  0.1333
 6495TIP3    H140976   4.301   3.628   2.019  0.0156  0.4405  0.7754
 6495TIP3    H240977   4.182   3.534   2.023  0.4972 -0.1839  0.5097
 6496TIP3   OH240978   4.775   1.355   5.645 -0.2742 -0.1690  0.8633
 6496TIP3    H140979   4.850   1.412   5.630 -0.0232 -0.7075  0.0248
 6496TIP3    H240980   4.700   1.404   5.614 -0.0121 -0.4378 -0.2206
 6497TIP3   OH240981   4.759   1.604  12.880 -0.0149 -0.0594  0.1104
 6497TIP3    H140982   4.842   1.643  12.906 -0.6071  0.1194  1.8115
 6497TIP3    H240983   4.736   1.546  12.954 -1.7355  0.4290 -0.0299
 6498TIP3   OH240984   0.137   1.182  11.667 -0.2688  0.1201  0.1935
 6498TIP3    H140985   0.061   1.207  11.720 -1.4528  1.8285 -2.2054
 6498TIP3    H240986   0.210   1.227  11.707 -0.7789 -0.3160  1.6386
 6499TIP3   OH240987   4.166   0.496  12.285  0.5284  0.1677  0.6133
 6499TIP3    H140988   4.125   0.435  12.347  0.9984 -0.7481  0.0199
 6499TIP3    H240989   4.093   0.539  12.242  0.1951 -0.6863  0.3285
 6500TIP3   OH240990   2.100   4.836  14.252  0.5505 -0.1226  0.0346
 6500TIP3    H140991   2.051   4.868  14.328 -0.0960 -1.1094  0.0412
 6500TIP3    H240992   2.051   4.759  14.223 -0.7619  1.7788 -3.0491
 6501TIP3   OH240993   3.304   3.781  11.834  0.3577 -0.3397  0.0681
 6501TIP3    H140994   3.299   3.754  11.742 -0.5965  0.4704 -0.1320
 6501TIP3    H240995   3.364   3.855  11.833  2.4752 -2.0086  0.5213
 6502TIP3   OH240996   6.591   1.580   4.297 -0.0828  0.5320  0.4726
 6502TIP3    H140997   6.614   1.537   4.214 -2.2580  1.2173 -0.5025
 6502TIP3    H240998   6.613   1.672   4.283  1.6570  0.2934  1.4783
 6503TIP3   OH240999   4.023   6.148  14.011 -0.2020  0.4379 -0.4773
 6503TIP3    H141000   4.053   6.201  14.085 -0.8205  2.4621 -1.6474
 6503TIP3    H241001   3.959   6.088  14.050  1.2380 -0.2035  1.0356
 6504TIP3   OH241002   4.467   2.503  12.952 -0.0779  0.2619 -0.2818
 6504TIP3    H141003   4.453   2.598  12.957  3.2961  0.8231 -0.5556
 6504TIP3    H241004   4.473   2.484  12.859  1.4870  0.1571 -0.1703
 6505TIP3   OH241005   3.978   1.851   3.345  0.2722  0.2175 -0.1891
 6505TIP3    H141006   4.037   1.876   3.416 -0.9877  1.1878  0.5419
 6505TIP3    H241007   4.005   1.763   3.321  2.5089  0.9178 -0.3757
 6506TIP3   OH241008   1.064   5.498  13.103 -1.0498 -0.1417  0.0575
 6506TIP3    H141009   1.051   5.431  13.036  0.9035 -0.8926  0.3921
 6506TIP3    H241010   1.157   5.490  13.127 -0.6819  2.8855 -0.1292
 6507TIP3   OH241011   0.121   1.174  16.119 -0.1201 -0.2826  0.4459
 6507TIP3    H141012   0.083   1.190  16.206 -1.5987 -2.2755  0.2022
 6507TIP3    H241013   0.069   1.229  16.060  1.1626  1.4062  0.8282
 6508TIP3   OH241014   6.229   1.670   4.974  0.1804  0.2121  0.0140
 6508TIP3    H141015   6.306   1.687   5.029  0.6244 -0.9167 -0.2556
 6508TIP3    H241016   6.225   1.745   4.915  0.2062  1.0108  1.0079
 6509TIP3   OH241017   5.122   5.010  14.547 -0.1487  0.1761 -0.0576
 6509TIP3    H141018   5.170   5.075  14.597 -0.3055 -1.1164  1.8093
 6509TIP3    H241019   5.189   4.948  14.517 -0.2127  0.2830 -0.4249
 6510TIP3   OH241020   6.650   6.620   0.144  0.4323  0.2821  0.2622
 6510TIP3    H141021   6.568   6.618   0.096  0.0253  0.3916  0.9476
 6510TIP3    H241022   6.625   6.611   0.236  1.2807 -0.9602  0.3820
 6511TIP3   OH241023   5.112   1.164  13.666 -0.3631  0.3360 -0.2271
 6511TIP3    H141024   5.116   1.256  13.641 -1.7170  0.6779  0.7669
 6511TIP3    H241025   5.020   1.139  13.651 -0.1959 -0.6219  0.2953
 6512TIP3   OH241026   1.904   0.796  15.470 -0.0740  0.2119 -0.0831
 6512TIP3    H141027   1.921   0.846  15.390  1.4347  0.0526  0.1228
 6512TIP3    H241028   1.843   0.850  15.520  2.0927  2.2622  0.4686
 6513TIP3   OH241029   1.592   1.945  13.648  0.0800 -0.1063  0.0047
 6513TIP3    H141030   1.579   2.039  13.651 -0.1914 -0.1574  0.3944
 6513TIP3    H241031   1.686   1.933  13.663 -0.1876 -0.0048  1.8240
 6514TIP3   OH241032   1.755   0.572   3.841 -0.2876 -0.1327  0.2577
 6514TIP3    H141033   1.717   0.579   3.929  0.6657  1.7203  0.5591
 6514TIP3    H241034   1.803   0.490   3.842 -0.1923 -0.0694  1.5318
 6515TIP3   OH241035   2.631   0.031  11.679  0.0487  0.2771 -0.4217
 6515TIP3    H141036   2.724   0.009  11.672  0.0140 -1.3220  2.9802
 6515TIP3    H241037   2.630   0.127  11.683  1.4794  0.3410 -1.3992
 6516TIP3   OH241038   1.595   1.029  14.337  0.6640 -0.4107  0.0801
 6516TIP3    H141039   1.627   1.018  14.248  1.3398 -0.7632  0.3636
 6516TIP3    H241040   1.674   1.038  14.390  0.2338  1.7860  0.3902
 6517TIP3   OH241041   4.641   1.134   1.794 -0.2444  0.3175 -0.3297
 6517TIP3    H141042   4.569   1.194   1.775  0.1369  0.7379 -0.4875
 6517TIP3    H241043   4.710   1.161   1.733  0.6986  1.1265  1.0773
 6518TIP3   OH241044   1.632   2.251  13.756 -0.1020 -0.7245 -0.2616
 6518TIP3    H141045   1.538   2.249  13.770 -0.0714 -2.2767 -0.1749
 6518TIP3    H241046   1.668   2.286  13.838 -0.5344 -1.0913  0.0838
 6519TIP3   OH241047   1.235   0.835   3.776  0.7302  0.3515 -0.4515
 6519TIP3    H141048   1.254   0.761   3.718 -0.4353  0.4353 -0.9437
 6519TIP3    H241049   1.279   0.910   3.734  0.5613  0.2532 -0.8108
 6520TIP3   OH241050   5.579   4.013  12.162 -0.3905 -0.0977 -0.2181
 6520TIP3    H141051   5.570   3.919  12.180 -1.0369  0.6023  3.6028
 6520TIP3    H241052   5.516   4.055  12.220  2.6770  2.9273  1.1295
 6521TIP3   OH241053   4.980   2.269  13.059  0.3599 -0.3469  0.3233
 6521TIP3    H141054   4.922   2.297  12.988  0.8482 -0.0801  0.0277
 6521TIP3    H241055   4.972   2.338  13.125  1.3181  0.3327 -0.2695
 6522TIP3   OH241056   2.494   1.616   4.036  0.3753 -0.1926 -0.4106
 6522TIP3    H141057   2.528   1.527   4.024 -0.1555 -0.2800 -1.3771
 6522TIP3    H241058   2.571   1.670   4.049  0.7187 -0.7654 -0.0232
 6523TIP3   OH241059   6.273   0.595  15.397 -0.6759  0.4830 -0.4088
 6523TIP3    H141060   6.198   0.557  15.352  0.6845 -1.8681 -0.7716
 6523TIP3    H241061   6.326   0.634  15.328  0.7495 -1.9717 -0.7616
 6524TIP3   OH241062   4.476   4.335  15.308  0.3997 -0.5840  0.4696
 6524TIP3    H141063   4.568   4.316  15.329  0.9114 -0.2822 -1.3660
 6524TIP3    H241064   4.449   4.399  15.373  2.1656  0.9541 -0.2728
 6525TIP3   OH241065   5.769   6.002   2.767  0.3524  0.3236 -0.0714
 6525TIP3    H141066   5.859   6.007   2.801  0.0323  1.4633  0.6184
 6525TIP3    H241067   5.714   6.026   2.841 -0.4668  0.7917 -0.8277
 6526TIP3   OH241068   0.932   6.603   5.584 -0.3246  0.0237  0.0853
 6526TIP3    H141069   0.991   6.637   5.652 -0.4957 -0.6188  0.5689
 6526TIP3    H241070   0.990   6.560   5.522 -0.2641 -0.5018  0.4978
 6527TIP3   OH241071   4.297   4.751   4.074 -0.3939 -0.1630  0.2213
 6527TIP3    H141072   4.283   4.845   4.060 -0.2644 -0.2259 -0.3287
 6527TIP3    H241073   4.385   4.735   4.041 -1.1082 -0.8418 -1.4284
 6528TIP3   OH241074   1.263   5.009  12.572 -0.0496  0.0462  0.7124
 6528TIP3    H141075   1.350   4.970  12.562 -0.4964 -0.4339 -1.5771
 6528TIP3    H241076   1.206   4.955  12.516 -1.9147  0.0446  2.5655
 6529TIP3   OH241077   3.982   6.572  13.790 -0.4506  0.1138  0.6379
 6529TIP3    H141078   3.934   6.608  13.715 -0.2544 -1.3126 -0.1964
 6529TIP3    H241079   3.936   6.490  13.810  0.6830 -0.4809  0.8304
 6530TIP3   OH241080   6.117   5.160  14.701 -0.3851  0.4738  0.2354
 6530TIP3    H141081   6.100   5.153  14.607 -0.9621 -1.2491  0.4479
 6530TIP3    H241082   6.212   5.172  14.707 -0.1427 -0.9183 -0.5266
 6531TIP3   OH241083   6.761   6.040   2.376 -0.0134 -0.1827 -0.0063
 6531TIP3    H141084   6.734   5.950   2.357  0.7605 -0.1974 -1.0477
 6531TIP3    H241085   6.748   6.087   2.294 -0.2279  0.6146  0.4800
 6532TIP3   OH241086   2.040   6.546   5.589 -1.0322  0.6129  0.3214
 6532TIP3    H141087   2.037   6.632   5.631 -2.0342  0.9172 -0.3622
 6532TIP3    H241088   1.981   6.492   5.642 -1.4325  0.7031 -0.0292
 6533TIP3   OH241089   5.046   5.763   0.365  0.3023 -0.7576 -0.4985
 6533TIP3    H141090   5.120   5.817   0.391  0.9282 -1.4485 -0.8555
 6533TIP3    H241091   4.991   5.758   0.443 -0.2812  1.2486 -0.7512
 6534TIP3   OH241092   3.697   1.999   4.318  0.3066 -0.1308  0.3286
 6534TIP3    H141093   3.676   1.907   4.334  1.7473 -0.6676 -0.7598
 6534TIP3    H241094   3.623   2.031   4.266 -0.3549 -0.5845  0.9789
 6535TIP3   OH241095   4.467   0.495   6.360  0.1983  0.1186  0.2853
 6535TIP3    H141096   4.546   0.525   6.406  0.8632 -1.0240 -0.0828
 6535TIP3    H241097   4.468   0.400   6.370 -1.4137  0.1258  0.6900
 6536TIP3   OH241098   4.401   1.144   1.207 -0.4710  0.2339 -0.3957
 6536TIP3    H141099   4.407   1.115   1.298 -0.3048  3.1100  0.5611
 6536TIP3    H241100   4.314   1.182   1.199  0.3591  2.1285 -0.7484
 6537TIP3   OH241101   0.342   4.302  15.292 -0.2619  0.6584  0.2990
 6537TIP3    H141102   0.298   4.374  15.338  0.1348  1.0487  0.0720
 6537TIP3    H241103   0.435   4.313  15.313 -0.3978 -0.9387  1.8547
 6538TIP3   OH241104   2.209   0.813  12.592  0.1866  0.1969 -0.5196
 6538TIP3    H141105   2.296   0.813  12.634  0.1225 -0.7281 -0.3690
 6538TIP3    H241106   2.211   0.888  12.533  0.7849  0.6923  0.1128
 6539TIP3   OH241107   2.049   3.720   6.360 -0.6841  0.1299  0.1585
 6539TIP3    H141108   1.958   3.698   6.380 -0.9823  1.1867 -0.0373
 6539TIP3    H241109   2.047   3.811   6.332  0.3697  0.0080 -0.3413
 6540TIP3   OH241110   1.521   0.545  13.170 -0.1478 -0.6191  0.1710
 6540TIP3    H141111   1.575   0.620  13.198 -0.7627  0.3542 -1.1872
 6540TIP3    H241112   1.577   0.496  13.110 -0.6219  0.1770 -0.9356
 6541TIP3   OH241113   0.148   4.955   5.560 -0.1240  0.6879 -0.1492
 6541TIP3    H141114   0.227   4.904   5.540 -1.5522 -1.9428  0.6617
 6541TIP3    H241115   0.120   4.923   5.645 -2.1140  1.5449 -0.4676
 6542TIP3   OH241116   1.150   5.503  16.383  0.3086  0.1925  0.1975
 6542TIP3    H141117   1.148   5.593  16.350  2.0013 -0.2497 -1.2093
 6542TIP3    H241118   1.059   5.482  16.401  0.0142  2.6174  1.7386
 6543TIP3   OH241119   0.457   5.449   5.172  0.5917 -0.0039  0.5718
 6543TIP3    H141120   0.463   5.492   5.087  0.2716 -1.3113 -0.1326
 6543TIP3    H241121   0.377   5.483   5.211 -1.1621 -2.0286 -1.1790
 6544TIP3   OH241122   3.771   1.353  14.975  0.2756  0.0726  0.3617
 6544TIP3    H141123   3.766   1.318  15.064  0.6315 -1.8139 -0.3307
 6544TIP3    H241124   3.679   1.357  14.946  0.0042  2.4147  1.4238
 6545TIP3   OH241125   1.251   2.175   4.362 -0.0596 -0.0523 -0.0393
 6545TIP3    H141126   1.260   2.237   4.434 -3.0353 -2.2059  2.3251
 6545TIP3    H241127   1.157   2.163   4.351  0.3790 -1.8757 -2.4705
 6546TIP3   OH241128   6.531   1.340   2.566  0.1305 -0.3446  0.1942
 6546TIP3    H141129   6.568   1.253   2.575  0.9688  0.1110  1.2137
 6546TIP3    H241130   6.595   1.389   2.514  0.2692  0.0218  0.7035
 6547TIP3   OH241131   4.007   3.014   1.593  0.7317  0.3065  0.0684
 6547TIP3    H141132   4.085   2.959   1.599  1.0869  0.8176  0.1224
 6547TIP3    H241133   4.006   3.045   1.502  0.8481  0.6719  0.1899
 6548TIP3   OH241134   3.390   0.637   3.801  0.3224  0.0564 -0.0541
 6548TIP3    H141135   3.321   0.571   3.795  1.2401 -0.8039 -1.5736
 6548TIP3    H241136   3.471   0.587   3.793  1.1326  1.0625  1.6569
 6549TIP3   OH241137   1.308   0.158  14.750  0.1788 -0.1303 -0.3801
 6549TIP3    H141138   1.271   0.223  14.809 -0.5863  1.0463 -2.1110
 6549TIP3    H241139   1.390   0.131  14.791 -0.1040  1.0179  0.9599
 6550TIP3   OH241140   2.003   4.689  15.011  0.3722  0.2702  0.8005
 6550TIP3    H141141   1.957   4.642  15.081  0.9274  2.2770  2.5464
 6550TIP3    H241142   2.030   4.620  14.950 -3.1007 -1.1659  0.7776
 6551TIP3   OH241143   1.922   5.608   5.142 -0.2364  0.3288  0.0113
 6551TIP3    H141144   1.891   5.625   5.231 -0.8538 -0.4975 -0.0447
 6551TIP3    H241145   1.883   5.525   5.118  1.0333 -0.1239 -0.5320
 6552TIP3   OH241146   4.079   5.461  16.677  0.3486 -0.8158 -0.2637
 6552TIP3    H141147   4.053   5.368  16.677  3.0151 -1.5856 -0.1540
 6552TIP3    H241148   4.130   5.471  16.598  1.9692  0.0137  0.8707
 6553TIP3   OH241149   1.186   0.584  16.287  0.3814  0.3555  0.1388
 6553TIP3    H141150   1.261   0.529  16.311 -0.5772 -1.5945 -1.2296
 6553TIP3    H241151   1.211   0.625  16.205  0.5078  0.8138  0.4051
 6554TIP3   OH241152   3.086   3.881  12.021 -0.2446 -0.0613  0.6960
 6554TIP3    H141153   3.155   3.907  12.081 -1.0010 -0.8187  1.9230
 6554TIP3    H241154   3.039   3.812  12.068 -0.6843 -0.8563 -0.8730
 6555TIP3   OH241155   3.551   4.919   6.043 -0.0439 -0.3154  0.0356
 6555TIP3    H141156   3.486   4.851   6.027  1.3950 -1.1636 -2.4639
 6555TIP3    H241157   3.538   4.943   6.135 -0.0787 -4.5163  1.2268
 6556TIP3   OH241158   3.965   3.195  16.472 -0.2070 -0.4622  0.0859
 6556TIP3    H141159   3.882   3.185  16.518 -0.2861  2.2336  0.6009
 6556TIP3    H241160   4.015   3.117  16.496 -2.6327 -2.2592 -0.4257
 6557TIP3   OH241161   1.576   0.251  12.912  0.0367  0.0247 -0.3653
 6557TIP3    H141162   1.517   0.227  12.983  0.7151 -1.6656 -0.3613
 6557TIP3    H241163   1.628   0.323  12.947 -0.9383  0.4757  0.1765
 6558TIP3   OH241164   5.491   3.681   0.265  0.0910 -0.0203 -0.1748
 6558TIP3    H141165   5.417   3.730   0.231 -0.5812 -1.7205 -1.2201
 6558TIP3    H241166   5.520   3.626   0.192  3.7690  2.1522 -0.4679
 6559TIP3   OH241167   6.228   6.299   0.574  0.0061  0.1598  0.1931
 6559TIP3    H141168   6.271   6.310   0.489 -2.8352  0.3647 -1.2782
 6559TIP3    H241169   6.235   6.206   0.593 -0.3187 -0.0737 -0.8162
 6560TIP3   OH241170   0.431   6.545   0.025 -0.1457  0.0177  0.0555
 6560TIP3    H141171   0.372   6.478  -0.009  0.7988 -0.1808 -1.2247
 6560TIP3    H241172   0.402   6.626  -0.016  0.4667 -0.0811 -0.5793
 6561TIP3   OH241173   4.550   2.635   2.119  0.5328  0.2932  0.3536
 6561TIP3    H141174   4.593   2.592   2.193  0.0552 -0.0243  0.4460
 6561TIP3    H241175   4.620   2.685   2.077  0.7867  0.5622  1.0819
 6562TIP3   OH241176   3.214   5.336   3.287 -0.2916  0.5918  0.8045
 6562TIP3    H141177   3.304   5.345   3.319  0.0805  0.7047 -0.2457
 6562TIP3    H241178   3.223   5.332   3.192 -1.3827  0.3386  0.7068
 6563TIP3   OH241179   3.222   1.915  14.417  0.1372 -0.1210 -0.4900
 6563TIP3    H141180   3.209   1.991  14.474  3.2098 -0.1788  0.3805
 6563TIP3    H241181   3.165   1.848  14.453 -0.2806  0.8094  0.6227
 6564TIP3   OH241182   3.404   4.188  16.346 -0.4282 -0.3214 -0.0126
 6564TIP3    H141183   3.335   4.215  16.407 -0.7085  0.9299 -0.8571
 6564TIP3    H241184   3.471   4.255  16.355 -0.6694  0.1301 -1.3833
 6565TIP3   OH241185   4.359   3.288  15.137 -0.5696 -0.1851  0.7422
 6565TIP3    H141186   4.368   3.280  15.042 -0.6255  0.4891  0.6800
 6565TIP3    H241187   4.402   3.210  15.171 -2.5729 -1.6011  0.0821
 6566TIP3   OH241188   4.501   3.132  15.808 -0.1267  0.4512 -0.3469
 6566TIP3    H141189   4.448   3.098  15.880  0.0313  0.3641 -0.2723
 6566TIP3    H241190   4.559   3.197  15.849  0.1694  0.1877 -0.3431
 6567TIP3   OH241191   2.471   5.764   1.327  0.1686  0.2857  0.1741
 6567TIP3    H141192   2.515   5.848   1.343 -0.5490  0.3764  1.7603
 6567TIP3    H241193   2.420   5.748   1.406 -0.0330 -1.4525 -0.2809
 6568TIP3   OH241194   5.651   6.464  15.119 -0.1849 -0.2429  0.0245
 6568TIP3    H141195   5.565   6.505  15.125  0.5008  1.1624  0.5474
 6568TIP3    H241196   5.675   6.473  15.027 -0.4291 -0.2861 -0.0437
 6569TIP3   OH241197   5.781   0.505  15.996 -0.1255 -0.0135 -0.2325
 6569TIP3    H141198   5.757   0.538  16.082 -0.0872  0.5489 -0.4348
 6569TIP3    H241199   5.817   0.582  15.950  0.9208 -0.5620 -0.3470
 6570TIP3   OH241200   4.459   5.929  17.214  0.0176 -0.3249 -0.1711
 6570TIP3    H141201   4.471   5.986  17.290 -0.1019 -0.9575  0.3291
 6570TIP3    H241202   4.526   5.862  17.223  2.1379  1.4257 -2.3713
 6571TIP3   OH241203   2.635   6.677   2.336 -0.3508  0.0427  0.0715
 6571TIP3    H141204   2.632   6.591   2.293 -1.9382 -0.4472  1.1060
 6571TIP3    H241205   2.666   6.658   2.425  1.9665  0.9226 -0.5114
 6572TIP3   OH241206   6.674   1.451  13.237 -0.6987  0.0399  0.3479
 6572TIP3    H141207   6.691   1.527  13.182 -1.5808  1.4716  2.0217
 6572TIP3    H241208   6.587   1.421  13.211 -0.6341  0.0105  0.1644
 6573TIP3   OH241209   1.350   2.204  11.475 -0.0943  0.3555 -0.3899
 6573TIP3    H141210   1.358   2.150  11.555  2.0907  1.5479  0.2424
 6573TIP3    H241211   1.353   2.140  11.404 -0.6101 -0.6162  0.4343
 6574TIP3   OH241212   4.970   1.228  12.947  0.4964 -0.2095 -0.6459
 6574TIP3    H141213   5.007   1.292  12.886  0.6302 -0.3854 -0.7519
 6574TIP3    H241214   4.894   1.193  12.900  0.1586  0.2023 -0.4012
 6575TIP3   OH241215   5.570   0.694  11.535 -0.2236 -0.5837 -0.1358
 6575TIP3    H141216   5.608   0.779  11.513 -1.2483  0.2757  1.3359
 6575TIP3    H241217   5.549   0.655  11.450  4.4122 -1.3784 -1.0766
 6576TIP3   OH241218   0.118   2.384  16.569 -0.2406  0.1696  0.4526
 6576TIP3    H141219   0.164   2.306  16.537 -1.1999 -1.1615  2.2476
 6576TIP3    H241220   0.098   2.365  16.660 -0.2324  2.6646  1.0253
 6577TIP3   OH241221   2.510   2.534  11.734  0.2025  0.4355  0.0566
 6577TIP3    H141222   2.491   2.619  11.774  0.2459  1.0957 -1.3080
 6577TIP3    H241223   2.440   2.520  11.671 -0.0434 -0.7505  0.5803
 6578TIP3   OH241224   1.510   4.474   5.053 -0.0361 -0.3043  0.2715
 6578TIP3    H141225   1.542   4.392   5.015 -0.4564 -1.0208  1.4623
 6578TIP3    H241226   1.589   4.521   5.079  0.2479  0.0682 -1.2113
 6579TIP3   OH241227   1.819   5.790  15.373 -0.0141 -0.5148  0.1647
 6579TIP3    H141228   1.815   5.874  15.419 -1.3384  0.6810 -2.0610
 6579TIP3    H241229   1.760   5.733  15.423  0.7746 -0.0952  1.5917
 6580TIP3   OH241230   1.891   1.091  15.249 -0.3597  0.4962 -0.3313
 6580TIP3    H141231   1.960   1.043  15.203 -0.9917  0.2635 -1.0338
 6580TIP3    H241232   1.809   1.052  15.219 -0.7948  0.5316  0.7762
 6581TIP3   OH241233   0.868   3.404   3.773 -0.5792 -0.3388  0.1822
 6581TIP3    H141234   0.824   3.489   3.777  0.0857  0.0109  0.2576
 6581TIP3    H241235   0.936   3.416   3.707 -0.8670 -1.0012 -0.2392
 6582TIP3   OH241236   5.394   0.118   4.144 -0.0227  0.2241 -0.1424
 6582TIP3    H141237   5.460   0.048   4.142 -0.7606 -0.5223  1.0774
 6582TIP3    H241238   5.416   0.174   4.069  3.4002  1.2820  1.5733
 6583TIP3   OH241239   2.352   2.363  16.439  0.2185  0.1794 -0.5613
 6583TIP3    H141240   2.339   2.280  16.394  0.5441 -1.7671  2.7243
 6583TIP3    H241241   2.298   2.426  16.391 -4.0317 -2.9948 -0.2350
 6584TIP3   OH241242   5.936   1.440   0.142  0.2218 -0.2561 -0.1931
 6584TIP3    H141243   5.982   1.520   0.119 -1.2609  0.4865 -0.6168
 6584TIP3    H241244   5.963   1.377   0.075  1.2698 -0.0804  0.0541
 6585TIP3   OH241245   5.540   2.059   2.198 -0.8029 -0.2995  0.5844
 6585TIP3    H141246   5.520   2.114   2.274 -0.9812 -1.2634  1.2354
 6585TIP3    H241247   5.636   2.063   2.191 -0.8841  1.0142 -0.0763
 6586TIP3   OH241248   1.473   4.287  15.761  0.0727  0.4010  0.4091
 6586TIP3    H141249   1.495   4.209  15.710  1.2774  1.4107 -0.6608
 6586TIP3    H241250   1.437   4.348  15.696 -0.1258  1.0112  1.0962
 6587TIP3   OH241251   4.230   5.845   2.853 -0.2080  0.0243 -0.0143
 6587TIP3    H141252   4.295   5.892   2.906 -0.2866  1.1695 -0.9055
 6587TIP3    H241253   4.249   5.753   2.868 -0.1364  0.3238  1.8967
 6588TIP3   OH241254   3.246   0.186  13.760 -0.0008 -0.3963  0.2192
 6588TIP3    H141255   3.158   0.198  13.793 -0.0305 -0.4688  0.1667
 6588TIP3    H241256   3.244   0.102  13.715 -0.0750 -0.1092 -0.3274
 6589TIP3   OH241257   3.462   3.899   0.147 -0.5172  0.0736 -0.1769
 6589TIP3    H141258   3.538   3.865   0.195 -0.1426  0.0749 -0.7680
 6589TIP3    H241259   3.417   3.955   0.210 -0.3826 -0.4435  0.3781
 6590TIP3   OH241260   1.980   1.827   3.168  0.3211  0.1789 -0.1288
 6590TIP3    H141261   2.053   1.771   3.143 -1.5288 -1.6747 -1.5305
 6590TIP3    H241262   1.949   1.864   3.086 -0.8003  0.3261  0.3546
 6591TIP3   OH241263   0.853   3.750  17.274 -0.2791 -0.2995  0.1016
 6591TIP3    H141264   0.764   3.727  17.249 -0.1491  0.8076 -1.4250
 6591TIP3    H241265   0.850   3.844  17.292  0.7926 -0.0596 -0.9208
 6592TIP3   OH241266   3.485   6.106  16.244 -0.0781  0.1489  0.1565
 6592TIP3    H141267   3.502   6.201  16.247 -0.4366  0.2080  0.4581
 6592TIP3    H241268   3.571   6.067  16.235  0.1722  0.4680  1.0562
 6593TIP3   OH241269   0.334   4.216  15.024 -0.6913  0.4637 -0.1674
 6593TIP3    H141270   0.260   4.276  15.010 -1.7029 -1.1386 -1.8155
 6593TIP3    H241271   0.380   4.253  15.100 -2.1718  2.4563 -0.1903
 6594TIP3   OH241272   5.899   4.081  14.131 -0.0951 -0.2116  0.1832
 6594TIP3    H141273   5.877   4.173  14.146  0.9072 -0.2160  1.8199
 6594TIP3    H241274   5.988   4.083  14.095 -0.7192 -0.4549 -1.3702
 6595TIP3   OH241275   4.825   0.120   5.576 -0.6925 -0.2571 -0.3604
 6595TIP3    H141276   4.801   0.205   5.539 -1.1361 -0.3168 -0.2186
 6595TIP3    H241277   4.911   0.134   5.615 -0.1708 -0.2279 -1.5143
 6596TIP3   OH241278   3.047   1.128   1.844  0.5615  0.2027  0.2227
 6596TIP3    H141279   3.006   1.066   1.904  2.4920 -0.7480  0.6069
 6596TIP3    H241280   3.040   1.213   1.887 -1.3749  0.1552  0.0631
 6597TIP3   OH241281   2.360   1.144   3.057 -0.4634 -0.2728 -0.0974
 6597TIP3    H141282   2.338   1.118   2.967  1.4509  0.4303 -0.8040
 6597TIP3    H241283   2.444   1.102   3.074  0.5285  1.7978  0.3471
 6598TIP3   OH241284   2.807   3.536   1.189 -0.4425 -0.3314  0.2289
 6598TIP3    H141285   2.877   3.553   1.252  1.5702 -0.0156 -2.0068
 6598TIP3    H241286   2.846   3.557   1.104 -3.4771  0.4457 -1.0203
 6599TIP3   OH241287   5.675   2.915  15.265  0.5785  0.0828  0.3375
 6599TIP3    H141288   5.762   2.887  15.238 -0.0330 -2.6099  0.9962
 6599TIP3    H241289   5.665   2.881  15.354 -1.0325  0.6380  0.3901
 6600TIP3   OH241290   1.793   1.249  11.737  0.5200  0.3799 -0.4939
 6600TIP3    H141291   1.750   1.164  11.727 -0.6251  0.8498  0.2794
 6600TIP3    H241292   1.853   1.254  11.663  0.5819 -1.0846 -0.5710
 6601TIP3   OH241293   0.540   6.472   6.209  1.1738 -0.4298  0.2629
 6601TIP3    H141294   0.574   6.513   6.288  1.5694  1.3124 -0.7904
 6601TIP3    H241295   0.618   6.436   6.166  1.0865 -0.4927  0.1578
 6602TIP3   OH241296   5.981   0.187  11.479  0.0606 -0.2712 -0.4167
 6602TIP3    H141297   5.945   0.121  11.539  0.0054 -0.2264 -0.4001
 6602TIP3    H241298   6.056   0.144  11.438  0.8977  0.1403  0.6526
 6603TIP3   OH241299   6.548   6.026   3.146 -0.1600 -0.2778  0.2493
 6603TIP3    H141300   6.632   6.067   3.168  0.3075  0.0097 -1.9509
 6603TIP3    H241301   6.561   5.933   3.164  1.1837 -0.4715 -1.6175
 6604TIP3   OH241302   5.810   5.322   2.886 -0.3303 -0.0489 -0.6154
 6604TIP3    H141303   5.779   5.364   2.806 -0.0692  0.9895 -0.1807
 6604TIP3    H241304   5.739   5.336   2.950 -0.1045  0.0154 -0.3767
 6605TIP3   OH241305   2.686   1.249   3.197 -0.4009 -0.6656  0.1753
 6605TIP3    H141306   2.605   1.271   3.243 -1.9872 -3.2606 -1.2571
 6605TIP3    H241307   2.735   1.196   3.260 -0.7230 -0.7537  0.3558
 6606TIP3   OH241308   1.364   0.802  15.490  0.2628 -0.7151  0.1957
 6606TIP3    H141309   1.293   0.752  15.531 -1.6853 -1.0058 -3.3443
 6606TIP3    H241310   1.434   0.737  15.476 -0.8716 -1.7004 -1.1008
 6607TIP3   OH241311   3.120   6.228  17.098  0.3436 -0.1977  0.0167
 6607TIP3    H141312   3.097   6.226  17.005  1.6897  0.6423 -0.3481
 6607TIP3    H241313   3.075   6.305  17.132  0.0326 -0.3780  0.0143
 6608TIP3   OH241314   4.727   1.759   3.961 -0.6139  0.0272 -0.0036
 6608TIP3    H141315   4.674   1.720   4.030 -0.8190 -0.7407 -0.5897
 6608TIP3    H241316   4.675   1.747   3.881  0.4557 -0.7423 -0.5947
 6609TIP3   OH241317   0.739   1.166   0.211  0.3566  0.2387 -0.5096
 6609TIP3    H141318   0.679   1.092   0.217  0.2948  0.3293  0.0358
 6609TIP3    H241319   0.823   1.126   0.188 -0.0258  0.1692 -1.8105
 6610TIP3   OH241320   4.417   6.659  15.916  0.1776 -0.4239 -0.0665
 6610TIP3    H141321   4.351   6.599  15.881  0.5198 -0.7554 -0.1555
 6610TIP3    H241322   4.420   6.730  15.852  2.1333 -1.9371 -1.7311
 6611TIP3   OH241323   5.735   4.296  15.898 -0.1792  0.2159 -0.0368
 6611TIP3    H141324   5.755   4.386  15.923  0.0481  0.4162 -0.9415
 6611TIP3    H241325   5.796   4.276  15.827 -0.2806 -0.6215  0.1017
 6612TIP3   OH241326   2.719   1.674   6.539  0.7749  0.3196 -0.6215
 6612TIP3    H141327   2.640   1.644   6.583  1.1137 -0.9927 -0.8848
 6612TIP3    H241328   2.694   1.755   6.496  0.2243  1.2100  1.3385
 6613TIP3   OH241329   3.554   4.058  14.636 -0.9220  0.4395  0.0837
 6613TIP3    H141330   3.508   4.005  14.700  1.3006 -0.5169  0.9673
 6613TIP3    H241331   3.591   4.131  14.687  1.4830 -0.7307  0.0918
 6614TIP3   OH241332   4.213   6.508  10.878  0.2627 -0.8365 -0.4812
 6614TIP3    H141333   4.119   6.519  10.863  0.0972 -2.3600 -0.6015
 6614TIP3    H241334   4.223   6.416  10.901  1.2748  0.0240  2.9187
 6615TIP3   OH241335   3.090   3.240  12.851 -0.0629 -0.1633 -0.3778
 6615TIP3    H141336   3.161   3.184  12.883 -0.7151 -0.9953 -0.3850
 6615TIP3    H241337   3.082   3.218  12.758  0.4416  0.7691 -0.6539
 6616TIP3   OH241338   4.287   5.663  12.671 -0.3312  0.0849  0.4792
 6616TIP3    H141339   4.323   5.735  12.723 -0.1557  0.3511  0.0007
 6616TIP3    H241340   4.363   5.608  12.650 -0.7302 -1.2248  2.3414
 6617TIP3   OH241341   3.407   5.704   6.153  0.7853  0.3107  0.2966
 6617TIP3    H141342   3.386   5.634   6.214  1.1289 -0.2269 -0.1931
 6617TIP3    H241343   3.350   5.777   6.179 -0.6741 -0.6589 -0.1477
 6618TIP3   OH241344   0.606   5.470   6.259  0.3247 -0.1097 -1.2147
 6618TIP3    H141345   0.538   5.419   6.215  1.7169 -1.9176 -1.3094
 6618TIP3    H241346   0.600   5.443   6.350  0.2820  0.4711 -1.0423
 6619TIP3   OH241347   0.321   4.141  11.797  0.3748 -0.5632  0.7299
 6619TIP3    H141348   0.349   4.126  11.707  1.3557 -1.0079  1.1058
 6619TIP3    H241349   0.297   4.054  11.829 -1.1783 -0.2406  0.5125
 6620TIP3   OH241350   1.172   6.550  16.055  0.2490 -0.2240 -0.1870
 6620TIP3    H141351   1.220   6.501  15.988 -0.9425 -0.2400 -1.0374
 6620TIP3    H241352   1.108   6.601  16.006  0.0482  0.5488  0.8718
 6621TIP3   OH241353   3.220   5.875   5.877 -0.1080  0.1138 -0.1390
 6621TIP3    H141354   3.299   5.927   5.891  0.8241 -1.1803 -0.5023
 6621TIP3    H241355   3.175   5.919   5.805 -0.5868  1.8235  1.1658
 6622TIP3   OH241356   4.979   0.217   6.647  1.0347 -0.1330 -0.5175
 6622TIP3    H141357   4.929   0.237   6.569  0.8903 -0.8969 -0.6293
 6622TIP3    H241358   5.003   0.302   6.684 -1.8890  0.2692  0.5519
 6623TIP3   OH241359   0.684   1.622  12.070  0.7426  0.3956 -0.2710
 6623TIP3    H141360   0.677   1.718  12.065  0.8367  0.5247  1.6172
 6623TIP3    H241361   0.664   1.602  12.161 -1.5435 -1.6002 -1.1651
 6624TIP3   OH241362   1.271   5.267  13.482  0.3968 -0.4509 -0.3206
 6624TIP3    H141363   1.327   5.191  13.469  1.1659  0.1084 -0.2599
 6624TIP3    H241364   1.197   5.253  13.423  1.1766 -0.6030 -1.2548
 6625TIP3   OH241365   4.884   2.222   5.778  0.0244 -0.3731  0.1763
 6625TIP3    H141366   4.928   2.160   5.836 -0.5401 -1.6621 -0.7322
 6625TIP3    H241367   4.791   2.216   5.802 -0.4711 -2.2220 -1.9643
 6626TIP3   OH241368   0.323   3.406  12.621  0.1176  0.0674  0.1851
 6626TIP3    H141369   0.233   3.379  12.641  0.2691 -0.6258 -0.0603
 6626TIP3    H241370   0.371   3.323  12.613  1.0981  0.4455  1.8214
 6627TIP3   OH241371   3.069   5.617  15.490 -0.5694 -0.4227  0.0450
 6627TIP3    H141372   3.005   5.555  15.525  0.8233 -2.0238 -0.1865
 6627TIP3    H241373   3.152   5.590  15.530  0.1135  1.0916 -0.3269
 6628TIP3   OH241374   5.908   4.642   5.086 -0.4279 -0.4550 -0.0878
 6628TIP3    H141375   5.910   4.736   5.069 -0.3427 -0.3151  0.6799
 6628TIP3    H241376   5.966   4.604   5.021 -1.2058 -0.0740 -1.0176
 6629TIP3   OH241377   1.032   1.433   6.430 -0.7005 -0.5956  0.0321
 6629TIP3    H141378   0.996   1.356   6.476  0.2254 -1.0422  0.0192
 6629TIP3    H241379   0.967   1.502   6.445 -0.9961 -1.0713  0.9915
 6630TIP3   OH241380   3.183   3.372   6.005  0.0480 -0.2700 -0.0307
 6630TIP3    H141381   3.098   3.349   6.043 -0.1129  1.1954  0.5255
 6630TIP3    H241382   3.165   3.450   5.953  1.0923  0.1365  0.2131
 6631TIP3   OH241383   3.386   1.076   0.714  0.4261  0.2286 -0.4977
 6631TIP3    H141384   3.416   1.083   0.623  2.5061 -1.9295 -0.0229
 6631TIP3    H241385   3.445   1.133   0.763  1.5717 -1.2845 -0.0600
 6632TIP3   OH241386   3.296   6.239  14.858  0.1523  0.2828  0.0404
 6632TIP3    H141387   3.275   6.238  14.765  0.4839 -1.2953 -0.0271
 6632TIP3    H241388   3.215   6.265  14.901 -0.1005  0.6505 -0.6579
 6633TIP3   OH241389   3.256   4.708   5.729  0.3362 -0.2608 -0.0568
 6633TIP3    H141390   3.222   4.757   5.804  0.1600 -0.7300  0.1744
 6633TIP3    H241391   3.350   4.705   5.742  0.2580 -0.7865  0.4221
 6634TIP3   OH241392   2.273   1.009   3.878  0.1417  0.1349  0.5217
 6634TIP3    H141393   2.351   1.055   3.848 -0.0739 -0.3648 -0.8239
 6634TIP3    H241394   2.228   0.983   3.798 -1.5087  0.5939  1.2816
 6635TIP3   OH241395   3.336   4.871   3.905  0.0035 -0.0235 -0.0834
 6635TIP3    H141396   3.401   4.901   3.969  1.3210 -0.9381 -0.9713
 6635TIP3    H241397   3.378   4.883   3.820 -0.3187 -2.1959 -0.5734
 6636TIP3   OH241398   1.462   3.999  14.461 -0.5153 -0.3100  0.2824
 6636TIP3    H141399   1.424   4.086  14.448  0.9294  0.3112  0.1952
 6636TIP3    H241400   1.419   3.945  14.395 -1.8184  0.2041  0.6864
 6637TIP3   OH241401   1.432   0.290   0.960  0.1419 -0.4092  0.1065
 6637TIP3    H141402   1.404   0.211   1.006 -0.3397  0.2726  1.0158
 6637TIP3    H241403   1.354   0.318   0.911 -0.1414  0.3075  0.9514
 6638TIP3   OH241404   4.457   6.795  12.337 -0.0428  0.1959  0.2271
 6638TIP3    H141405   4.399   6.863  12.371  0.9642  1.0694  0.2336
 6638TIP3    H241406   4.525   6.786  12.404 -1.5121 -2.5717  1.3725
 6639TIP3   OH241407   6.281   2.721  15.051  0.1690  0.0909  0.5506
 6639TIP3    H141408   6.339   2.658  15.008 -1.0848 -1.4387  1.0660
 6639TIP3    H241409   6.199   2.717  15.001 -0.1638  0.7923  1.0192
 6640TIP3   OH241410   2.273   2.141  10.528  0.0457 -0.0553 -0.2284
 6640TIP3    H141411   2.289   2.231  10.499 -1.6357  0.2610 -0.2292
 6640TIP3    H241412   2.314   2.137  10.615 -1.4055  1.2578  0.5347
 6641TIP3   OH241413   3.085   4.784  14.530 -0.1158 -0.6525 -0.5194
 6641TIP3    H141414   3.023   4.840  14.482  1.1470  1.0531 -0.2150
 6641TIP3    H241415   3.150   4.759  14.465  1.1671  1.0228  0.0872
 6642TIP3   OH241416   6.250   0.075  11.124 -0.2368  0.2779 -0.0519
 6642TIP3    H141417   6.186   0.016  11.164  0.4473 -0.6202 -0.2720
 6642TIP3    H241418   6.213   0.094  11.037 -0.6178  0.4322  0.1414
 6643TIP3   OH241419   2.950   5.539  12.188  0.1642  0.1127  0.5354
 6643TIP3    H141420   2.982   5.625  12.214 -1.7112  0.6395  1.2297
 6643TIP3    H241421   2.920   5.499  12.269  1.3608 -1.3571  0.2700
 6644TIP3   OH241422   6.031   2.576  16.755  0.1231 -0.3931  0.0779
 6644TIP3    H141423   6.079   2.502  16.792  1.0049  0.8168  1.4406
 6644TIP3    H241424   6.097   2.626  16.707 -0.5324 -0.6621 -1.1066
 6645TIP3   OH241425   0.433   4.572   5.783  0.0415  0.7345  0.6368
 6645TIP3    H141426   0.518   4.529   5.777 -0.5251 -0.4598  0.9952
 6645TIP3    H241427   0.370   4.504   5.759 -0.8971  1.2301  1.6467
 6646TIP3   OH241428   4.607   5.622   6.137 -0.0793  0.3238 -0.0090
 6646TIP3    H141429   4.601   5.638   6.231  0.6275  0.7423 -0.0320
 6646TIP3    H241430   4.560   5.540   6.124 -0.8835  0.6849  0.5897
 6647TIP3   OH241431   6.564   1.178  11.438 -0.1515  0.1979 -0.3247
 6647TIP3    H141432   6.590   1.109  11.500 -0.6501 -0.1275 -0.4765
 6647TIP3    H241433   6.635   1.180  11.374 -0.6014 -0.8580 -0.8690
 6648TIP3   OH241434   5.519   0.458  15.871 -0.0245 -0.1675  0.7591
 6648TIP3    H141435   5.503   0.498  15.785 -1.0891  2.1705  1.9988
 6648TIP3    H241436   5.613   0.470  15.885  0.3916 -1.6602 -0.5855
 6649TIP3   OH241437   5.025   5.257  14.725  0.4242  0.6643 -0.2028
 6649TIP3    H141438   5.049   5.265  14.817 -0.3537  0.0942  0.0479
 6649TIP3    H241439   5.109   5.258  14.679  0.9939 -1.7254  0.7116
 6650TIP3   OH241440   5.858   0.088   6.416 -0.5497 -0.9374 -0.3676
 6650TIP3    H141441   5.824   0.172   6.446  2.3577 -0.1572  0.9227
 6650TIP3    H241442   5.897   0.048   6.494  1.2684 -1.8396 -1.6957
 6651TIP3   OH241443   1.521   2.281  11.744 -0.0422  0.3571  0.2542
 6651TIP3    H141444   1.601   2.295  11.795 -0.2524 -1.5827  1.1608
 6651TIP3    H241445   1.552   2.249  11.659  0.2635  2.6741 -0.5404
 6652TIP3   OH241446   0.965   5.907   2.992  1.0178  0.2498 -0.1426
 6652TIP3    H141447   0.891   5.967   2.980  0.7687  0.1492  0.8901
 6652TIP3    H241448   1.028   5.934   2.925  1.0120  1.8221  0.4466
 6653TIP3   OH241449   6.130   4.855   2.448 -0.6989 -0.3791  0.8634
 6653TIP3    H141450   6.147   4.762   2.461  1.6129  0.3308  3.2843
 6653TIP3    H241451   6.095   4.885   2.531 -3.9603  0.4371 -0.7089
 6654TIP3   OH241452   1.270   3.884   2.208 -0.2245  0.4603  0.5858
 6654TIP3    H141453   1.207   3.829   2.254  0.5661 -1.8103 -0.9837
 6654TIP3    H241454   1.334   3.909   2.275 -1.7034  1.1614  1.7543
 6655TIP3   OH241455   2.107   2.956  12.725  0.1161 -0.1736 -0.2087
 6655TIP3    H141456   2.188   2.989  12.686 -0.3581  2.5105  0.9684
 6655TIP3    H241457   2.134   2.924  12.812 -0.3152  2.5327  0.9991
 6656TIP3   OH241458   1.973   3.636  15.823 -0.2819  0.2472 -0.0369
 6656TIP3    H141459   1.962   3.724  15.786 -0.9260  0.1097 -0.1762
 6656TIP3    H241460   1.885   3.600  15.826  0.1859 -1.1942 -1.9930
 6657TIP3   OH241461   3.148   3.925  11.531 -0.4016 -0.5187 -0.5762
 6657TIP3    H141462   3.126   4.006  11.486  1.3135 -1.3894 -3.0897
 6657TIP3    H241463   3.243   3.926  11.539 -0.4976 -1.4025  1.1504
 6658TIP3   OH241464   1.297   2.202  14.082  0.0405 -0.3485  0.0279
 6658TIP3    H141465   1.290   2.292  14.050  0.5944 -0.2442  0.2022
 6658TIP3    H241466   1.371   2.203  14.142 -0.1383 -0.8551  0.2635
 6659TIP3   OH241467   0.033   4.309  16.698  0.4209  0.4957  0.7609
 6659TIP3    H141468   0.090   4.260  16.638 -0.6135  1.3053 -0.9164
 6659TIP3    H241469   0.032   4.256  16.777  0.9950 -1.1379 -0.2892
 6660TIP3   OH241470   6.059   6.357   5.327 -0.0562 -0.6985 -0.2760
 6660TIP3    H141471   6.073   6.428   5.264  1.6123 -1.4348 -0.7557
 6660TIP3    H241472   5.971   6.325   5.307  0.3108 -0.6929 -2.0330
 6661TIP3   OH241473   6.479   3.077  14.680 -0.0298  0.0411  0.6239
 6661TIP3    H141474   6.455   3.169  14.679  1.9064  0.5667  1.0168
 6661TIP3    H241475   6.419   3.036  14.617 -1.8558  1.2944  1.5075
 6662TIP3   OH241476   4.056   1.873   0.527  0.3505  0.5364 -0.5943
 6662TIP3    H141477   4.039   1.825   0.608 -0.6441 -0.2438 -1.2471
 6662TIP3    H241478   4.082   1.960   0.555  1.1738 -0.0744  0.5925
 6663TIP3   OH241479   5.549   6.382  13.800  0.6260 -0.3910  0.2112
 6663TIP3    H141480   5.590   6.450  13.747  1.4158 -0.8270  0.2501
 6663TIP3    H241481   5.543   6.306  13.742 -3.2594  0.6440 -0.8867
 6664TIP3   OH241482   6.529   1.675  13.756 -0.6285 -0.1196 -0.0388
 6664TIP3    H141483   6.509   1.750  13.812  2.4426  0.5836  0.2078
 6664TIP3    H241484   6.571   1.612  13.814  0.9218 -0.1275 -1.1254
 6665TIP3   OH241485   5.379   1.989   3.771 -0.0310 -0.1711  0.0855
 6665TIP3    H141486   5.458   1.989   3.717  0.0020 -0.3402  0.1313
 6665TIP3    H241487   5.378   1.902   3.810 -0.4005 -0.2704 -0.1473
 6666TIP3   OH241488   3.500   1.161   5.414  0.2954  0.0218 -0.4191
 6666TIP3    H141489   3.510   1.246   5.371 -1.3178 -0.2672 -1.4195
 6666TIP3    H241490   3.427   1.119   5.368 -1.0005 -0.6088  2.0927
 6667TIP3   OH241491   1.582   5.515   3.007 -0.4445  0.2585  0.4256
 6667TIP3    H141492   1.662   5.491   2.962  0.4616  1.5909  1.2701
 6667TIP3    H241493   1.609   5.583   3.070 -2.3287  1.2018  0.2704
 6668TIP3   OH241494   6.192   3.621   2.326 -0.3985 -0.0028  0.2716
 6668TIP3    H141495   6.190   3.562   2.251  1.9028 -1.3091  1.1846
 6668TIP3    H241496   6.271   3.674   2.313 -0.0965 -0.0979  1.6635
 6669TIP3   OH241497   0.454   1.038   2.652  0.3579  0.0199  0.2674
 6669TIP3    H141498   0.488   1.126   2.637  2.7650 -1.5025 -3.9319
 6669TIP3    H241499   0.498   1.008   2.731  3.4198  0.7216 -1.1280
 6670TIP3   OH241500   0.784   3.052   4.057 -0.5162  0.6012  0.6881
 6670TIP3    H141501   0.712   3.017   4.109  0.3137 -3.6959 -0.9178
 6670TIP3    H241502   0.741   3.096   3.984 -1.5478 -0.0770  0.8785
 6671TIP3   OH241503   6.794   2.662  17.097  0.7224 -0.1162  0.3702
 6671TIP3    H141504   6.880   2.698  17.121  0.6803  1.0377 -1.1346
 6671TIP3    H241505   6.733   2.704  17.158  0.8053  1.6756 -0.7345
 6672TIP3   OH241506   5.115   0.068  16.993 -0.1085  0.2976 -0.1893
 6672TIP3    H141507   5.023   0.075  16.967 -0.4764 -0.0028  1.0104
 6672TIP3    H241508   5.144   0.158  17.006 -0.5687  0.3407  0.5665
 6673TIP3   OH241509   2.279   0.950   2.272 -0.6488 -0.4930 -0.3436
 6673TIP3    H141510   2.296   1.005   2.196 -2.5878  0.7066  0.0683
 6673TIP3    H241511   2.353   0.969   2.331  1.8381 -2.7892 -2.5978
 6674TIP3   OH241512   1.759   3.264  15.354 -0.0176  0.8567 -0.1584
 6674TIP3    H141513   1.830   3.325  15.335 -0.7725  1.2914 -1.6808
 6674TIP3    H241514   1.714   3.252  15.270  1.1201 -3.0969 -0.3410
 6675TIP3   OH241515   4.851   3.214   3.597 -0.0282  0.3052 -0.2846
 6675TIP3    H141516   4.848   3.180   3.686  0.5927  0.6831 -0.1136
 6675TIP3    H241517   4.889   3.302   3.606  0.1966  0.2799 -0.9317
 6676TIP3   OH241518   3.123   0.639  12.073 -0.2635  0.0526  0.2704
 6676TIP3    H141519   3.216   0.660  12.071 -0.1728 -0.3919 -0.5546
 6676TIP3    H241520   3.118   0.558  12.125 -0.0457 -0.5520 -0.6248
 6677TIP3   OH241521   1.303   5.051  14.059 -0.0648  0.0469  0.5408
 6677TIP3    H141522   1.225   5.085  14.014  0.6347  1.1876  0.1557
 6677TIP3    H241523   1.375   5.072  13.999  0.6755  0.0814  1.4472
 6678TIP3   OH241524   4.292   1.427   3.408 -0.5419 -0.6334  0.0679
 6678TIP3    H141525   4.208   1.404   3.446  0.0431 -0.6209  1.3713
 6678TIP3    H241526   4.317   1.350   3.356 -0.1671 -1.6261  1.7062
 6679TIP3   OH241527   5.738   3.505   6.571  0.7072  0.1487 -0.1498
 6679TIP3    H141528   5.694   3.483   6.490  0.8426 -1.6808  0.2445
 6679TIP3    H241529   5.684   3.572   6.611  0.0860  0.3094 -1.2529
 6680TIP3   OH241530   4.890   6.546  13.959  0.3806 -0.2377  0.5046
 6680TIP3    H141531   4.963   6.507  13.911 -0.4790 -1.1775 -0.0732
 6680TIP3    H241532   4.836   6.586  13.891  0.2477  0.2597  0.9038
 6681TIP3   OH241533   6.237   2.975   2.646  0.1831 -0.3608  0.0454
 6681TIP3    H141534   6.254   3.019   2.729  0.5500  0.2948 -0.3687
 6681TIP3    H241535   6.252   2.882   2.664  1.3042 -0.1170  0.4540
 6682TIP3   OH241536   2.010   0.581  15.239 -0.4634  0.1632 -0.1484
 6682TIP3    H141537   1.940   0.518  15.255 -0.2971 -0.8184 -3.0843
 6682TIP3    H241538   2.064   0.577  15.318 -3.1945  0.2985  1.7873
 6683TIP3   OH241539   4.199   2.160  11.349 -0.4037 -0.1146  0.3892
 6683TIP3    H141540   4.166   2.116  11.270 -0.3891  0.3867  0.1049
 6683TIP3    H241541   4.205   2.090  11.414 -1.4593 -0.3318  0.2661
 6684TIP3   OH241542   4.183   0.888   0.314  0.3669 -0.3230 -0.6567
 6684TIP3    H141543   4.239   0.938   0.254  1.9992 -1.4402 -0.1151
 6684TIP3    H241544   4.208   0.797   0.300  1.3164 -0.5591  2.1973
 6685TIP3   OH241545   4.194   0.460   4.038  0.3615  0.1976  0.2119
 6685TIP3    H141546   4.150   0.410   3.969  0.4348  0.8171 -0.2928
 6685TIP3    H241547   4.147   0.544   4.040  0.4648  0.2414  0.8033
 6686TIP3   OH241548   3.593   0.519  13.678 -0.1958  0.0812  0.3044
 6686TIP3    H141549   3.615   0.462  13.751 -1.4774 -1.0709 -0.1921
 6686TIP3    H241550   3.519   0.476  13.635 -0.0199  1.1893 -1.1506
 6687TIP3   OH241551   5.868   5.215   6.446 -0.1723 -0.3642  0.0033
 6687TIP3    H141552   5.952   5.250   6.416  0.1073 -0.4675  0.6677
 6687TIP3    H241553   5.887   5.124   6.470 -0.6476 -0.6359 -0.5988
 6688TIP3   OH241554   5.162   5.129  12.311  0.1642  0.8072 -0.1287
 6688TIP3    H141555   5.143   5.218  12.341 -0.2408  0.0704  1.8396
 6688TIP3    H241556   5.192   5.083  12.389  0.3302 -0.8009 -1.1219
 6689TIP3   OH241557   2.790   4.396  13.601 -0.2315  0.4293  0.6480
 6689TIP3    H141558   2.834   4.402  13.685  2.8708  0.8152 -0.9198
 6689TIP3    H241559   2.777   4.487  13.574  0.3886  0.3312 -0.0298
 6690TIP3   OH241560   6.009   5.457   1.447  0.5085  0.1478 -0.2926
 6690TIP3    H141561   6.073   5.484   1.514  1.5190 -0.9400 -0.8133
 6690TIP3    H241562   6.050   5.383   1.403 -1.1322 -0.5740 -0.6295
 6691TIP3   OH241563   2.305   1.971  14.080 -0.7647  0.1496  0.0674
 6691TIP3    H141564   2.398   1.972  14.056 -0.7566 -1.5420 -0.0396
 6691TIP3    H241565   2.305   1.988  14.174 -0.4021  0.8758 -0.0587
 6692TIP3   OH241566   1.493   0.679  14.051  0.0425 -0.1248 -0.1082
 6692TIP3    H141567   1.569   0.633  14.017  0.7233  1.7474 -1.1973
 6692TIP3    H241568   1.529   0.752  14.102 -1.0022  1.2563 -1.3079
 6693TIP3   OH241569   0.243   4.125  17.033 -0.3978 -0.7043 -0.6142
 6693TIP3    H141570   0.230   4.059  17.101 -1.2592  2.4682  2.4083
 6693TIP3    H241571   0.337   4.123  17.015 -0.0482 -1.1496  1.1545
 6694TIP3   OH241572   0.702   1.806  15.735 -0.2736  0.7347  0.3408
 6694TIP3    H141573   0.718   1.892  15.697 -2.1946  1.3735  0.9316
 6694TIP3    H241574   0.679   1.751  15.661 -0.5848  1.1190  0.1502
 6695TIP3   OH241575   0.356   5.983  14.694 -0.0810 -0.3110 -0.3998
 6695TIP3    H141576   0.412   6.043  14.744 -0.7198 -1.0364  1.1854
 6695TIP3    H241577   0.397   5.897  14.705 -0.1020 -0.4417 -1.3065
 6696TIP3   OH241578   2.615   6.282   4.268 -0.3082 -0.3243  0.1936
 6696TIP3    H141579   2.570   6.212   4.221 -2.1043  0.8753  0.0581
 6696TIP3    H241580   2.643   6.342   4.199 -0.4378  0.0249  0.4444
 6697TIP3   OH241581   5.336   1.847  12.786  0.4234 -0.5028  0.4933
 6697TIP3    H141582   5.256   1.889  12.754  0.9808  0.0740 -0.1672
 6697TIP3    H241583   5.306   1.769  12.831 -0.5273 -0.2057  0.3815
 6698TIP3   OH241584   4.935   5.609  17.028  0.1848  0.4675 -0.3144
 6698TIP3    H141585   4.859   5.565  17.065  0.7344  0.3496  0.6855
 6698TIP3    H241586   4.909   5.629  16.938 -0.4490 -0.9876 -0.4803
 6699TIP3   OH241587   2.236   6.697  10.926  0.8531 -0.1945 -0.1830
 6699TIP3    H141588   2.307   6.682  10.989  1.1405 -0.3744 -0.5491
 6699TIP3    H241589   2.242   6.790  10.905  0.8226 -0.1556 -0.0189
 6700TIP3   OH241590   5.047   0.190   2.817  0.7406 -0.4040 -0.6864
 6700TIP3    H141591   4.993   0.268   2.832  0.6355 -0.6251  0.1140
 6700TIP3    H241592   5.115   0.220   2.756  0.1568  0.0675 -1.1176
 6701TIP3   OH241593   6.674   5.823  14.877  0.5191  0.4560  0.1612
 6701TIP3    H141594   6.673   5.899  14.819  1.0816 -0.2576 -0.8056
 6701TIP3    H241595   6.662   5.748  14.819 -1.9105 -0.0874  1.3122
 6702TIP3   OH241596   4.797   4.504  13.808 -0.0548  0.3005 -0.0183
 6702TIP3    H141597   4.889   4.531  13.810  0.3733 -0.9053 -1.9031
 6702TIP3    H241598   4.765   4.535  13.723 -0.2418 -2.7526 -1.1342
 6703TIP3   OH241599   3.683   0.091  13.887 -0.2266  0.0290  0.1759
 6703TIP3    H141600   3.674   0.182  13.858 -2.0914 -0.1597  0.1064
 6703TIP3    H241601   3.759   0.091  13.945  0.8403  1.2877 -1.1738
 6704TIP3   OH241602   0.129   4.103  15.291  0.4709  0.2068 -0.2830
 6704TIP3    H141603   0.043   4.142  15.273  0.4730 -0.3217 -1.5130
 6704TIP3    H241604   0.187   4.177  15.305 -0.1922  0.5718  0.6648
 6705TIP3   OH241605   1.452   3.741   0.815 -0.4118 -0.0253 -0.0744
 6705TIP3    H141606   1.470   3.664   0.870  2.5524  1.6070  1.3774
 6705TIP3    H241607   1.473   3.712   0.726  0.5673 -0.9497  0.4334
 6706TIP3   OH241608   2.148   5.760  16.373 -0.0097  0.0967 -0.2710
 6706TIP3    H141609   2.203   5.714  16.309 -0.2061 -0.6708  0.1093
 6706TIP3    H241610   2.203   5.767  16.451  0.1287  0.7788 -0.4326
 6707TIP3   OH241611   4.586   2.679  14.644  0.4479 -0.3537 -0.7622
 6707TIP3    H141612   4.601   2.773  14.646 -0.8360 -0.0953 -2.2464
 6707TIP3    H241613   4.507   2.666  14.696  0.9694 -0.6880 -0.0501
 6708TIP3   OH241614   1.523   6.232   4.841 -0.2177 -0.3614 -0.3866
 6708TIP3    H141615   1.543   6.208   4.751 -1.8986 -0.4847 -0.7510
 6708TIP3    H241616   1.433   6.201   4.854  0.1981 -0.8322  1.4960
 6709TIP3   OH241617   0.089   3.349  16.835 -0.1198  0.7341 -0.1926
 6709TIP3    H141618  -0.002   3.381  16.829 -0.2869  0.2377 -0.3325
 6709TIP3    H241619   0.138   3.406  16.776 -0.6775 -0.1915 -1.5858
 6710TIP3   OH241620   5.028   1.386  11.905 -0.0546  0.7599  0.4336
 6710TIP3    H141621   4.940   1.379  11.867 -0.4995  2.8972  1.0002
 6710TIP3    H241622   5.037   1.478  11.928  1.7428  0.2619  1.8596
 6711TIP3   OH241623   5.674   6.657  16.339 -0.1540 -0.1704 -0.2440
 6711TIP3    H141624   5.584   6.656  16.372 -0.2657 -0.4511 -0.5612
 6711TIP3    H241625   5.705   6.745  16.359 -0.7253  0.1478 -0.7458
 6712TIP3   OH241626   4.967   3.210  15.285 -0.3851 -0.6151 -0.0791
 6712TIP3    H141627   4.925   3.296  15.283 -0.3704 -0.6306 -2.9086
 6712TIP3    H241628   4.897   3.150  15.312 -1.2051 -0.1275 -1.0825
 6713TIP3   OH241629   2.170   0.575   0.975 -0.2478  0.1638  0.3335
 6713TIP3    H141630   2.103   0.558   1.041  0.5360  0.6077  1.2491
 6713TIP3    H241631   2.238   0.623   1.022  0.2640  0.5773 -0.8268
 6714TIP3   OH241632   6.258   2.134  13.353 -0.1332 -0.5139 -0.1832
 6714TIP3    H141633   6.231   2.208  13.298  0.0781 -0.4114 -0.1510
 6714TIP3    H241634   6.328   2.169  13.407 -0.5291 -0.5395  0.3474
 6715TIP3   OH241635   5.935   5.278  15.539 -0.6521 -0.0217 -0.5488
 6715TIP3    H141636   5.890   5.362  15.551  0.4154  0.5104 -0.2611
 6715TIP3    H241637   6.013   5.284  15.594 -0.6695 -1.2795 -0.3758
 6716TIP3   OH241638   4.197   4.185   2.032  0.1082  0.3585 -0.3027
 6716TIP3    H141639   4.202   4.100   1.988 -0.7277  2.2455 -4.2174
 6716TIP3    H241640   4.104   4.200   2.043  0.2759  0.5342  0.9244
 6717TIP3   OH241641   2.332   4.733   3.067  0.1114 -0.0907 -0.2295
 6717TIP3    H141642   2.351   4.826   3.075 -0.3642 -0.2654  3.7773
 6717TIP3    H241643   2.390   4.702   2.997  2.3365  2.6202  0.3434
 6718TIP3   OH241644   0.500   4.605   2.799  0.2843 -0.0693  0.3074
 6718TIP3    H141645   0.471   4.693   2.774  0.7524  0.4688  1.5991
 6718TIP3    H241646   0.503   4.556   2.717  2.1759  1.7452 -0.7432
 6719TIP3   OH241647   5.625   2.673  13.918 -0.0078  1.1240 -0.7556
 6719TIP3    H141648   5.700   2.613  13.920  0.7166  1.9395 -2.2426
 6719TIP3    H241649   5.563   2.632  13.857 -2.2603 -1.1847  2.9057
 6720TIP3   OH241650   2.758   4.854  14.458  0.6907 -0.2668  0.0529
 6720TIP3    H141651   2.721   4.769  14.481  1.0238 -0.0195  1.5290
 6720TIP3    H241652   2.817   4.835  14.384  0.3028 -1.2101 -0.0237
 6721TIP3   OH241653   1.051   5.992  16.244  0.9497 -0.4805  0.8798
 6721TIP3    H141654   1.079   6.079  16.274  1.3622 -0.4898  0.5182
 6721TIP3    H241655   0.955   5.995  16.249  0.9106  0.4236 -0.3362
 6722TIP3   OH241656   6.133   5.160   1.969  0.2875 -0.1229  0.1266
 6722TIP3    H141657   6.178   5.076   1.956  1.4492  0.7760 -1.8750
 6722TIP3    H241658   6.105   5.186   1.881 -0.0881  1.5724  0.7337
 6723TIP3   OH241659   0.683   0.735   5.331  0.5174  0.5368  1.2971
 6723TIP3    H141660   0.759   0.792   5.320  0.9497 -0.5193 -1.9105
 6723TIP3    H241661   0.710   0.652   5.292 -1.9085 -0.1564  1.0292
 6724TIP3   OH241662   4.682   4.241  11.565  0.1009  0.1072  0.5783
 6724TIP3    H141663   4.709   4.190  11.489 -0.1182  0.2790  0.3836
 6724TIP3    H241664   4.704   4.331  11.542  0.9769  0.0435  1.1346
 6725TIP3   OH241665   2.767   6.096   6.064 -0.1449  0.1410  0.3122
 6725TIP3    H141666   2.741   6.171   6.010  2.7617  1.3402  0.4680
 6725TIP3    H241667   2.761   6.128   6.154  1.6717  0.4217  0.3554
 6726TIP3   OH241668   1.233   4.688   4.665 -0.2258 -0.3681 -0.1109
 6726TIP3    H141669   1.257   4.635   4.741  1.3300  0.9578  0.3574
 6726TIP3    H241670   1.143   4.664   4.646 -0.2210 -1.6406  1.3733
 6727TIP3   OH241671   1.924   3.884  11.924 -0.2927 -0.2308  0.1330
 6727TIP3    H141672   1.912   3.861  11.832  0.2540 -0.2397  0.0595
 6727TIP3    H241673   1.942   3.978  11.923  0.3967 -0.3558  0.1610
 6728TIP3   OH241674   1.379   4.439   4.233  0.0278  0.0369 -0.2875
 6728TIP3    H141675   1.464   4.410   4.200 -0.0013  0.3297 -0.6142
 6728TIP3    H241676   1.392   4.531   4.257  0.6901 -0.7833  2.6827
 6729TIP3   OH241677   5.734   3.654   2.713 -0.0573 -0.2660 -0.1830
 6729TIP3    H141678   5.777   3.738   2.731  0.4361 -0.8465  1.3260
 6729TIP3    H241679   5.795   3.588   2.745 -0.9907 -1.1788 -0.2745
 6730TIP3   OH241680   3.206   4.189  17.174  0.0891  0.5684  0.0929
 6730TIP3    H141681   3.173   4.278  17.171 -0.9322  0.1790 -0.3920
 6730TIP3    H241682   3.211   4.162  17.083 -1.6084 -0.5934  0.3219
 6731TIP3   OH241683   2.334   0.429  16.585  0.7634  0.4362 -0.2074
 6731TIP3    H141684   2.295   0.498  16.639  0.3971  1.1177 -1.3314
 6731TIP3    H241685   2.261   0.393  16.535  0.5709 -2.1311  1.7598
 6732TIP3   OH241686   2.941   1.327   1.645 -0.2758  0.9927 -0.0037
 6732TIP3    H141687   2.873   1.381   1.684 -0.6546  1.2221 -0.9743
 6732TIP3    H241688   2.972   1.272   1.717 -0.2765  2.0959  0.8545
 6733TIP3   OH241689   1.246   1.026   5.408 -0.1611 -0.5516 -0.0719
 6733TIP3    H141690   1.268   0.983   5.491 -1.5509  0.5595  0.8801
 6733TIP3    H241691   1.323   1.079   5.387 -0.4726  0.5142  1.4027
 6734TIP3   OH241692   2.057   5.098  15.232 -0.3328 -0.4668 -0.4101
 6734TIP3    H141693   2.009   5.077  15.312 -0.1727 -0.2156 -0.2452
 6734TIP3    H241694   2.008   5.172  15.194  0.2337  0.1495  0.0465
 6735TIP3   OH241695   0.737   5.400   4.594 -0.0009 -0.1144 -0.2089
 6735TIP3    H141696   0.670   5.363   4.653  0.6294 -1.9737 -0.6191
 6735TIP3    H241697   0.755   5.487   4.630 -2.9281  0.6069 -0.3298
 6736TIP3   OH241698   3.690   6.113   5.923  0.1012  0.5047  0.0104
 6736TIP3    H141699   3.747   6.140   5.851 -0.8386  1.5636 -0.3593
 6736TIP3    H241700   3.750   6.099   5.996  0.7797  2.5190 -0.0992
 6737TIP3   OH241701   3.421   5.669   0.650 -0.3748 -0.9101 -0.3432
 6737TIP3    H141702   3.393   5.752   0.688  0.0877 -1.5915  1.5484
 6737TIP3    H241703   3.489   5.638   0.709  0.6322 -1.8376 -1.9574
 6738TIP3   OH241704   4.984   5.650  16.380 -0.0165 -0.4602 -0.2905
 6738TIP3    H141705   4.893   5.645  16.411  0.3570 -1.8244  0.6426
 6738TIP3    H241706   4.978   5.631  16.286 -0.5732 -1.9094  0.0122
 6739TIP3   OH241707   5.197   1.011  12.767  0.0734 -0.5849 -0.2577
 6739TIP3    H141708   5.227   1.073  12.701 -1.2935 -0.6097 -0.9205
 6739TIP3    H241709   5.260   1.019  12.838 -1.2380  3.1871  0.6060
 6740TIP3   OH241710   1.438   6.535   4.742 -0.3685 -0.2414  0.6891
 6740TIP3    H141711   1.361   6.478   4.744 -0.8318  0.4009  1.4478
 6740TIP3    H241712   1.433   6.585   4.823  0.5751  0.1749  0.4978
 6741TIP3   OH241713   5.909   0.947   0.684 -0.0056  0.0132  0.9061
 6741TIP3    H141714   5.836   0.930   0.625  0.0203 -1.2726  1.2171
 6741TIP3    H241715   5.910   1.042   0.696 -0.4979  0.2113 -0.5303
 6742TIP3   OH241716   0.611   3.971  11.285  0.4459 -0.1523 -0.5674
 6742TIP3    H141717   0.572   3.994  11.200 -1.2671 -0.0366  0.2209
 6742TIP3    H241718   0.650   4.053  11.316 -2.1600  0.7829  0.4081
 6743TIP3   OH241719   2.535   2.792  15.733  0.7324  0.1023  0.4012
 6743TIP3    H141720   2.624   2.764  15.715  0.8021  1.1833 -0.9953
 6743TIP3    H241721   2.538   2.887  15.727 -0.0289  0.2921  2.6360
 6744TIP3   OH241722   1.451   6.372   0.375 -0.1174 -0.3571 -0.1769
 6744TIP3    H141723   1.476   6.432   0.445 -1.2148 -0.2825  0.1639
 6744TIP3    H241724   1.534   6.342   0.338  0.4492  2.0580 -0.9433
 6745TIP3   OH241725   1.916   4.502  12.448  0.1963 -0.6733  0.0824
 6745TIP3    H141726   1.906   4.530  12.539 -0.8980 -0.1402 -0.1948
 6745TIP3    H241727   1.912   4.406  12.451 -0.2280 -0.6395  0.5514
 6746TIP3   OH241728   6.067   2.133   5.804 -0.0570  0.2436 -0.2895
 6746TIP3    H141729   5.977   2.158   5.825 -0.1805 -0.3231 -0.1386
 6746TIP3    H241730   6.058   2.058   5.745  0.3254 -1.0518  1.2625
 6747TIP3   OH241731   4.162   0.773   3.540 -0.2446  0.4038  0.0158
 6747TIP3    H141732   4.165   0.859   3.581 -0.8165  0.7793 -0.7215
 6747TIP3    H241733   4.144   0.713   3.612 -0.2635  0.9446  0.4653
 6748TIP3   OH241734   4.345   1.432   3.742  0.6594  0.2404 -0.1519
 6748TIP3    H141735   4.305   1.519   3.738 -0.7830 -0.3445  1.1563
 6748TIP3    H241736   4.362   1.409   3.651  0.6210  1.7085 -0.5347
 6749TIP3   OH241737   5.462   2.734   3.378 -0.4693  0.4193 -0.5488
 6749TIP3    H141738   5.383   2.731   3.324 -1.5499 -0.5321  1.0325
 6749TIP3    H241739   5.429   2.748   3.467  1.2025  0.8104  0.0314
 6750TIP3   OH241740   4.189   0.360  10.785  0.2937  0.0570 -0.0729
 6750TIP3    H141741   4.192   0.425  10.855  0.0121 -0.4255  0.3935
 6750TIP3    H241742   4.207   0.409  10.705 -1.0001  0.9064  0.1457
 6751TIP3   OH241743   4.564   3.364  14.604 -0.2255 -0.4437  0.1428
 6751TIP3    H141744   4.607   3.310  14.538 -0.7384 -0.8523  0.1344
 6751TIP3    H241745   4.556   3.451  14.564  1.4257 -0.1151  0.5057
 6752TIP3   OH241746   0.444   5.141  12.784 -0.0391 -0.3997  0.4489
 6752TIP3    H141747   0.481   5.173  12.702 -1.4018 -1.3932 -0.5770
 6752TIP3    H241748   0.420   5.220  12.832 -1.0144  0.1673 -0.9474
 6753TIP3   OH241749   4.735   5.237   1.287  0.1359 -0.6471  0.0006
 6753TIP3    H141750   4.823   5.245   1.251  0.2109 -1.0648  0.0816
 6753TIP3    H241751   4.749   5.221   1.381 -0.0448 -0.0004  0.1401
 6754TIP3   OH241752   5.190   0.321  16.828  1.1305  0.1468 -0.3960
 6754TIP3    H141753   5.245   0.327  16.750  0.6381  2.3120 -0.5975
 6754TIP3    H241754   5.198   0.407  16.870 -0.3153 -0.2739  0.7788
 6755TIP3   OH241755   4.464   4.723  16.455 -0.0262 -0.3261 -0.2126
 6755TIP3    H141756   4.547   4.683  16.481 -0.8861 -1.4069  0.9363
 6755TIP3    H241757   4.425   4.751  16.538 -0.8988 -0.0124 -0.7296
 6756TIP3   OH241758   5.146   6.392  14.015  0.2172 -0.1117 -0.1081
 6756TIP3    H141759   5.136   6.399  13.920  1.7855 -0.7090 -0.3268
 6756TIP3    H241760   5.233   6.428  14.032  0.7101 -1.7604  0.8849
 6757TIP3   OH241761   5.120   6.606  12.843  0.5222 -0.1725  0.7954
 6757TIP3    H141762   5.182   6.669  12.807 -1.5190  0.8888 -0.9987
 6757TIP3    H241763   5.087   6.648  12.923  0.7753  0.0548  0.7795
 6758TIP3   OH241764   6.343   1.958   2.240  0.1797 -0.0663  0.3940
 6758TIP3    H141765   6.270   2.018   2.223  0.4682 -0.3271 -1.9187
 6758TIP3    H241766   6.386   1.994   2.317  1.7223  4.0983 -2.2163
 6759TIP3   OH241767   2.434   3.305  11.919 -0.6678  0.4394  0.5608
 6759TIP3    H141768   2.407   3.389  11.955 -0.9237  0.1179  1.1207
 6759TIP3    H241769   2.502   3.274  11.979 -1.1228 -0.1171  0.7899
 6760TIP3   OH241770   2.153   5.410   0.090  0.1837 -0.0542 -0.5936
 6760TIP3    H141771   2.140   5.343   0.157 -1.5728 -0.5323 -1.3759
 6760TIP3    H241772   2.100   5.381   0.016  1.8772  0.5921 -2.1171
 6761TIP3   OH241773   0.338   6.042   0.381 -0.0530  0.2127  0.2230
 6761TIP3    H141774   0.303   6.131   0.382  0.3271  0.4316 -2.3638
 6761TIP3    H241775   0.433   6.054   0.374  0.0190 -0.3869  0.1337
 6762TIP3   OH241776   2.969   5.674  11.059  0.5473  0.1396  0.5330
 6762TIP3    H141777   2.952   5.680  10.965 -3.1757 -1.5657  1.0293
 6762TIP3    H241778   3.049   5.622  11.066  0.2131 -0.7092 -1.6427
 6763TIP3   OH241779   0.737   2.054   4.106  0.6691 -0.3829  0.0938
 6763TIP3    H141780   0.685   2.107   4.165 -0.8983 -2.1367  0.3552
 6763TIP3    H241781   0.801   2.114   4.068  0.2645  1.2070  1.9066
 6764TIP3   OH241782   2.933   3.967   3.304 -0.1852  0.3363  0.1590
 6764TIP3    H141783   2.917   3.998   3.215  0.1658 -0.0485 -0.0412
 6764TIP3    H241784   3.004   3.904   3.295 -0.1583  0.2828  0.7114
 6765TIP3   OH241785   1.825   3.527   6.290 -0.5329  0.2166  0.0326
 6765TIP3    H141786   1.903   3.476   6.267  0.6421  1.5223  1.0234
 6765TIP3    H241787   1.799   3.569   6.208 -0.6936 -0.8707 -0.4833
 6766TIP3   OH241788   6.460   5.198  12.145 -0.1930  0.2040 -0.4781
 6766TIP3    H141789   6.386   5.171  12.199 -0.8150  2.1503 -0.3086
 6766TIP3    H241790   6.430   5.185  12.055 -1.4475  2.6462 -0.4551
 6767TIP3   OH241791   0.763   5.267  11.628  0.5394 -0.6364  1.0183
 6767TIP3    H141792   0.833   5.223  11.676  0.5918 -2.1499 -0.4128
 6767TIP3    H241793   0.796   5.274  11.538 -0.6685 -0.2986  0.5965
 6768TIP3   OH241794   4.981   3.490  14.700  0.1107 -0.6217  0.2930
 6768TIP3    H141795   5.042   3.536  14.758 -1.1032  0.8722  0.4074
 6768TIP3    H241796   4.931   3.433  14.758  0.4867 -0.8533  0.3898
 6769TIP3   OH241797   0.134   1.881   0.242 -0.7016 -0.0174 -0.4565
 6769TIP3    H141798   0.065   1.917   0.187 -0.7210  0.0725 -0.3731
 6769TIP3    H241799   0.175   1.957   0.282 -2.1413 -0.2087  1.4075
 6770TIP3   OH241800   2.085   0.997  16.189  0.0659 -0.0020  0.8259
 6770TIP3    H141801   2.027   0.956  16.124  1.1568 -2.2440  1.2059
 6770TIP3    H241802   2.032   1.067  16.227 -1.9116 -1.0880  0.1697
 6771TIP3   OH241803   5.029   1.012   6.191  0.0493  0.5005 -0.2712
 6771TIP3    H141804   4.994   1.085   6.242 -2.2200  0.0623 -1.1118
 6771TIP3    H241805   5.039   0.941   6.255 -0.7546  0.5992 -0.0246
 6772TIP3   OH241806   1.744   6.146  14.532  0.6325  0.5910 -0.3131
 6772TIP3    H141807   1.682   6.210  14.568 -0.4062 -0.2372 -0.5794
 6772TIP3    H241808   1.721   6.064  14.575  1.9671  0.3951  0.0374
 6773TIP3   OH241809   4.887   6.059  11.659  0.2583  0.3122  0.4871
 6773TIP3    H141810   4.896   6.036  11.566  0.4503 -0.3401  0.6599
 6773TIP3    H241811   4.926   6.146  11.666 -1.4196  1.1542 -0.3806
 6774TIP3   OH241812   0.884   0.008  16.649  0.2063  0.1478  0.0289
 6774TIP3    H141813   0.824   0.082  16.660 -0.2563 -0.1087 -0.7986
 6774TIP3    H241814   0.952   0.024  16.715 -0.9409  0.2495  1.2047
 6775TIP3   OH241815   5.294   3.120   3.489  1.0732  0.1819 -0.5283
 6775TIP3    H141816   5.291   3.207   3.449  0.3808 -0.5311 -2.0893
 6775TIP3    H241817   5.205   3.086   3.481  0.9396 -0.0281  1.5827
 6776TIP3   OH241818   5.050   3.077  14.496  0.4770  0.3604 -0.2916
 6776TIP3    H141819   5.024   2.990  14.466  1.2233  0.4509 -1.2386
 6776TIP3    H241820   5.146   3.073  14.499  0.5356  1.2767 -0.7597
 6777TIP3   OH241821   2.205   5.791  15.031  0.1429 -0.2818 -0.0995
 6777TIP3    H141822   2.152   5.853  15.082  0.5036  0.8576 -1.0859
 6777TIP3    H241823   2.197   5.822  14.941  0.3950 -1.6431 -0.5917
 6778TIP3   OH241824   0.913   0.558  14.943 -0.5672 -0.1345 -0.1130
 6778TIP3    H141825   0.943   0.468  14.929 -0.2123  0.2714 -2.0526
 6778TIP3    H241826   0.817   0.552  14.942 -0.5841 -0.8449  2.2578
 6779TIP3   OH241827   2.956   4.432   4.261  0.2724  0.3182  0.2711
 6779TIP3    H141828   2.870   4.464   4.289  0.4956  1.8034 -0.6388
 6779TIP3    H241829   2.957   4.447   4.166  0.9446 -1.1401  0.0381
 6780TIP3   OH241830   6.252   2.608  12.252 -0.4846 -0.0633 -0.3241
 6780TIP3    H141831   6.175   2.633  12.201 -2.1317 -1.7174  1.2769
 6780TIP3    H241832   6.223   2.614  12.343  1.0384 -1.4694  0.2664
 6781TIP3   OH241833   4.137   3.609  14.884  0.6719  0.6296 -0.2023
 6781TIP3    H141834   4.111   3.545  14.950  0.6950  0.3231 -0.4863
 6781TIP3    H241835   4.056   3.652  14.859  0.0725 -1.7009 -2.5417
 6782TIP3   OH241836   5.035   4.054  16.684  0.4841  0.5761  0.5080
 6782TIP3    H141837   5.102   4.122  16.676  2.2621 -1.2697 -0.8689
 6782TIP3    H241838   4.971   4.076  16.616  2.3323 -0.4919 -1.6283
 6783TIP3   OH241839   2.575   3.630   4.658 -0.1864  0.0007  0.2239
 6783TIP3    H141840   2.536   3.587   4.733  0.8697 -0.1394  0.7041
 6783TIP3    H241841   2.665   3.598   4.656 -0.4502 -0.6985 -1.6358
 6784TIP3   OH241842   3.591   3.567  15.828 -0.7578  0.1054 -0.3704
 6784TIP3    H141843   3.536   3.585  15.752  0.5316  2.2610 -0.8499
 6784TIP3    H241844   3.671   3.529  15.791 -0.5987  0.0778  0.0022
 6785TIP3   OH241845   2.852   3.539   0.888  1.0461 -0.2230 -0.4519
 6785TIP3    H141846   2.823   3.627   0.912  0.6973 -0.4618  0.0037
 6785TIP3    H241847   2.940   3.532   0.926  1.0992 -0.0490 -0.5421
 6786TIP3   OH241848   2.552   4.229   3.153 -0.8329 -0.3285 -0.3923
 6786TIP3    H141849   2.587   4.152   3.109 -0.7313  0.6559 -2.0724
 6786TIP3    H241850   2.559   4.208   3.246  1.7248 -1.2324 -0.7441
 6787TIP3   OH241851   1.532   6.036   4.460 -0.1509 -0.5189  0.4346
 6787TIP3    H141852   1.499   5.946   4.468  0.7647 -0.8449  0.4977
 6787TIP3    H241853   1.507   6.063   4.372  0.2824 -1.1126  0.1338
 6788TIP3   OH241854   1.675   2.902  16.056 -0.9087 -0.5982 -0.1081
 6788TIP3    H141855   1.761   2.882  16.020 -1.2804 -2.1803 -0.1362
 6788TIP3    H241856   1.613   2.858  15.997 -1.7449  0.6694 -0.1907
 6789TIP3   OH241857   1.149   2.886  14.817  0.0665  0.2498  0.1666
 6789TIP3    H141858   1.138   2.842  14.733 -0.4675 -2.4481  1.5929
 6789TIP3    H241859   1.091   2.839  14.877  0.0945  2.4080  1.9562
 6790TIP3   OH241860   0.184   1.193   2.962 -0.4111  0.1303  0.2547
 6790TIP3    H141861   0.230   1.276   2.948  1.5605 -0.9265  0.2468
 6790TIP3    H241862   0.171   1.158   2.873  0.7151 -0.5758  0.3541
 6791TIP3   OH241863   2.584   5.928  11.114  0.1126  0.4992  0.3272
 6791TIP3    H141864   2.518   5.982  11.159 -1.6616  0.7762 -2.5016
 6791TIP3    H241865   2.562   5.838  11.138  2.2776  0.8554  4.0023
 6792TIP3   OH241866   1.353   2.788  16.270 -0.6105  0.3305  0.0156
 6792TIP3    H141867   1.273   2.765  16.223 -0.4000  0.7833 -0.5719
 6792TIP3    H241868   1.346   2.883  16.284  1.3532  0.9851 -2.9713
 6793TIP3   OH241869   0.953   1.403   4.464  0.1877 -0.2686 -0.0553
 6793TIP3    H141870   1.031   1.456   4.444  0.0165  0.0716  0.1776
 6793TIP3    H241871   0.987   1.314   4.472  0.8452  0.1205  1.7798
 6794TIP3   OH241872   0.133   2.703   1.936  0.4634  0.0718  0.3582
 6794TIP3    H141873   0.135   2.796   1.912 -0.9133  0.5224  1.9263
 6794TIP3    H241874   0.204   2.694   2.000 -0.1959  0.3161  1.1293
 6795TIP3   OH241875   6.100   0.361   4.197  0.3900  0.1134 -0.0746
 6795TIP3    H141876   6.098   0.338   4.290 -1.9490  1.3975  0.2269
 6795TIP3    H241877   6.019   0.324   4.161 -0.1257  2.0687 -0.9896
 6796TIP3   OH241878   0.447   0.680   4.574  0.3786  0.3039  0.5519
 6796TIP3    H141879   0.445   0.608   4.510 -0.3406  0.2213  0.6635
 6796TIP3    H241880   0.362   0.675   4.618  0.0832  1.6117  0.1386
 6797TIP3   OH241881   6.187   6.578   3.748  0.1689 -0.7318 -0.2321
 6797TIP3    H141882   6.113   6.620   3.704  0.6605  0.0200 -0.3401
 6797TIP3    H241883   6.186   6.615   3.837 -0.6886 -2.0821  0.3465
 6798TIP3   OH241884   6.241   6.028   0.619 -0.1076  0.1683 -0.5483
 6798TIP3    H141885   6.269   5.937   0.615  0.2092  0.2718 -0.6956
 6798TIP3    H241886   6.239   6.049   0.712  2.7923  0.9296 -0.6230
 6799TIP3   OH241887   5.582   0.543  14.474 -0.2883 -0.0452  0.4265
 6799TIP3    H141888   5.629   0.466  14.443 -2.5961 -1.3104 -0.0811
 6799TIP3    H241889   5.504   0.508  14.516 -1.4743  2.0269  0.0517
 6800TIP3   OH241890   2.723   2.320  12.398 -0.3080  0.5015  0.3255
 6800TIP3    H141891   2.669   2.244  12.421 -0.0526  0.7064  1.6671
 6800TIP3    H241892   2.787   2.326  12.469  0.7808  0.9277 -0.6867
 6801TIP3   OH241893   1.497   1.169  13.065 -0.0315 -0.0401 -0.2996
 6801TIP3    H141894   1.468   1.236  13.003 -1.2101  1.1290  1.4744
 6801TIP3    H241895   1.583   1.143  13.033  0.5876  2.5296 -0.8788
 6802TIP3   OH241896   1.220   1.602  13.967  0.1411 -0.2750 -0.3148
 6802TIP3    H141897   1.144   1.596  13.909  0.6900 -0.1558 -1.0570
 6802TIP3    H241898   1.287   1.643  13.913 -0.5224  3.4605  1.5962
 6803TIP3   OH241899   1.072   4.871  11.622 -0.1266  0.8774  0.3043
 6803TIP3    H141900   1.150   4.816  11.634 -0.9938 -0.5746 -0.5228
 6803TIP3    H241901   1.068   4.885  11.527 -1.1459  0.5169  0.2894
 6804TIP3   OH241902   3.709   6.430   3.819  0.4220 -0.3676 -0.1649
 6804TIP3    H141903   3.800   6.458   3.811  0.4282 -0.0549  0.9377
 6804TIP3    H241904   3.677   6.427   3.729  2.2842 -3.0411 -0.8238
 6805TIP3   OH241905   0.260   3.360  10.570 -0.1023  0.4593  0.2812
 6805TIP3    H141906   0.215   3.340  10.488  1.4612 -0.8715 -0.2983
 6805TIP3    H241907   0.319   3.433  10.548 -0.2871  0.6536  0.4312
 6806TIP3   OH241908   0.717   2.163  13.330  0.1783  0.5824 -0.4836
 6806TIP3    H141909   0.691   2.154  13.238  0.5857 -1.3779 -0.4370
 6806TIP3    H241910   0.780   2.092  13.344  2.4619  2.7645  0.5122
 6807TIP3   OH241911   0.285   5.134  13.027  0.3254  0.0067  0.4248
 6807TIP3    H141912   0.336   5.127  12.947  1.2727  0.3992  0.9912
 6807TIP3    H241913   0.332   5.198  13.080 -1.5857  1.5584  0.3083
 6808TIP3   OH241914   4.199   1.912   1.861 -0.6818 -0.2782 -0.4780
 6808TIP3    H141915   4.134   1.873   1.803 -0.3433 -0.2400 -0.8802
 6808TIP3    H241916   4.283   1.893   1.821 -0.5600  1.8744 -1.3345
 6809TIP3   OH241917   3.279   1.031  13.596 -0.0456  0.3030  0.2734
 6809TIP3    H141918   3.338   1.096  13.634 -0.0371 -0.4945  1.6465
 6809TIP3    H241919   3.226   1.081  13.534 -0.3113  1.7136  1.5960
 6810TIP3   OH241920   6.579   0.342   2.477 -0.0057 -0.0767  0.3484
 6810TIP3    H141921   6.645   0.275   2.497 -0.8117 -1.8153 -2.5190
 6810TIP3    H241922   6.498   0.309   2.516  0.4219  1.2832  2.4807
 6811TIP3   OH241923   4.287   6.789   2.855  0.0574 -0.0383 -0.0758
 6811TIP3    H141924   4.319   6.828   2.774 -2.0765  1.2406 -0.3611
 6811TIP3    H241925   4.192   6.786   2.843 -0.2156 -0.5331  2.0732
 6812TIP3   OH241926   5.981   4.591  16.187 -0.3602 -0.4741 -0.1658
 6812TIP3    H141927   5.996   4.677  16.225  1.7486 -0.4569 -0.9388
 6812TIP3    H241928   6.018   4.597  16.099 -2.2648 -1.4881 -1.0737
 6813TIP3   OH241929   4.965   4.811  13.167  0.0208 -0.1975  0.3630
 6813TIP3    H141930   5.024   4.749  13.210  1.1250 -0.5735 -1.6049
 6813TIP3    H241931   5.023   4.865  13.113 -1.0755  1.7133  1.0299
 6814TIP3   OH241932   5.929   4.390   0.710 -0.0268 -0.9788  0.8016
 6814TIP3    H141933   5.945   4.476   0.672 -0.8284 -1.8235 -1.5306
 6814TIP3    H241934   6.016   4.353   0.725  0.3044 -0.4059  0.2968
 6815TIP3   OH241935   3.800   6.081  14.765  0.2040 -0.3848 -0.3804
 6815TIP3    H141936   3.855   6.016  14.722  1.0199 -1.4451  2.1777
 6815TIP3    H241937   3.838   6.092  14.852 -0.6798  2.6079 -0.2981
 6816TIP3   OH241938   3.088   3.286  12.280  0.3295  0.2437 -0.5053
 6816TIP3    H141939   3.116   3.232  12.354  1.0767  1.1937 -0.0848
 6816TIP3    H241940   3.157   3.351  12.270 -0.2065  0.6724 -1.4741
 6817TIP3   OH241941   2.864   0.992  15.383 -0.3971 -0.6066 -0.0787
 6817TIP3    H141942   2.918   0.916  15.358 -0.3835 -1.2117  1.6917
 6817TIP3    H241943   2.875   0.998  15.478 -2.2493  0.2024  0.0966
 6818TIP3   OH241944   6.076   4.269   6.290  0.5356  0.5884 -0.6940
 6818TIP3    H141945   6.018   4.208   6.335  2.0851 -0.6703 -0.3681
 6818TIP3    H241946   6.061   4.353   6.333 -0.9231  0.2439 -0.5158
 6819TIP3   OH241947   4.109   1.139   1.493  0.1335 -0.0399  0.6327
 6819TIP3    H141948   4.031   1.084   1.507  0.5377 -0.4237  1.4174
 6819TIP3    H241949   4.164   1.088   1.435  0.0779 -0.0413  0.5809
 6820TIP3   OH241950   0.059   0.395  16.819 -0.4259 -0.5673 -0.4945
 6820TIP3    H141951   0.130   0.446  16.859  0.1157  0.4417 -2.6702
 6820TIP3    H241952  -0.018   0.416  16.873  0.3460  0.5314  0.2085
 6821TIP3   OH241953   6.503   6.467   2.742  0.0851  0.2486  0.3626
 6821TIP3    H141954   6.546   6.387   2.712 -0.0005 -0.0087  0.9118
 6821TIP3    H241955   6.532   6.478   2.832 -1.1101 -0.0167  0.7928
 6822TIP3   OH241956   3.295   0.342  12.740 -0.5447  0.3590  0.0781
 6822TIP3    H141957   3.364   0.277  12.750 -0.9330 -0.2690 -1.1532
 6822TIP3    H241958   3.338   0.426  12.757  0.6334  0.0169 -1.0986
 6823TIP3   OH241959   0.331   1.574   4.765  0.5270 -0.3278  0.1508
 6823TIP3    H141960   0.262   1.617   4.817 -0.8224 -1.3342 -0.7565
 6823TIP3    H241961   0.402   1.559   4.827 -0.1349  0.5758  1.1543
 6824TIP3   OH241962   4.095   1.939  16.488  0.1499 -0.2175 -0.3113
 6824TIP3    H141963   4.067   1.970  16.574  2.1500 -1.6498  0.9103
 6824TIP3    H241964   4.136   2.015  16.447  0.7124  0.0336  0.7037
 6825TIP3   OH241965   0.243   3.135  16.860  0.1243  0.3051  0.5400
 6825TIP3    H141966   0.204   3.222  16.863  0.7950  0.6248  0.0549
 6825TIP3    H241967   0.293   3.127  16.941  1.3625  0.9886 -0.1472
 6826TIP3   OH241968   3.560   3.711  10.858 -0.5707 -0.0783  0.2076
 6826TIP3    H141969   3.511   3.630  10.851 -2.0943  0.7769  0.8922
 6826TIP3    H241970   3.612   3.702  10.938  0.4257 -0.9920 -0.5333
 6827TIP3   OH241971   2.414   1.393  11.632 -0.3213 -0.1923  0.1418
 6827TIP3    H141972   2.346   1.328  11.643 -1.5080  0.9827 -0.1297
 6827TIP3    H241973   2.371   1.467  11.589  1.4477  0.0138 -1.3587
 6828TIP3   OH241974   6.332   1.972  12.051 -0.2081 -0.4354  0.3054
 6828TIP3    H141975   6.343   1.956  11.957 -0.3933 -0.1746  0.2399
 6828TIP3    H241976   6.421   1.971  12.086  0.0900  2.1114 -0.3049
 6829TIP3   OH241977   3.264   5.414   1.846  0.3102 -0.0013 -0.0061
 6829TIP3    H141978   3.335   5.476   1.860  1.9932 -1.9559  0.3961
 6829TIP3    H241979   3.307   5.337   1.809 -1.9176 -0.4430 -1.7945
 6830TIP3   OH241980   5.550   3.297   1.753 -0.3102 -0.3109  0.5242
 6830TIP3    H141981   5.565   3.205   1.730  0.4631 -0.0587 -0.0241
 6830TIP3    H241982   5.556   3.344   1.670  2.3528  0.6062  1.1745
 6831TIP3   OH241983   4.121   2.365  12.901 -0.1925 -0.1060 -1.0687
 6831TIP3    H141984   4.105   2.366  12.995 -1.5177  1.5317 -1.2856
 6831TIP3    H241985   4.172   2.286  12.886  0.5880 -0.0547  1.1176
 6832TIP3   OH241986   3.540   2.987  14.003  0.1726 -0.5320  0.2185
 6832TIP3    H141987   3.467   3.024  13.954 -0.0027 -1.4139 -0.1890
 6832TIP3    H241988   3.542   2.895  13.978 -0.2149 -1.1199  2.1889
 6833TIP3   OH241989   3.814   5.261   0.260 -0.5088  0.2130  0.4135
 6833TIP3    H141990   3.863   5.243   0.180 -0.9997 -2.1646  0.5886
 6833TIP3    H241991   3.831   5.185   0.315 -2.7575  0.3025  1.2718
 6834TIP3   OH241992   0.932   3.228   1.654 -0.0991 -0.5720 -0.0844
 6834TIP3    H141993   0.956   3.297   1.716  0.6359 -0.4235 -0.5232
 6834TIP3    H241994   0.871   3.270   1.594 -1.7766 -1.0515  1.2605
 6835TIP3   OH241995   6.199   5.996  16.274  0.0452  0.0277  0.3526
 6835TIP3    H141996   6.262   5.948  16.221  0.1175  0.3272  0.1674
 6835TIP3    H241997   6.249   6.026  16.350  0.8279  2.5964 -1.0928
 6836TIP3   OH241998   3.416   0.652  15.310  0.1206  0.1787  0.5113
 6836TIP3    H141999   3.503   0.688  15.323  0.8824 -0.4025 -2.5021
 6836TIP3    H242000   3.357   0.725  15.330  1.4701  1.6792 -0.7808
 6837TIP3   OH242001   0.827   2.841  10.596  0.0670 -0.3288  0.1569
 6837TIP3    H142002   0.785   2.769  10.549  1.3288 -0.2831 -1.0737
 6837TIP3    H242003   0.891   2.876  10.534  0.7662  0.6503  1.4078
 6838TIP3   OH242004   0.928   0.032   4.449  0.1254 -0.4744 -0.0591
 6838TIP3    H142005   0.960   0.026   4.539 -1.9171 -1.7596  0.6040
 6838TIP3    H242006   0.861   0.101   4.452  0.5181 -0.0555 -0.7426
 6839TIP3   OH242007   4.904   3.675   1.905  0.1547 -0.0490  0.0145
 6839TIP3    H142008   4.836   3.642   1.964 -1.1597  2.2759 -0.1513
 6839TIP3    H242009   4.856   3.707   1.828  1.5413  0.4343 -0.6633
 6840TIP3   OH242010   4.666   5.624  13.654  0.3247 -0.2436  0.3729
 6840TIP3    H142011   4.698   5.701  13.607 -0.2871 -0.9828 -1.3240
 6840TIP3    H242012   4.574   5.643  13.672 -0.1231 -0.9775 -1.0034
 6841TIP3   OH242013   0.349   2.960   5.648  0.4905 -0.9161  0.2365
 6841TIP3    H142014   0.266   2.948   5.602 -0.3071  0.3581  1.3316
 6841TIP3    H242015   0.413   2.978   5.578 -0.4980 -0.0552 -0.4638
 6842TIP3   OH242016   1.195   5.884  12.625 -0.1024  0.2823  0.3089
 6842TIP3    H142017   1.194   5.790  12.643  1.1365  0.2691  0.3858
 6842TIP3    H242018   1.265   5.895  12.560  0.2312  1.2355  0.8184
 6843TIP3   OH242019   3.329   5.265   2.350 -0.2731  0.0713 -0.0871
 6843TIP3    H142020   3.330   5.360   2.363 -0.4864  0.2335 -1.2086
 6843TIP3    H242021   3.405   5.233   2.400 -1.1974  0.6245  1.7293
 6844TIP3   OH242022   1.668   0.539  16.436  0.5767  0.7318 -0.1148
 6844TIP3    H142023   1.740   0.530  16.498  0.0461 -0.0828  0.3910
 6844TIP3    H242024   1.685   0.622  16.390  1.1167  1.1961  0.9217
 6845TIP3   OH242025   2.787   5.045  10.840  0.3469 -0.2190  0.0853
 6845TIP3    H142026   2.760   4.991  10.767  0.0165  0.1372 -0.0596
 6845TIP3    H242027   2.705   5.067  10.886  0.5572 -0.5080  0.6065
 6846TIP3   OH242028   2.218   1.534   3.195 -0.2943 -0.0032 -0.5001
 6846TIP3    H142029   2.259   1.593   3.132 -0.6976 -0.2144 -0.9603
 6846TIP3    H242030   2.290   1.500   3.247 -0.0852  1.1089 -0.0542
 6847TIP3   OH242031   4.537   2.009  11.340  0.0171  0.8051 -0.3709
 6847TIP3    H142032   4.487   1.938  11.381 -0.3001  0.0044 -2.1316
 6847TIP3    H242033   4.529   1.994  11.246 -1.2763  3.9809 -0.8556
 6848TIP3   OH242034   6.021   6.641   2.939 -0.6753  0.1077 -0.3787
 6848TIP3    H142035   6.069   6.576   2.888 -1.0320 -0.4272 -0.0344
 6848TIP3    H242036   5.983   6.700   2.873  0.8561  0.8379 -0.6393
 6849TIP3   OH242037   1.427   5.711   5.566  0.2400  0.1163  0.1956
 6849TIP3    H142038   1.399   5.650   5.498 -0.2693  0.4668  0.0861
 6849TIP3    H242039   1.349   5.724   5.620  0.1665  1.1303 -0.1331
 6850TIP3   OH242040   4.589   6.379   6.500  0.4885  0.1725  0.0449
 6850TIP3    H142041   4.612   6.356   6.410 -0.2785  3.0195 -0.9303
 6850TIP3    H242042   4.496   6.358   6.507  0.7353 -0.7862  0.4159
 6851TIP3   OH242043   1.205   4.203   0.239  1.0399  0.2251  0.7984
 6851TIP3    H142044   1.289   4.221   0.198  0.5509  1.5284  0.3532
 6851TIP3    H242045   1.141   4.212   0.168  0.6671 -2.5501  0.7007
 6852TIP3   OH242046   5.409   5.713   3.187 -0.9552 -0.0982 -0.6737
 6852TIP3    H142047   5.416   5.708   3.092  1.5540 -1.6094 -0.4554
 6852TIP3    H242048   5.352   5.788   3.203 -0.7735  0.6603 -3.3244
 6853TIP3   OH242049   2.518   1.100  14.614  0.2756 -0.5566  0.2152
 6853TIP3    H142050   2.452   1.110  14.683  0.2633 -0.2429  0.1547
 6853TIP3    H242051   2.595   1.066  14.659  0.4201  0.0945  0.4634
 6854TIP3   OH242052   3.788   6.553   2.612  0.2902  0.3253 -0.1358
 6854TIP3    H142053   3.766   6.621   2.549  1.1851  0.3001 -0.4858
 6854TIP3    H242054   3.850   6.496   2.566  0.2139 -0.2411  0.4427
 6855TIP3   OH242055   3.702   0.512   2.999  0.2444 -0.2825 -0.4387
 6855TIP3    H142056   3.780   0.466   3.032  0.3354  0.9651  1.1768
 6855TIP3    H242057   3.668   0.558   3.076 -0.6886  1.1429 -1.6881
 6856TIP3   OH242058   1.491   2.812  15.873 -0.1561  0.1604 -0.1331
 6856TIP3    H142059   1.424   2.876  15.850 -1.7176 -0.6604  1.9533
 6856TIP3    H242060   1.482   2.744  15.805 -1.2889  0.1692 -0.0101
 6857TIP3   OH242061   5.610   5.581   5.842  0.4690 -0.2124  0.7387
 6857TIP3    H142062   5.588   5.533   5.922 -0.5077  0.0132  0.6066
 6857TIP3    H242063   5.627   5.513   5.777 -1.3243 -0.4003  0.4404
 6858TIP3   OH242064   2.430   6.192  15.568 -0.9561  0.2842 -0.1539
 6858TIP3    H142065   2.397   6.182  15.657  1.0850  1.0438  0.7367
 6858TIP3    H242066   2.472   6.278  15.568 -0.8005  0.2186 -1.7992
 6859TIP3   OH242067   1.219   0.083   3.811  0.5571  0.1430  0.0766
 6859TIP3    H142068   1.241   0.162   3.860  1.1747 -0.8234  1.3834
 6859TIP3    H242069   1.123   0.082   3.809  0.5404  0.7055  0.4162
 6860TIP3   OH242070   4.815   1.373   4.246 -0.5595  0.3075  0.1280
 6860TIP3    H142071   4.766   1.291   4.237 -0.5916  0.3577 -0.1591
 6860TIP3    H242072   4.900   1.354   4.206 -0.8788  0.6875 -0.7385
 6861TIP3   OH242073   1.845   6.157   1.024 -0.0833  0.3412  0.3054
 6861TIP3    H142074   1.896   6.125   0.949 -1.9934  0.3190 -1.0105
 6861TIP3    H242075   1.900   6.225   1.063  1.9778 -1.2630  0.3249
 6862TIP3   OH242076   5.983   3.176  16.007  0.2248  1.0062  0.2785
 6862TIP3    H142077   6.035   3.111  16.054  0.5648  0.5393 -0.7128
 6862TIP3    H242078   6.035   3.256  16.013  0.8891  0.6364 -0.3757
 6863TIP3   OH242079   1.425   2.337  13.555 -0.4126 -0.3807  0.2730
 6863TIP3    H142080   1.406   2.289  13.636 -1.1151 -1.0592 -0.2874
 6863TIP3    H242081   1.362   2.410  13.555 -1.4122 -1.2238 -0.3733
 6864TIP3   OH242082   4.759   5.960  16.211  0.5678  0.8218 -0.5168
 6864TIP3    H142083   4.830   5.907  16.174 -0.4701 -1.0102  0.0686
 6864TIP3    H242084   4.747   5.926  16.299 -2.1874 -0.0803 -1.1913
 6865TIP3   OH242085   1.915   1.018   6.480 -0.5531  0.1517  0.6079
 6865TIP3    H142086   1.868   1.073   6.543 -0.7584 -0.3709  0.9198
 6865TIP3    H242087   1.904   0.929   6.514  1.9527  0.1603  1.5550
 6866TIP3   OH242088   1.685   3.643  10.683  0.0614  0.0856 -0.3466
 6866TIP3    H142089   1.627   3.696  10.737 -2.3840 -1.7963 -1.0579
 6866TIP3    H242090   1.665   3.553  10.709  2.6574 -0.6090 -0.6265
 6867TIP3   OH242091   5.498   5.279  15.203  0.2819  0.8032  0.6384
 6867TIP3    H142092   5.460   5.249  15.286 -0.2352  0.0086  0.1332
 6867TIP3    H242093   5.458   5.222  15.137  1.9830  0.2911  0.0244
 6868TIP3   OH242094   6.427   1.690  15.447  0.1223  0.3566  0.6291
 6868TIP3    H142095   6.336   1.719  15.458 -0.3907 -1.0024  0.1347
 6868TIP3    H242096   6.435   1.616  15.507  0.5124 -0.3331 -0.2627
 6869TIP3   OH242097   4.497   1.418  14.284  0.2455  0.0863  0.3316
 6869TIP3    H142098   4.592   1.422  14.273  0.1049  0.7078 -0.7345
 6869TIP3    H242099   4.462   1.452  14.202 -0.9001  0.5770  1.0110
 6870TIP3   OH242100   0.250   1.607  16.851  0.0840 -0.1104 -0.1372
 6870TIP3    H142101   0.160   1.604  16.884 -0.4174 -2.6692 -1.6565
 6870TIP3    H242102   0.302   1.566  16.920 -0.3857 -1.5922 -0.6400
 6871TIP3   OH242103   1.796   4.067  17.173 -0.0454  0.6998 -0.2759
 6871TIP3    H142104   1.829   3.993  17.224  0.2292  0.9160 -0.1362
 6871TIP3    H242105   1.804   4.039  17.082  0.1277  0.5818 -0.2256
 6872TIP3   OH242106   1.822   5.560   2.546 -0.1455  0.1659 -0.0225
 6872TIP3    H142107   1.839   5.544   2.453  1.5524 -0.0005  0.3039
 6872TIP3    H242108   1.727   5.568   2.551 -0.3711 -1.0769 -1.5839
 6873TIP3   OH242109   2.910   2.718  13.739 -0.4391 -0.3168 -0.4080
 6873TIP3    H142110   2.870   2.633  13.723  0.9095 -0.3021 -4.4702
 6873TIP3    H242111   2.896   2.767  13.657  1.9076  2.0486  0.5251
 6874TIP3   OH242112   2.242   0.872   1.168  0.0064 -0.3050 -0.1706
 6874TIP3    H142113   2.246   0.891   1.261 -0.5151 -2.0163  0.2089
 6874TIP3    H242114   2.317   0.918   1.131 -0.5756  1.5455  0.8648
 6875TIP3   OH242115   4.091   2.296   2.688  0.3494  0.3768 -0.3095
 6875TIP3    H142116   4.138   2.256   2.615 -1.1369 -1.3903 -0.3453
 6875TIP3    H242117   4.108   2.390   2.679  1.8592 -0.0097 -1.7169
 6876TIP3   OH242118   6.368   1.259  16.573  0.2103 -0.0339  0.1766
 6876TIP3    H142119   6.360   1.187  16.510  1.0661  0.8326 -0.9390
 6876TIP3    H242120   6.286   1.257  16.623 -0.5062 -0.6794 -1.0167
 6877TIP3   OH242121   6.812   1.067  16.425 -0.1330  0.1432  0.0185
 6877TIP3    H142122   6.877   1.074  16.495 -0.5863  0.8447  0.3715
 6877TIP3    H242123   6.731   1.042  16.470 -0.1920 -0.3898 -0.3792
 6878TIP3   OH242124   2.387   4.460  11.244 -0.4561  0.9293  0.3232
 6878TIP3    H142125   2.404   4.393  11.178  2.2189 -0.1197  2.0249
 6878TIP3    H242126   2.465   4.515  11.244 -1.9673  3.1428  0.0650
 6879TIP3   OH242127   6.414   0.707  14.766  0.7412  0.1257 -0.1504
 6879TIP3    H142128   6.426   0.640  14.699 -0.4444 -1.2940  1.0190
 6879TIP3    H242129   6.355   0.771  14.727 -1.4335 -1.6322  0.1474
 6880TIP3   OH242130   4.635   6.777  11.888  0.2297  0.1165  0.0276
 6880TIP3    H142131   4.713   6.815  11.846  0.6297 -1.3139 -0.5617
 6880TIP3    H242132   4.561   6.812  11.839  0.6076 -0.0753 -0.6864
 6881TIP3   OH242133   4.228   3.074   3.038  0.5028  0.3082 -0.2572
 6881TIP3    H142134   4.137   3.101   3.025  0.1809  0.0332  1.3944
 6881TIP3    H242135   4.266   3.074   2.950 -1.4856 -0.9617 -1.1321
 6882TIP3   OH242136   3.522   5.287  11.403  0.0374 -0.5241  0.6756
 6882TIP3    H142137   3.434   5.255  11.386 -0.3082  0.3341  0.7909
 6882TIP3    H242138   3.575   5.209  11.416 -1.0442 -0.9919  2.2784
 6883TIP3   OH242139   2.019   4.054  13.329 -0.3332  0.4532  0.6930
 6883TIP3    H142140   1.940   4.108  13.335 -0.2641  0.5364  0.8575
 6883TIP3    H242141   2.033   4.022  13.418  0.6980  1.6974  0.9925
 6884TIP3   OH242142   1.717   6.212  13.399  0.4590  0.6461  0.0549
 6884TIP3    H142143   1.649   6.146  13.383  2.2548 -1.4012  0.6501
 6884TIP3    H242144   1.740   6.245  13.312  0.3610 -0.3667 -0.3616
 6885TIP3   OH242145   5.757   2.814  13.355 -0.0373 -0.5882 -0.5969
 6885TIP3    H142146   5.676   2.856  13.327 -1.1298 -2.9029 -1.0248
 6885TIP3    H242147   5.763   2.734  13.303  1.3463 -1.6078  1.0443
 6886TIP3   OH242148   2.966   4.095   1.020 -0.1054 -0.4889 -0.3894
 6886TIP3    H142149   3.032   4.066   0.958  0.0909 -1.2093  0.1460
 6886TIP3    H242150   2.932   4.015   1.059 -0.9148 -0.0976 -0.2700
 6887TIP3   OH242151   2.228   1.297   2.645  0.4656  0.1756 -0.7114
 6887TIP3    H142152   2.300   1.234   2.647 -0.3249 -0.7434 -1.1351
 6887TIP3    H242153   2.190   1.293   2.733 -1.1390 -1.7699 -1.4535
 6888TIP3   OH242154   5.550   1.596   2.516  0.1606 -0.5858 -0.4325
 6888TIP3    H142155   5.502   1.530   2.466  1.1118 -2.2798  0.8478
 6888TIP3    H242156   5.642   1.573   2.504  0.4723  0.1323  0.5483
 6889TIP3   OH242157   2.563   4.994  11.270  0.0333 -0.0922 -0.3512
 6889TIP3    H142158   2.538   4.962  11.183  1.6066 -0.7249 -0.5873
 6889TIP3    H242159   2.525   4.930  11.331 -0.8210  0.1873 -0.5897
 6890TIP3   OH242160   2.989   2.856   6.415  0.6443 -0.0351 -0.0607
 6890TIP3    H142161   2.920   2.911   6.380 -0.2489  0.7627  2.8038
 6890TIP3    H242162   2.944   2.777   6.447  1.5933 -1.3106 -1.7406
 6891TIP3   OH242163   5.252   2.247  17.132  0.1376  0.1771  0.3678
 6891TIP3    H142164   5.330   2.240  17.077  0.6799 -0.6838  1.2407
 6891TIP3    H242165   5.224   2.157  17.146 -0.1256  0.3996  1.3252
 6892TIP3   OH242166   0.634   6.788  13.824  0.6312  0.1630  0.2040
 6892TIP3    H142167   0.686   6.866  13.843 -1.4434  1.5651  0.2654
 6892TIP3    H242168   0.616   6.794  13.730 -0.6662  0.4922  0.4640
 6893TIP3   OH242169   1.423   6.640  11.081  0.3287 -0.3863 -0.1161
 6893TIP3    H142170   1.421   6.567  11.142  0.2252 -0.6742 -0.4594
 6893TIP3    H242171   1.469   6.605  11.004  1.4706  0.3156  0.2390
 6894TIP3   OH242172   0.814   3.604  11.100 -0.4060  0.1284 -0.2186
 6894TIP3    H142173   0.742   3.661  11.074 -0.5260  0.3176  0.5254
 6894TIP3    H242174   0.843   3.638  11.184 -1.8946 -2.2203  1.2907
 6895TIP3   OH242175   5.075   5.102   2.636  0.6096 -0.2653 -0.0593
 6895TIP3    H142176   5.039   5.043   2.703 -1.2409  0.4155 -0.4371
 6895TIP3    H242177   5.038   5.188   2.657  0.2041  0.0041 -1.8046
 6896TIP3   OH242178   4.813   3.182  16.162 -0.0024  0.1567  0.2926
 6896TIP3    H142179   4.743   3.224  16.212  0.9965  2.8109 -0.4434
 6896TIP3    H242180   4.882   3.165  16.227 -0.2064  0.1402  0.5072
 6897TIP3   OH242181   3.998   1.673  15.974 -0.3835  0.0449 -0.4977
 6897TIP3    H142182   3.922   1.732  15.966 -0.2607  0.0017 -2.1778
 6897TIP3    H242183   4.073   1.731  15.965 -0.2451 -0.1914 -0.8566
 6898TIP3   OH242184   2.835   2.110   4.872 -0.3026  0.3378  0.4850
 6898TIP3    H142185   2.742   2.113   4.852  0.1649  2.4215 -1.7290
 6898TIP3    H242186   2.840   2.121   4.967 -2.3165 -0.1225  0.6598
 6899TIP3   OH242187   5.965   4.993   4.240  0.0440  0.3521 -0.0891
 6899TIP3    H142188   6.030   5.018   4.174  0.8140 -0.3214  0.3958
 6899TIP3    H242189   5.891   4.959   4.189  0.9864 -0.9858 -0.5920
 6900TIP3   OH242190   3.826   6.614   6.377 -0.3092  0.2839 -0.1769
 6900TIP3    H142191   3.870   6.658   6.305 -1.4733  0.5901 -0.7148
 6900TIP3    H242192   3.739   6.592   6.343 -1.3267  1.5164  1.4973
 6901TIP3   OH242193   4.137   6.538   3.759 -0.0347  0.1885 -0.6805
 6901TIP3    H142194   4.201   6.512   3.693 -0.3864  2.1589 -1.8516
 6901TIP3    H242195   4.059   6.487   3.738  0.3400 -0.3353 -0.8245
 6902TIP3   OH242196   3.601   4.537   5.845 -0.1914 -0.3401  0.4536
 6902TIP3    H142197   3.577   4.454   5.886 -0.3626  0.5277  2.1586
 6902TIP3    H242198   3.640   4.589   5.916 -0.2141  1.0776 -0.5503
 6903TIP3   OH242199   6.795   6.115   3.130 -0.4147  0.2634  0.1828
 6903TIP3    H142200   6.888   6.127   3.150 -0.3168 -1.1158  0.5606
 6903TIP3    H242201   6.790   6.030   3.087 -1.6687 -0.2428  1.2837
 6904TIP3   OH242202   0.514   6.746  10.661 -0.2535  0.5335  0.5371
 6904TIP3    H142203   0.570   6.814  10.623  2.7181 -1.8090  0.5010
 6904TIP3    H242204   0.480   6.698  10.585 -0.9002  0.8600  0.6161
 6905TIP3   OH242205   3.162   1.297   6.131  0.1289  0.3762  0.3401
 6905TIP3    H142206   3.215   1.277   6.054 -0.1148  2.2677 -0.3511
 6905TIP3    H242207   3.224   1.331   6.195 -0.0722  1.5596 -0.0795
 6906TIP3   OH242208   4.625   3.926  12.812  0.1952  0.0797  0.3160
 6906TIP3    H142209   4.719   3.940  12.797  0.0900 -0.3565 -0.7267
 6906TIP3    H242210   4.598   3.864  12.745 -1.5337  2.6390 -1.4587
 6907TIP3   OH242211   2.437   0.497  16.339 -0.5795 -0.1096  0.3314
 6907TIP3    H142212   2.380   0.476  16.413  0.6729  0.3337  1.4401
 6907TIP3    H242213   2.463   0.412  16.304  0.4738 -0.3631  1.6953
 6908TIP3   OH242214   5.695   2.322  12.661 -0.9162  0.2467 -0.5482
 6908TIP3    H142215   5.711   2.400  12.609 -0.8732  0.5954 -0.0241
 6908TIP3    H242216   5.612   2.340  12.707 -0.4024  0.4070  0.3355
 6909TIP3   OH242217   0.288   3.125  15.064  0.1164  0.1082 -0.1886
 6909TIP3    H142218   0.368   3.127  15.116  0.8916  0.4977 -1.3549
 6909TIP3    H242219   0.308   3.181  14.988 -1.2975  0.2986 -0.4382
 6910TIP3   OH242220   5.449   2.375  13.498 -0.2436  0.4196  0.0667
 6910TIP3    H142221   5.434   2.456  13.547  2.4372  1.5254 -0.8945
 6910TIP3    H242222   5.397   2.385  13.418 -0.5206  0.8541  0.2990
 6911TIP3   OH242223   1.688   4.377  15.013  0.1643  0.2783  0.0728
 6911TIP3    H142224   1.622   4.419  14.958 -1.5020  0.3373  2.0924
 6911TIP3    H242225   1.642   4.306  15.057  1.5383  0.0495  1.1761
 6912TIP3   OH242226   0.176   4.462   3.492  0.0905 -0.3470 -0.1109
 6912TIP3    H142227   0.106   4.402   3.468  1.5821 -2.9283  1.7638
 6912TIP3    H242228   0.146   4.502   3.574  0.7648 -1.4469  0.6884
 6913TIP3   OH242229   6.648   4.268  12.334 -0.1075  0.7368 -0.0517
 6913TIP3    H142230   6.640   4.229  12.421 -0.8999 -0.4602 -0.6531
 6913TIP3    H242231   6.658   4.362  12.351  0.6392  0.4133  1.3570
 6914TIP3   OH242232   2.034   5.081   2.127  0.8637  0.1427 -0.5287
 6914TIP3    H142233   2.023   5.119   2.214 -0.9723 -1.1860 -0.1409
 6914TIP3    H242234   1.952   5.100   2.081  0.8654 -1.2156 -1.1389
 6915TIP3   OH242235   2.353   5.710  12.687 -0.4250  0.2531 -0.0892
 6915TIP3    H142236   2.445   5.721  12.710 -0.4589  0.7879 -0.2109
 6915TIP3    H242237   2.308   5.781  12.732 -0.8063 -0.1061  0.1088
 6916TIP3   OH242238   4.761   6.217   2.882  0.2849  0.4200  0.2846
 6916TIP3    H142239   4.807   6.137   2.856 -1.3629 -0.1168 -1.0937
 6916TIP3    H242240   4.695   6.187   2.945 -0.0469  0.7616  0.1017
 6917TIP3   OH242241   0.682   0.800  12.373  0.5770  0.2557  0.4052
 6917TIP3    H142242   0.679   0.842  12.459 -0.8593  0.4810  0.2599
 6917TIP3    H242243   0.704   0.870  12.312 -0.9781  0.6514  0.2708
 6918TIP3   OH242244   2.086   1.825   4.740  0.1493 -0.1040  0.3763
 6918TIP3    H142245   2.013   1.850   4.796 -0.5725 -0.7595 -0.2738
 6918TIP3    H242246   2.064   1.738   4.707  0.1904  0.5816 -1.5415
 6919TIP3   OH242247   2.093   3.097   4.320 -0.3512 -0.3571 -0.1051
 6919TIP3    H142248   2.021   3.034   4.311 -0.2269 -0.6079  0.6088
 6919TIP3    H242249   2.167   3.055   4.277 -0.9683  0.4840 -2.0499
 6920TIP3   OH242250   1.370   3.748  16.672 -0.3872 -0.5013 -0.1608
 6920TIP3    H142251   1.366   3.712  16.761  0.1220 -0.9833 -0.3290
 6920TIP3    H242252   1.284   3.730  16.635 -0.6339 -0.2144  0.2674
 6921TIP3   OH242253   0.499   1.682   1.752  0.1242  0.0555  0.0004
 6921TIP3    H142254   0.584   1.717   1.778 -0.6381  2.3248 -0.3969
 6921TIP3    H242255   0.511   1.587   1.751  1.6879  0.1519  3.2572
 6922TIP3   OH242256   0.105   2.113  15.514 -0.3821  0.0804 -0.2092
 6922TIP3    H142257   0.108   2.033  15.462  2.5525 -0.1081  0.1544
 6922TIP3    H242258   0.146   2.090  15.597 -0.1460  1.7879  0.1820
 6923TIP3   OH242259   0.372   3.677  16.805  0.1366  0.5184 -0.2036
 6923TIP3    H142260   0.323   3.758  16.788  1.4601  1.1436 -1.1035
 6923TIP3    H242261   0.464   3.703  16.800  0.6100 -1.4116 -2.4133
 6924TIP3   OH242262   1.937   4.021  15.502  0.5151  0.1302 -0.6121
 6924TIP3    H142263   2.012   4.078  15.518 -0.6035  1.6398 -0.5741
 6924TIP3    H242264   1.921   3.978  15.586  0.8522  0.4032 -0.4058
 6925TIP3   OH242265   0.623   1.569  12.343 -0.4393 -0.2549 -0.0131
 6925TIP3    H142266   0.677   1.582  12.421  1.9529 -0.3770 -1.6064
 6925TIP3    H242267   0.613   1.475  12.335 -1.6629 -0.2090  0.7570
 6926TIP3   OH242268   3.386   0.640  17.131 -0.0453 -0.3806 -0.3821
 6926TIP3    H142269   3.446   0.675  17.065  0.2726  0.7388  0.4770
 6926TIP3    H242270   3.355   0.717  17.179 -1.4402 -1.0305 -0.1922
 6927TIP3   OH242271   6.319   1.956   5.600 -0.1207  0.3707  0.3781
 6927TIP3    H142272   6.240   1.903   5.605 -0.2030  0.0222 -3.0592
 6927TIP3    H242273   6.386   1.895   5.569  1.0079  1.1273  1.3004
 6928TIP3   OH242274   1.414   1.376  12.886 -0.1522 -0.4491 -0.0200
 6928TIP3    H142275   1.332   1.382  12.836 -1.1064  0.9221  1.6630
 6928TIP3    H242276   1.433   1.466  12.911 -0.2205 -1.2023  2.9084
 6929TIP3   OH242277   4.800   2.077   4.663  0.8914  0.1551 -0.0372
 6929TIP3    H142278   4.838   1.995   4.694  0.3680 -0.7016 -1.6554
 6929TIP3    H242279   4.786   2.128   4.743  0.7333 -1.5296  1.0340
 6930TIP3   OH242280   2.453   3.026   1.301 -0.6057 -0.4465  0.5862
 6930TIP3    H142281   2.474   3.056   1.390 -0.7399 -2.3127  1.2599
 6930TIP3    H242282   2.480   3.098   1.244  1.6703 -0.1996  1.9444
 6931TIP3   OH242283   5.081   5.465   1.834  0.3533 -0.2165 -0.5460
 6931TIP3    H142284   5.166   5.421   1.824  0.7293  0.6560 -1.2644
 6931TIP3    H242285   5.048   5.434   1.918  1.9961  0.4461  0.3707
 6932TIP3   OH242286   3.256   5.979   3.862 -0.4245 -0.3327  0.0419
 6932TIP3    H142287   3.286   5.992   3.772 -0.9508 -0.8470 -0.2110
 6932TIP3    H242288   3.164   5.956   3.854 -0.6745  0.3607  0.7621
 6933TIP3   OH242289   5.592   4.353   1.760  0.3720  0.2113 -0.3036
 6933TIP3    H142290   5.527   4.411   1.720  1.4804  1.0512 -0.9192
 6933TIP3    H242291   5.574   4.267   1.721 -1.2262  0.1456  0.5588
 6934TIP3   OH242292   6.087   2.212  14.444 -0.2687  0.3823 -0.5083
 6934TIP3    H142293   6.037   2.238  14.521  0.1152  0.2706 -0.2138
 6934TIP3    H242294   6.176   2.198  14.478 -0.3744 -0.8720 -0.7375
 6935TIP3   OH242295   3.889   4.554   0.126  0.1838 -0.0745 -0.4930
 6935TIP3    H142296   3.829   4.528   0.056 -2.0806  0.5296  1.1643
 6935TIP3    H242297   3.867   4.496   0.199  0.4416  1.3073  0.6997
 6936TIP3   OH242298   0.440   4.747  11.931 -0.3507  0.3988 -0.5317
 6936TIP3    H142299   0.463   4.839  11.937 -0.8533  0.5298 -0.5854
 6936TIP3    H242300   0.523   4.702  11.920 -0.1646  0.9143 -1.2540
 6937TIP3   OH242301   5.584   4.250  15.559 -0.1571  0.3809  0.1792
 6937TIP3    H142302   5.616   4.307  15.628  0.5857  0.7391 -0.4484
 6937TIP3    H242303   5.523   4.304  15.509  0.7588  0.7326 -0.5836
 6938TIP3   OH242304   4.586   4.662   4.601  0.0440 -0.2140  0.5488
 6938TIP3    H142305   4.623   4.677   4.688  0.2001  0.0495  0.4379
 6938TIP3    H242306   4.612   4.572   4.579 -3.1189 -1.6335  2.3304
 6939TIP3   OH242307   5.043   1.006  12.460 -0.0015  0.8925  0.5895
 6939TIP3    H142308   5.093   0.980  12.382 -2.5387 -0.1877 -0.7314
 6939TIP3    H242309   5.058   0.934  12.522  0.1206  0.5993  0.2260
 6940TIP3   OH242310   5.256   6.801  13.645  0.0401 -0.0719 -0.1280
 6940TIP3    H142311   5.260   6.711  13.612  1.4650 -0.2176  0.3983
 6940TIP3    H242312   5.333   6.809  13.701 -1.0313  0.9346  1.2265
 6941TIP3   OH242313   0.691   6.501   5.917  0.6270  0.0658  0.1734
 6941TIP3    H142314   0.757   6.555   5.875 -0.8915  0.0891 -2.2607
 6941TIP3    H242315   0.613   6.511   5.862 -0.2807 -2.9512  0.8240
 6942TIP3   OH242316   0.372   4.872  13.457 -0.0412  0.2922 -0.1755
 6942TIP3    H142317   0.337   4.911  13.537 -0.4693 -0.0686 -0.1864
 6942TIP3    H242318   0.414   4.945  13.412 -2.0162  1.0410 -0.8520
 6943TIP3   OH242319   5.488   0.322   3.326 -0.4446 -0.4374  0.0597
 6943TIP3    H142320   5.442   0.327   3.242  1.4282  1.2717 -0.9024
 6943TIP3    H242321   5.534   0.238   3.322 -1.6317 -1.1027  0.0680
 6944TIP3   OH242322   4.995   3.995  13.589 -0.0081 -0.1320 -0.1752
 6944TIP3    H142323   5.070   4.053  13.582  0.3348 -0.2675  1.9830
 6944TIP3    H242324   4.920   4.050  13.569  0.5081  0.4654 -0.4920
 6945TIP3   OH242325   0.131   6.652  15.396  0.5731  0.3771 -0.4942
 6945TIP3    H142326   0.176   6.673  15.314 -0.8173  2.7368 -0.7024
 6945TIP3    H242327   0.135   6.733  15.447  1.5850 -1.1127  1.8755
 6946TIP3   OH242328   2.525   3.694  12.231 -0.4530 -0.4976  0.2523
 6946TIP3    H142329   2.564   3.656  12.152  1.4980 -0.0822  0.9887
 6946TIP3    H242330   2.442   3.731  12.201  0.2900 -0.2782 -1.6328
 6947TIP3   OH242331   2.457   0.505  11.893 -0.1156 -0.3380  0.2084
 6947TIP3    H142332   2.376   0.493  11.843  0.4235  1.3299 -1.0992
 6947TIP3    H242333   2.436   0.473  11.981 -2.1138 -0.1588 -0.1818
 6948TIP3   OH242334   6.787   5.457  12.157  0.2716  0.7616 -0.2410
 6948TIP3    H142335   6.709   5.499  12.195  0.3014  0.1195  0.5608
 6948TIP3    H242336   6.811   5.390  12.222 -0.0964 -0.8576 -1.7464
 6949TIP3   OH242337   3.374   5.525   2.247 -0.1334 -0.2366 -0.1838
 6949TIP3    H142338   3.344   5.613   2.226  0.8349 -0.3744 -2.3460
 6949TIP3    H242339   3.469   5.528   2.235  0.3582 -0.7009  3.1350
 6950TIP3   OH242340   4.608   4.693   0.739 -0.6482 -0.2146 -0.2396
 6950TIP3    H142341   4.606   4.621   0.802 -0.2198  0.4199  0.4951
 6950TIP3    H242342   4.650   4.654   0.661  0.8427 -0.3956  0.6275
 6951TIP3   OH242343   0.633   6.204   1.957 -0.1739 -0.4711 -0.3270
 6951TIP3    H142344   0.641   6.142   1.884  0.3853 -1.0577  0.2367
 6951TIP3    H242345   0.702   6.179   2.018 -0.1758  0.4845  0.0719
 6952TIP3   OH242346   2.519   0.865   3.384  1.0884 -0.4517  0.5744
 6952TIP3    H142347   2.551   0.916   3.458  0.8787 -0.0617  0.3994
 6952TIP3    H242348   2.577   0.888   3.312 -0.3584  1.2673 -0.0889
 6953TIP3   OH242349   5.937   2.407  11.213 -0.0940  0.2419 -0.4228
 6953TIP3    H142350   6.001   2.361  11.159 -0.5057  0.7318 -1.3357
 6953TIP3    H242351   5.897   2.338  11.266  0.2107 -0.2597 -0.8404
 6954TIP3   OH242352   4.044   4.476   2.526  0.1501  0.1797  0.2105
 6954TIP3    H142353   4.037   4.389   2.563  0.1333 -0.5257 -1.3866
 6954TIP3    H242354   3.955   4.511   2.530  0.3760  0.5646  1.8821
 6955TIP3   OH242355   2.759   3.100   5.773 -0.1713  0.0829  0.0207
 6955TIP3    H142356   2.811   3.056   5.706 -0.8199 -0.4788 -0.1124
 6955TIP3    H242357   2.684   3.042   5.788  0.1938 -0.0391  1.5470
 6956TIP3   OH242358   5.731   1.003   5.396 -0.1262 -0.3757 -0.1759
 6956TIP3    H142359   5.701   1.025   5.484  2.3370  0.8901  0.3811
 6956TIP3    H242360   5.694   1.073   5.341 -0.6817 -0.5077  0.0258
 6957TIP3   OH242361   1.672   2.921  14.714 -0.0114 -0.2654  0.5737
 6957TIP3    H142362   1.592   2.925  14.766 -0.3331 -0.7057  0.1122
 6957TIP3    H242363   1.643   2.937  14.624  0.4089 -0.5182  0.3933
 6958TIP3   OH242364   4.490   0.390   1.764  0.3359  0.2866  0.2702
 6958TIP3    H142365   4.468   0.478   1.797  2.2773  1.1741 -0.7771
 6958TIP3    H242366   4.458   0.390   1.674 -1.3890 -0.7681  0.8663
 6959TIP3   OH242367   3.213   0.460   2.829 -0.1811  0.5059 -0.4973
 6959TIP3    H142368   3.231   0.502   2.745  0.5009 -0.3162 -0.7657
 6959TIP3    H242369   3.208   0.533   2.891  1.7972  0.9547 -0.8186
 6960TIP3   OH242370   3.273   2.460  16.185  0.9249 -0.3636 -0.5418
 6960TIP3    H142371   3.265   2.392  16.118 -1.1368 -1.6516  0.9658
 6960TIP3    H242372   3.263   2.542  16.137  0.4009 -1.2236 -1.9323
 6961TIP3   OH242373   0.339   3.975   4.655  0.0074  0.1849  0.6109
 6961TIP3    H142374   0.380   3.912   4.714  0.9950 -0.1120 -0.3773
 6961TIP3    H242375   0.320   4.051   4.710 -0.4383 -0.6512  1.6351
 6962TIP3   OH242376   2.180   6.053  16.677  0.1702 -0.2119  0.4801
 6962TIP3    H142377   2.250   6.092  16.625 -0.7346  1.7366  0.7095
 6962TIP3    H242378   2.155   6.121  16.739 -3.4866 -0.0549 -1.0940
 6963TIP3   OH242379   6.615   5.806   2.335  0.1108  0.2613  0.2949
 6963TIP3    H142380   6.612   5.714   2.363 -2.0479  0.7622  1.8306
 6963TIP3    H242381   6.523   5.833   2.333  0.5714  1.8078 -2.2007
 6964TIP3   OH242382   0.097   5.408   1.121  0.0653  0.5965 -0.4209
 6964TIP3    H142383   0.026   5.445   1.069 -1.2074 -0.8790  0.2194
 6964TIP3    H242384   0.111   5.472   1.191 -1.5503  0.2857  0.2115
 6965TIP3   OH242385   4.324   6.488   2.661  0.1003 -0.1807  0.1811
 6965TIP3    H142386   4.357   6.403   2.687 -1.4064 -0.2392  1.9940
 6965TIP3    H242387   4.402   6.545   2.659  1.0175 -1.4422 -0.4928
 6966TIP3   OH242388   1.040   4.293  15.046  0.1212 -0.1018 -0.5726
 6966TIP3    H142389   1.086   4.305  14.963  1.7684  2.6001  0.6780
 6966TIP3    H242390   1.110   4.278  15.110 -1.0957 -1.4526  0.4794
 6967TIP3   OH242391   5.609   2.443   5.941 -0.1653 -0.0150 -0.3836
 6967TIP3    H142392   5.670   2.457   6.013 -1.0953 -0.7276  0.5575
 6967TIP3    H242393   5.525   2.424   5.983 -0.9662  0.6019 -1.6542
 6968TIP3   OH242394   1.659   6.215   5.500  0.7604 -0.3734  0.2114
 6968TIP3    H142395   1.646   6.254   5.414  0.4918 -1.0881 -0.0765
 6968TIP3    H242396   1.582   6.159   5.513  1.6074 -1.5722  0.1855
 6969TIP3   OH242397   6.705   6.135   6.736 -0.4237 -0.3007  0.2744
 6969TIP3    H142398   6.673   6.156   6.823 -2.4687  0.1332 -0.5555
 6969TIP3    H242399   6.678   6.209   6.681  1.6947 -0.0842 -0.5553
 6970TIP3   OH242400   5.764   5.451   3.188 -0.0692  0.1541 -0.2024
 6970TIP3    H142401   5.742   5.488   3.274 -2.4553 -0.1060 -0.6809
 6970TIP3    H242402   5.813   5.521   3.144  1.7349  0.0575  1.5806
 6971TIP3   OH242403   4.417   0.648  14.937  0.4648 -0.2336 -0.7124
 6971TIP3    H142404   4.362   0.640  15.015  0.1683 -0.5066 -0.9476
 6971TIP3    H242405   4.500   0.682  14.970 -0.0178  0.6900 -0.4346
 6972TIP3   OH242406   0.468   1.989  14.345  0.4854 -0.6064  0.2534
 6972TIP3    H142407   0.534   1.928  14.310  1.4044  1.0727 -1.0106
 6972TIP3    H242408   0.514   2.072  14.351 -0.7874  0.0044  1.8911
 6973TIP3   OH242409   4.136   6.784  15.269  0.2444  0.3652  0.1986
 6973TIP3    H142410   4.185   6.807  15.349  0.5493  0.4154  0.0001
 6973TIP3    H242411   4.044   6.789  15.295  0.3674 -1.4638  1.0473
 6974TIP3   OH242412   1.371   6.578   0.088  0.1865 -0.1206 -0.3264
 6974TIP3    H142413   1.438   6.615   0.031  0.7100 -0.4177  0.0856
 6974TIP3    H242414   1.391   6.614   0.175  0.8451 -1.5135  0.1270
 6975TIP3   OH242415   0.931   5.934  13.658  0.0188  0.6563 -0.0027
 6975TIP3    H142416   0.867   5.871  13.626  1.0825  0.0205 -0.9189
 6975TIP3    H242417   0.955   5.986  13.582 -0.0765  1.4979  0.5312
 6976TIP3   OH242418   4.943   5.091  11.707  0.3698 -0.1556  0.2524
 6976TIP3    H142419   4.868   5.063  11.760  0.0947  0.1185  0.0084
 6976TIP3    H242420   4.941   5.033  11.631  0.0610  0.2339 -0.0383
 6977TIP3   OH242421   1.355   5.243  12.463 -0.5413  0.4658 -0.2754
 6977TIP3    H142422   1.305   5.178  12.514 -2.1938  0.2119 -2.1393
 6977TIP3    H242423   1.417   5.190  12.412 -1.7908  0.3153 -1.6853
 6978TIP3   OH242424   2.349   1.089   0.571 -0.6550 -0.1230  0.0144
 6978TIP3    H142425   2.388   1.167   0.613 -2.1209  0.0508  1.0924
 6978TIP3    H242426   2.410   1.018   0.591  0.1100  0.5256  0.0094
 6979TIP3   OH242427   4.226   2.829   3.809 -0.3606 -0.9693 -0.2966
 6979TIP3    H142428   4.230   2.783   3.725 -0.7953  0.3970 -1.0627
 6979TIP3    H242429   4.146   2.796   3.851 -0.3902 -1.2928 -0.6049
 6980TIP3   OH242430   0.156   4.808  14.444 -0.2470 -0.1792 -0.2976
 6980TIP3    H142431   0.219   4.797  14.515 -0.4499  2.2457  0.3384
 6980TIP3    H242432   0.092   4.871  14.479 -0.0812  1.4568 -2.7716
 6981TIP3   OH242433   0.129   6.288  13.457 -0.2455  0.3518 -0.1941
 6981TIP3    H142434   0.140   6.209  13.405 -0.7190 -0.3964  0.8160
 6981TIP3    H242435   0.195   6.280  13.526  0.3385  1.3033 -0.6326
 6982TIP3   OH242436   6.577   0.937   3.031 -0.4193  0.1576 -0.1986
 6982TIP3    H142437   6.570   0.971   2.941  0.2627 -2.5655 -1.3357
 6982TIP3    H242438   6.641   0.994   3.073 -0.1988  1.0287 -1.6636
 6983TIP3   OH242439   0.006   4.495  15.885 -0.6906 -0.1680  0.1809
 6983TIP3    H142440  -0.059   4.444  15.837 -3.7363  2.2150  1.5612
 6983TIP3    H242441  -0.001   4.465  15.975  0.7204 -0.4594  0.1971
 6984TIP3   OH242442   3.038   5.306  12.749 -0.4072 -0.3596  0.0649
 6984TIP3    H142443   3.021   5.391  12.709 -1.3898 -0.4333  0.3224
 6984TIP3    H242444   3.007   5.315  12.839  1.9518 -0.1471  0.8775
 6985TIP3   OH242445   0.936   5.061   3.121  0.6022 -0.5057  0.3486
 6985TIP3    H142446   0.939   5.152   3.149  1.4292 -0.2735 -0.4510
 6985TIP3    H242447   0.905   5.064   3.030  1.8825 -0.8919 -0.1230
 6986TIP3   OH242448   2.870   2.051  15.298  0.1736 -1.1561  0.1563
 6986TIP3    H142449   2.775   2.040  15.297 -0.0950  0.9409  0.3657
 6986TIP3    H242450   2.895   2.058  15.206  0.1479 -1.8186  0.0962
 6987TIP3   OH242451   6.124   6.091   0.161  0.6692  0.1911  0.0559
 6987TIP3    H142452   6.063   6.163   0.150 -0.4599 -0.6492  0.6849
 6987TIP3    H242453   6.093   6.023   0.100 -0.5056 -1.1731  2.1132
 6988TIP3   OH242454   1.434   0.496   4.670 -0.3408 -0.1102 -0.5297
 6988TIP3    H142455   1.451   0.486   4.764 -0.0121  0.2114 -0.5542
 6988TIP3    H242456   1.515   0.534   4.635 -0.1688 -0.9615 -1.0750
 6989TIP3   OH242457   3.874   0.188  11.597 -0.2944 -0.3596 -0.6550
 6989TIP3    H142458   3.933   0.237  11.655 -1.7145 -1.3706  1.6974
 6989TIP3    H242459   3.820   0.136  11.656 -2.8893 -0.2037 -2.8259
 6990TIP3   OH242460   0.795   5.032  13.854  0.0118 -0.2897 -0.5161
 6990TIP3    H142461   0.832   4.947  13.828 -0.6092 -0.2090 -1.6804
 6990TIP3    H242462   0.707   5.032  13.817 -0.7392  0.0291  1.2008
 6991TIP3   OH242463   0.008   5.065  13.899 -0.5365 -0.0703 -0.0164
 6991TIP3    H142464  -0.063   5.113  13.856 -0.5154  0.1402  0.1833
 6991TIP3    H242465   0.088   5.103  13.863 -0.5134  0.3431  0.4603
 6992TIP3   OH242466   4.073   3.614  11.832  0.2846 -0.3031 -0.1492
 6992TIP3    H142467   4.049   3.543  11.773 -0.1637  0.0256 -0.3736
 6992TIP3    H242468   4.057   3.694  11.781 -0.3680 -0.0029  0.5005
 6993TIP3   OH242469   1.420   1.746   1.525  0.1705 -0.1454 -0.2525
 6993TIP3    H142470   1.463   1.809   1.467 -0.0888  0.7727  0.5398
 6993TIP3    H242471   1.393   1.798   1.601  1.0160 -1.4393  0.9476
 6994TIP3   OH242472   4.554   3.728  15.079  0.4038  0.0546 -0.3252
 6994TIP3    H142473   4.571   3.821  15.067  0.2632  0.2898  1.2425
 6994TIP3    H242474   4.577   3.688  14.995 -1.1530  1.7257 -1.5764
 6995TIP3   OH242475   0.820   5.852   0.639 -0.1397  0.1840 -0.1826
 6995TIP3    H142476   0.836   5.853   0.545  0.8119  1.4713 -0.0300
 6995TIP3    H242477   0.726   5.867   0.648  0.1833  2.9433 -0.8814
 6996TIP3   OH242478   4.170   2.442   0.508  0.4923 -0.3216 -0.4379
 6996TIP3    H142479   4.081   2.444   0.543  1.8104  1.6992  3.0917
 6996TIP3    H242480   4.171   2.510   0.441 -0.6120 -0.3547 -0.5021
 6997TIP3   OH242481   0.185   4.309   1.341 -0.9519  0.0308  0.2037
 6997TIP3    H142482   0.249   4.379   1.327 -2.1505  0.9616 -0.7734
 6997TIP3    H242483   0.188   4.292   1.435 -0.7250  1.4698  0.4710
 6998TIP3   OH242484   1.763   3.575  11.361 -0.2130 -0.0675  0.2053
 6998TIP3    H142485   1.686   3.536  11.402  0.9096 -0.6842  1.7861
 6998TIP3    H242486   1.835   3.517  11.386  0.6816  0.1613 -1.7386
 6999TIP3   OH242487   0.318   5.497   5.780  0.0709 -0.5820  0.5823
 6999TIP3    H142488   0.266   5.475   5.703  0.2830  1.1875 -0.0873
 6999TIP3    H242489   0.404   5.459   5.762 -0.5552 -2.2461  1.0392
 7000TIP3   OH242490   5.890   1.306   2.517  0.4381  0.4658 -0.0602
 7000TIP3    H142491   5.955   1.326   2.450  1.3250 -1.3047  0.2417
 7000TIP3    H242492   5.813   1.278   2.468  0.2084  1.6400 -0.3903
 7001TIP3   OH242493   5.564   2.629  15.744  0.5870  0.3243 -0.1708
 7001TIP3    H142494   5.549   2.668  15.657 -0.6172  0.2298 -0.0143
 7001TIP3    H242495   5.655   2.599  15.741  1.7537  3.6269 -0.0993
 7002TIP3   OH242496   0.932   1.638  13.442 -0.3371  0.2834 -0.3436
 7002TIP3    H142497   0.998   1.572  13.421 -0.8400 -0.6046  0.8093
 7002TIP3    H242498   0.900   1.667  13.357  1.4773  0.6717 -0.9298
 7003TIP3   OH242499   5.342   1.554  14.041 -0.3327  0.4766 -0.4653
 7003TIP3    H142500   5.390   1.482  14.082  0.3662  0.4447 -1.3166
 7003TIP3    H242501   5.263   1.513  14.005 -0.6826  0.4106  0.3796
 7004TIP3   OH242502   3.059   5.206   0.970  0.1145 -0.0753  0.0191
 7004TIP3    H142503   3.076   5.114   0.950 -0.9800 -0.4266  0.6525
 7004TIP3    H242504   2.988   5.203   1.035  0.5619  1.1855  0.5727
 7005TIP3   OH242505   5.210   5.016  12.559  0.2071 -0.2440 -0.0955
 7005TIP3    H142506   5.134   4.966  12.590  0.5803  0.3519  1.8571
 7005TIP3    H242507   5.283   4.984  12.612  0.4568  2.3618  1.2061
 7006TIP3   OH242508   3.675   2.000  14.819  0.4264 -0.8141  0.5195
 7006TIP3    H142509   3.701   1.915  14.782  1.5118 -0.1290 -0.3473
 7006TIP3    H242510   3.662   2.056  14.742  3.4262  0.8363  1.1479
 7007TIP3   OH242511   1.898   2.063   0.931  0.1576 -0.6300 -0.1327
 7007TIP3    H142512   1.957   2.106   0.994 -0.3382 -1.1742  0.7194
 7007TIP3    H242513   1.931   2.089   0.845  0.6767  0.3624  0.3556
 7008TIP3   OH242514   0.987   6.194  10.647 -1.0344  0.1987 -0.5464
 7008TIP3    H142515   1.016   6.117  10.696 -1.0334 -0.4609 -1.5659
 7008TIP3    H242516   1.067   6.241  10.625 -1.0805  0.8505  0.6478
 7009TIP3   OH242517   5.153   4.119   3.228  0.9212  0.1385  0.7876
 7009TIP3    H142518   5.202   4.162   3.158  1.1417 -2.2886 -0.5763
 7009TIP3    H242519   5.062   4.146   3.214  0.7868 -1.2661 -1.1766
 7010TIP3   OH242520   2.511   4.287  12.116 -0.3625  0.0104  0.4871
 7010TIP3    H142521   2.532   4.301  12.024  1.2613 -1.8593  0.5450
 7010TIP3    H242522   2.457   4.208  12.117 -1.1596  0.5531  1.0581
 7011TIP3   OH242523   4.053   5.511   5.245 -0.3029 -0.4962 -0.2788
 7011TIP3    H142524   4.050   5.534   5.152  1.2774  1.8747  0.2168
 7011TIP3    H242525   4.140   5.473   5.258  0.4540  1.5070  0.7129
 7012TIP3   OH242526   3.218   0.905   4.900 -0.0429 -0.0101 -0.7809
 7012TIP3    H142527   3.184   0.822   4.934 -0.5991  0.4305 -0.2479
 7012TIP3    H242528   3.171   0.972   4.949 -0.5006  0.6320 -2.0777
 7013TIP3   OH242529   3.268   1.227  15.409 -0.1463  0.2570  0.2081
 7013TIP3    H142530   3.363   1.228  15.415 -0.1155  4.1850  0.2300
 7013TIP3    H242531   3.238   1.221  15.500  0.0863  0.4989  0.3018
 7014TIP3   OH242532   0.799   1.613  15.918 -0.0064  0.8370 -0.2387
 7014TIP3    H142533   0.869   1.569  15.869 -0.6430 -0.4222 -0.0414
 7014TIP3    H242534   0.745   1.655  15.851 -0.0794  0.2975 -0.5210
 7015TIP3   OH242535   5.253   3.099   0.221  0.3907 -0.5838 -0.2476
 7015TIP3    H142536   5.315   3.152   0.172 -0.3232 -0.6589 -1.2610
 7015TIP3    H242537   5.280   3.108   0.312  2.4335 -1.3366 -0.7417
 7016TIP3   OH242538   3.037   0.471   1.499  0.8938  0.0201 -0.2294
 7016TIP3    H142539   3.029   0.542   1.436 -3.7831  0.3340  0.5583
 7016TIP3    H242540   3.043   0.514   1.584  0.5079 -0.4670  0.0510
 7017TIP3   OH242541   1.612   3.576   5.392  0.1666 -0.2938  0.5477
 7017TIP3    H142542   1.615   3.662   5.434 -1.4215 -0.1169  0.3423
 7017TIP3    H242543   1.530   3.537   5.423 -0.2744 -0.7759 -1.1592
 7018TIP3   OH242544   0.417   2.752  15.092  0.3599 -0.7128 -0.0544
 7018TIP3    H142545   0.384   2.726  15.006 -0.6192  0.1568  0.0496
 7018TIP3    H242546   0.341   2.745  15.150  1.2023 -2.0337  0.9052
 7019TIP3   OH242547   4.175   5.555  17.277 -0.1576 -0.1706 -0.1451
 7019TIP3    H142548   4.265   5.523  17.267  0.1658  1.1291 -1.5878
 7019TIP3    H242549   4.172   5.635  17.224 -1.9239  0.2760  0.5952
 7020TIP3   OH242550   1.415   0.097  16.009 -0.1481 -0.0700 -0.3744
 7020TIP3    H142551   1.428   0.029  16.076 -1.6476 -1.8795 -1.8508
 7020TIP3    H242552   1.470   0.070  15.936  0.8048  1.4287 -0.2329
 7021TIP3   OH242553   6.564   1.963  16.659 -0.3118  0.0013 -0.5994
 7021TIP3    H142554   6.514   2.039  16.630 -0.2522 -0.0511 -0.8429
 7021TIP3    H242555   6.649   1.973  16.615  0.9152  1.5916  2.0174
 7022TIP3   OH242556   3.151   2.238   0.385  0.1753 -0.3110 -0.1249
 7022TIP3    H142557   3.094   2.269   0.314  1.8240  2.0851 -0.4652
 7022TIP3    H242558   3.209   2.175   0.343  1.7718  1.7975 -1.1705
 7023TIP3   OH242559   0.763   3.932   2.588 -0.6820  0.4570  0.0476
 7023TIP3    H142560   0.798   3.843   2.597 -1.8504 -0.1966 -1.5199
 7023TIP3    H242561   0.822   3.987   2.639  0.7523 -1.0579  0.0563
 7024TIP3   OH242562   1.326   4.087  13.885 -0.1631 -0.6020 -0.2452
 7024TIP3    H142563   1.286   4.056  13.967  2.9951  0.4247  1.7591
 7024TIP3    H242564   1.376   4.012  13.853  0.7925 -0.1793  0.2325
 7025TIP3   OH242565   5.303   2.988  10.191 -0.4363 -0.4270 -0.2472
 7025TIP3    H142566   5.295   2.899  10.227 -2.8678 -0.1660 -0.0806
 7025TIP3    H242567   5.270   2.980  10.101  2.6552 -0.4047 -1.4619
 7026TIP3   OH242568   6.512   2.451  13.962  1.2608 -0.3048 -0.1690
 7026TIP3    H142569   6.575   2.510  13.921  1.5689 -0.8780 -0.5422
 7026TIP3    H242570   6.461   2.417  13.888  1.3846 -0.8418 -0.0080
 7027TIP3   OH242571   5.129   3.387   2.394  0.8292  0.4023  0.3804
 7027TIP3    H142572   5.190   3.352   2.329 -0.1456 -0.3957 -0.1217
 7027TIP3    H242573   5.107   3.474   2.362  0.4160  0.0440 -0.3318
 7028TIP3   OH242574   2.168   1.984   6.097 -0.5663 -0.3118  0.6613
 7028TIP3    H142575   2.129   2.057   6.144  0.6169  1.7666 -1.4679
 7028TIP3    H242576   2.262   1.993   6.112 -0.4730 -1.9713  1.1513
 7029TIP3   OH242577   3.683   4.258  14.747 -0.3983  0.4134  0.5063
 7029TIP3    H142578   3.708   4.196  14.815 -0.7369  1.3552  1.4919
 7029TIP3    H242579   3.757   4.257  14.686  0.1690  0.0039  1.1925
 7030TIP3   OH242580   1.648   6.785   3.820  0.5735  0.4348  0.0778
 7030TIP3    H142581   1.623   6.824   3.736  0.1271 -1.2162 -0.5776
 7030TIP3    H242582   1.570   6.739   3.850  1.4898 -1.1043  0.1564
 7031TIP3   OH242583   0.621   2.649   3.327  0.2279  0.7028  0.1743
 7031TIP3    H142584   0.559   2.618   3.392 -2.1946  3.2255 -0.8063
 7031TIP3    H242585   0.682   2.705   3.375  0.4310 -0.0543  0.7940
 7032TIP3   OH242586   5.813   1.857   0.040 -0.1237  0.0437 -0.1491
 7032TIP3    H142587   5.842   1.939  -0.001 -0.0913 -0.1791 -0.5733
 7032TIP3    H242588   5.799   1.880   0.132 -2.4039  1.1156 -0.7113
 7033TIP3   OH242589   4.104   6.597   1.148 -0.3051 -0.0741 -0.1512
 7033TIP3    H142590   4.101   6.587   1.244  1.4416  1.0599  0.0543
 7033TIP3    H242591   4.109   6.507   1.115 -3.0117 -0.5850  0.6915
 7034TIP3   OH242592   1.575   5.284  16.827  0.5557 -0.7180 -0.0036
 7034TIP3    H142593   1.533   5.349  16.770  1.4381 -2.1699 -2.3489
 7034TIP3    H242594   1.504   5.256  16.886 -0.0323  1.7578  0.5274
 7035TIP3   OH242595   3.975   5.189  10.804 -0.6471  0.2226 -0.3826
 7035TIP3    H142596   3.907   5.132  10.768 -1.0177  0.7718 -0.5663
 7035TIP3    H242597   4.028   5.212  10.728 -0.6446  0.3195 -0.3499
 7036TIP3   OH242598   4.929   6.110   1.400 -0.0042  0.0309  0.3034
 7036TIP3    H142599   4.974   6.080   1.321  1.2443 -2.1348  1.7712
 7036TIP3    H242600   4.975   6.189   1.426  3.3720 -2.3423  2.0066
 7037TIP3   OH242601   3.264   0.825  16.860  0.6538 -0.3505 -0.5133
 7037TIP3    H142602   3.318   0.774  16.921  0.3266 -0.8069 -0.5989
 7037TIP3    H242603   3.323   0.890  16.824 -0.0094  2.5023  3.1589
 7038TIP3   OH242604   3.370   6.582  15.157 -0.4842 -0.5669 -0.4182
 7038TIP3    H142605   3.395   6.561  15.067 -1.5700  0.5440 -0.9939
 7038TIP3    H242606   3.278   6.609  15.150 -0.7700 -1.1143  1.1215
 7039TIP3   OH242607   1.055   4.541  15.282 -0.2691 -0.0508  0.0822
 7039TIP3    H142608   0.963   4.561  15.267 -0.2847 -0.2411 -0.0815
 7039TIP3    H242609   1.101   4.621  15.255 -0.5253  0.8369  2.1967
 7040TIP3   OH242610   5.519   2.754   1.704 -0.0139  0.0972 -0.3655
 7040TIP3    H142611   5.427   2.740   1.683  0.2678 -0.1202 -1.4899
 7040TIP3    H242612   5.533   2.848   1.690 -0.4748  0.4402  1.4542
 7041TIP3   OH242613   6.465   1.052   1.809 -0.5031 -0.6380 -0.7381
 7041TIP3    H142614   6.489   1.016   1.723  1.8337 -1.4499  0.2140
 7041TIP3    H242615   6.533   1.115   1.829 -1.6837  0.4254  0.0260
 7042TIP3   OH242616   1.907   0.670   5.458 -0.2216  0.3359  0.4001
 7042TIP3    H142617   1.969   0.626   5.516 -1.8957 -3.6318 -0.6837
 7042TIP3    H242618   1.938   0.649   5.370 -1.8707  0.1360 -0.1477
 7043TIP3   OH242619   6.770   1.690  14.968  0.1922 -0.1219  0.0763
 7043TIP3    H142620   6.685   1.673  15.009  0.3530 -0.6645  0.1885
 7043TIP3    H242621   6.769   1.784  14.949 -0.8523 -0.3127 -0.8690
 7044TIP3   OH242622   2.313   0.929  16.306  0.7120 -0.1591  0.5606
 7044TIP3    H142623   2.234   0.955  16.260  1.9732  0.9984 -1.0188
 7044TIP3    H242624   2.338   0.846  16.267  0.7808 -0.0641  0.4012
 7045TIP3   OH242625   6.448   4.152   0.424 -0.0717  0.0372 -0.8923
 7045TIP3    H142626   6.372   4.211   0.425  1.1350  1.6162 -0.4519
 7045TIP3    H242627   6.475   4.146   0.515  1.7713  1.3974 -1.3318
 7046TIP3   OH242628   2.405   6.266   1.142 -0.7055  0.0963  0.0718
 7046TIP3    H142629   2.428   6.176   1.120 -1.3789  0.1574 -0.8753
 7046TIP3    H242630   2.447   6.319   1.074 -0.7582  0.4652  0.3250
 7047TIP3   OH242631   0.156   3.676  17.071 -0.1395 -0.1880  0.3005
 7047TIP3    H142632   0.077   3.665  17.124 -0.3303 -0.9524 -0.1407
 7047TIP3    H242633   0.164   3.594  17.023 -0.0848  0.5713 -1.0227
 7048TIP3   OH242634   3.932   5.872  11.743  0.0209 -0.2172  0.2029
 7048TIP3    H142635   4.005   5.921  11.780 -1.0036  0.9475  0.6903
 7048TIP3    H242636   3.872   5.860  11.816  0.3876 -2.5056  0.1869
 7049TIP3   OH242637   4.616   0.975  16.281 -0.4246  0.5771 -0.2375
 7049TIP3    H142638   4.670   1.024  16.343  1.2426  0.7507 -1.7765
 7049TIP3    H242639   4.537   1.027  16.271 -1.1731  0.0209  2.5097
 7050TIP3   OH242640   2.787   3.141   3.905 -0.1585 -0.1646 -0.2182
 7050TIP3    H142641   2.819   3.200   3.838 -2.6797 -0.4143 -1.7242
 7050TIP3    H242642   2.716   3.188   3.948 -0.1282 -0.9091  0.6862
 7051TIP3   OH242643   5.401   6.471   5.303  0.3302 -0.0411 -0.1874
 7051TIP3    H142644   5.379   6.378   5.293 -1.5399  0.2529  1.0459
 7051TIP3    H242645   5.325   6.510   5.346  1.1960  2.0307 -0.4606
 7052TIP3   OH242646   5.112   4.264   4.694 -0.7243 -0.8415  0.1054
 7052TIP3    H142647   5.036   4.244   4.640 -0.1805  0.4951 -1.1808
 7052TIP3    H242648   5.077   4.317   4.766 -1.3511 -2.1288  0.7728
 7053TIP3   OH242649   2.948   4.126  12.022 -0.1460 -0.5793  0.4608
 7053TIP3    H142650   2.986   4.038  12.013  2.7969  0.7635 -1.1071
 7053TIP3    H242651   2.910   4.145  11.936 -1.0508 -0.4464  0.8888
 7054TIP3   OH242652   5.234   4.516  16.287 -0.5228 -0.4764 -0.4844
 7054TIP3    H142653   5.240   4.516  16.382 -1.6053 -3.4416 -0.3601
 7054TIP3    H242654   5.160   4.459  16.268 -0.5221  0.3334 -3.1105
 7055TIP3   OH242655   6.349   0.721   6.093  0.0779  0.1224  0.4148
 7055TIP3    H142656   6.410   0.716   6.167  0.8415  0.3188 -0.1948
 7055TIP3    H242657   6.404   0.744   6.018 -0.7495  0.3163 -0.1419
 7056TIP3   OH242658   1.474   2.099  16.719  0.3442 -0.4291 -0.0083
 7056TIP3    H142659   1.505   2.155  16.790 -0.8735  0.2814 -0.0148
 7056TIP3    H242660   1.551   2.085  16.664  0.9668  0.1668  0.6976
 7057TIP3   OH242661   3.383   2.452  11.996  0.0284  0.1561 -0.3655
 7057TIP3    H142662   3.297   2.477  11.960 -0.0836  0.4479  0.1068
 7057TIP3    H242663   3.441   2.523  11.971 -0.2384  0.7856  0.7715
 7058TIP3   OH242664   6.028   2.541   1.507  0.1108 -0.4851 -0.1208
 7058TIP3    H142665   6.011   2.491   1.587 -0.3781  0.7518  0.5813
 7058TIP3    H242666   5.956   2.605   1.503  2.0475  1.8122  0.4023
 7059TIP3   OH242667   6.043   4.665  15.422 -0.3999  0.6792 -1.0311
 7059TIP3    H142668   6.082   4.609  15.489  0.3845 -1.0258 -2.8808
 7059TIP3    H242669   5.995   4.732  15.472  1.0289  0.0769  1.2283
 7060TIP3   OH242670   5.124   5.507   6.052 -0.1470  0.4480 -0.6830
 7060TIP3    H142671   5.060   5.441   6.023 -1.5871  0.8303  1.4887
 7060TIP3    H242672   5.193   5.457   6.094  0.3186  0.1294 -1.8006
 7061TIP3   OH242673   2.137   5.894   3.082  0.3657  0.1836  0.6537
 7061TIP3    H142674   2.118   5.885   3.176 -1.4451  0.6770  0.3483
 7061TIP3    H242675   2.186   5.815   3.060 -0.0425 -0.4036  1.7971
 7062TIP3   OH242676   2.723   4.861  16.545  0.3247 -0.2608 -0.5270
 7062TIP3    H142677   2.697   4.912  16.622 -0.7370 -2.0265  0.2945
 7062TIP3    H242678   2.814   4.837  16.562 -0.0513 -1.0526  0.4205
 7063TIP3   OH242679   3.508   3.992   2.002 -0.2386 -0.5273  0.5093
 7063TIP3    H142680   3.503   4.078   1.961  1.7133 -1.0162 -0.8152
 7063TIP3    H242681   3.592   3.956   1.974 -2.2547 -4.0974 -1.4299
 7064TIP3   OH242682   4.134   1.199   1.141  0.2883 -0.6218  0.0490
 7064TIP3    H142683   4.096   1.217   1.055 -0.2798 -1.4606  0.1281
 7064TIP3    H242684   4.070   1.145   1.185  1.1763 -1.3150  0.5089
 7065TIP3   OH242685   6.124   5.558   2.862  0.2701  0.1294 -0.6663
 7065TIP3    H142686   6.185   5.492   2.829  0.4674  0.2741 -0.5901
 7065TIP3    H242687   6.172   5.602   2.932  0.1515  0.3833 -0.7463
 7066TIP3   OH242688   0.506   1.088  12.479 -0.0567 -0.1333 -0.0278
 7066TIP3    H142689   0.532   1.075  12.570 -1.3670 -1.8121  0.1307
 7066TIP3    H242690   0.581   1.132  12.438  1.1280 -0.7216  1.4998
 7067TIP3   OH242691   6.736   6.002  15.875  0.4502 -0.1478 -0.4551
 7067TIP3    H142692   6.666   5.937  15.865  0.9498 -0.7942  0.1682
 7067TIP3    H242693   6.817   5.951  15.873  0.8329  0.4105  0.3773
 7068TIP3   OH242694   5.009   5.575  13.298  0.3546 -0.0944 -0.1177
 7068TIP3    H142695   5.023   5.653  13.351 -0.4670 -0.6376  0.9050
 7068TIP3    H242696   5.045   5.598  13.212  1.5632  0.8375  0.6175
 7069TIP3   OH242697   0.877   5.247  17.287  0.6074 -0.2468  0.3913
 7069TIP3    H142698   0.941   5.257  17.217 -0.3393 -1.6512 -0.6969
 7069TIP3    H242699   0.865   5.336  17.320  4.0037 -0.1207  1.4490
 7070TIP3   OH242700   4.084   2.721   1.410  0.6879 -0.0043  0.2228
 7070TIP3    H142701   4.121   2.633   1.406 -0.1056 -0.4382  1.9881
 7070TIP3    H242702   4.042   2.726   1.496  1.0836  2.2529  0.3232
 7071TIP3   OH242703   5.620   1.519  16.396  0.4274 -0.1577 -0.0342
 7071TIP3    H142704   5.614   1.613  16.378 -0.4677 -0.2768 -0.3944
 7071TIP3    H242705   5.576   1.477  16.323  1.5389 -0.9144 -0.2827
 7072TIP3   OH242706   2.416   4.135   2.141 -0.0696  0.1703 -0.1267
 7072TIP3    H142707   2.360   4.062   2.114 -0.3711  0.5157 -0.4322
 7072TIP3    H242708   2.492   4.092   2.181 -0.5577 -0.2937  0.3161
 7073TIP3   OH242709   1.599   1.339  17.221 -0.2958 -0.3807 -0.3324
 7073TIP3    H142710   1.686   1.304  17.241 -0.2420 -1.0592 -1.6769
 7073TIP3    H242711   1.597   1.425  17.264  1.5537  0.2290 -1.4157
 7074TIP3   OH242712   5.999   1.910   5.655 -0.4044  0.2340  0.2243
 7074TIP3    H142713   5.949   1.855   5.595  0.6414 -0.5666  0.0649
 7074TIP3    H242714   6.039   1.848   5.716 -0.5115  0.9495  1.0225
 7075TIP3   OH242715   6.766   0.233  12.260 -0.4559 -0.0536  0.4875
 7075TIP3    H142716   6.774   0.200  12.349  0.2354 -0.0986  0.4150
 7075TIP3    H242717   6.717   0.314  12.268  2.3045  1.5962  1.3073
 7076TIP3   OH242718   0.630   2.115  13.068 -0.4652 -0.8917  0.2683
 7076TIP3    H142719   0.568   2.042  13.070  0.9677 -2.1439  0.1634
 7076TIP3    H242720   0.685   2.098  12.991  1.1501 -0.7916  1.3744
 7077TIP3   OH242721   4.676   4.892  15.052 -0.7317  0.5631 -0.1671
 7077TIP3    H142722   4.657   4.805  15.017  0.4247 -0.1069  0.8601
 7077TIP3    H242723   4.758   4.882  15.101 -0.3570  2.3187 -0.3874
 7078TIP3   OH242724   6.713   5.824  17.279 -0.3225  0.1107 -0.0796
 7078TIP3    H142725   6.644   5.877  17.239 -0.6921  0.4116  0.9181
 7078TIP3    H242726   6.724   5.863  17.366  1.0015 -0.0315 -0.1770
 7079TIP3   OH242727   2.729   2.318  11.715  0.2101  0.1280  0.0221
 7079TIP3    H142728   2.811   2.317  11.765 -0.0003 -1.9477  0.3570
 7079TIP3    H242729   2.758   2.327  11.624  0.7800 -0.1952  0.1681
 7080TIP3   OH242730   5.515   4.572   4.311 -0.1624 -0.3170 -0.1943
 7080TIP3    H142731   5.479   4.643   4.364  0.5258 -1.5084  1.9108
 7080TIP3    H242732   5.523   4.499   4.371  0.5222 -1.7572 -1.9940
 7081TIP3   OH242733   5.629   5.437  16.146 -0.0582  0.7285 -0.1388
 7081TIP3    H142734   5.583   5.356  16.167 -0.3759  1.0221  0.3086
 7081TIP3    H242735   5.639   5.435  16.051 -1.6965  1.0288 -0.3357
 7082TIP3   OH242736   4.295   0.719   6.312  0.2099  0.0866 -0.1979
 7082TIP3    H142737   4.337   0.773   6.378 -0.1850 -1.1452  1.0963
 7082TIP3    H242738   4.352   0.643   6.303  0.6919  0.6341 -1.8951
 7083TIP3   OH242739   2.471   0.759  15.917 -0.3013  0.0787 -0.6114
 7083TIP3    H142740   2.429   0.753  16.003 -2.6541  1.3157 -1.6154
 7083TIP3    H242741   2.508   0.848  15.915 -1.4472  0.5474 -1.3791
 7084TIP3   OH242742   0.132   1.107   6.037  0.4895 -0.0383  0.2853
 7084TIP3    H142743   0.097   1.195   6.028 -1.4577 -0.8585 -0.4612
 7084TIP3    H242744   0.139   1.093   6.132  2.4962  1.5328  0.3931
 7085TIP3   OH242745   1.371   0.598   3.690  0.1205 -0.2116 -0.3829
 7085TIP3    H142746   1.361   0.512   3.649  0.4894 -0.1823 -0.5336
 7085TIP3    H242747   1.355   0.582   3.783 -1.2545 -0.1814 -0.6046
 7086TIP3   OH242748   5.649   6.396  10.469  0.1578 -0.7565 -0.1574
 7086TIP3    H142749   5.597   6.318  10.484  0.0112 -0.4637  0.8720
 7086TIP3    H242750   5.734   6.363  10.438 -1.0615 -1.1854 -3.2679
 7087TIP3   OH242751   4.805   5.345   2.274 -0.1639 -0.1243 -0.4132
 7087TIP3    H142752   4.852   5.393   2.342  0.7396 -0.2516 -0.9551
 7087TIP3    H242753   4.763   5.273   2.321 -0.6870  0.5883  0.2326
 7088TIP3   OH242754   1.086   4.993   3.970  0.3738  0.0025  0.1261
 7088TIP3    H142755   1.130   4.934   3.908 -0.3077  0.2061 -0.5527
 7088TIP3    H242756   1.098   5.080   3.932 -1.3436 -0.0172 -0.5125
 7089TIP3   OH242757   5.706   0.489  13.856 -0.9570  0.1023  0.9896
 7089TIP3    H142758   5.650   0.566  13.849 -0.5308  0.2392 -1.3374
 7089TIP3    H242759   5.783   0.519  13.905 -0.2265  1.5244 -0.9794
 7090TIP3   OH242760   2.601   1.928  14.083  0.2140  0.0479 -0.7412
 7090TIP3    H142761   2.679   1.897  14.037  1.3481 -1.0764  1.8960
 7090TIP3    H242762   2.634   1.998  14.139 -0.8141  0.0321 -0.1271
 7091TIP3   OH242763   1.131   5.530  13.833  0.0915  0.4534 -0.2636
 7091TIP3    H142764   1.131   5.434  13.837  0.4176  0.5145  1.6355
 7091TIP3    H242765   1.209   5.552  13.782 -0.0329 -0.2931 -0.7811
 7092TIP3   OH242766   6.356   3.731   4.728 -0.6198 -0.0288 -0.2212
 7092TIP3    H142767   6.324   3.725   4.638 -2.3472  1.1550  0.2995
 7092TIP3    H242768   6.373   3.824   4.742 -0.2992 -0.2081  0.6601
 7093TIP3   OH242769   4.236   5.384  11.363 -0.6831 -0.5494 -0.2849
 7093TIP3    H142770   4.205   5.321  11.428 -0.8089 -2.0323 -1.7490
 7093TIP3    H242771   4.165   5.391  11.300 -0.6921  1.1295 -0.1051
 7094TIP3   OH242772   2.386   0.839  16.640 -0.1252 -0.3013  0.3461
 7094TIP3    H142773   2.329   0.768  16.671  1.2090 -1.7158 -0.3753
 7094TIP3    H242774   2.348   0.865  16.556 -0.5204 -0.2733  0.5322
 7095TIP3   OH242775   0.732   2.650  14.493 -0.3085  0.4035 -0.1519
 7095TIP3    H142776   0.667   2.619  14.555 -1.9063  1.4805 -1.2505
 7095TIP3    H242777   0.697   2.733  14.460  0.9485  0.3303 -1.7797
 7096TIP3   OH242778   4.725   5.540  11.897 -0.5468  0.4803 -0.4318
 7096TIP3    H142779   4.700   5.595  11.971  0.9506  0.1794  0.3208
 7096TIP3    H242780   4.687   5.583  11.821  0.9796  2.8288  0.0856
 7097TIP3   OH242781   1.340   3.770  11.474 -0.0067  0.1182  0.7213
 7097TIP3    H142782   1.345   3.764  11.569  0.5776  2.2056  0.8253
 7097TIP3    H242783   1.428   3.748  11.444  0.7478  2.7880  0.8582
 7098TIP3   OH242784   5.676   2.782   4.532  0.3350 -0.4191 -0.5206
 7098TIP3    H142785   5.671   2.811   4.441 -0.5821 -2.8479 -1.2912
 7098TIP3    H242786   5.701   2.860   4.581  1.3304  0.8158 -2.9144
 7099TIP3   OH242787   2.511   4.185   2.425  0.3700  0.4673 -0.6108
 7099TIP3    H142788   2.559   4.123   2.371 -1.8042  0.2071 -2.3012
 7099TIP3    H242789   2.435   4.137   2.457 -0.2969  1.6673 -0.3246
 7100TIP3   OH242790   2.133   3.647   1.128 -0.0298 -0.0125  0.4304
 7100TIP3    H142791   2.173   3.733   1.121 -1.4864  0.5776 -0.8925
 7100TIP3    H242792   2.104   3.641   1.219  0.4618  0.7184  0.6376
 7101TIP3   OH242793   6.449   3.773   2.291 -0.0151  0.5727 -0.0695
 7101TIP3    H142794   6.447   3.866   2.269 -1.8300  0.1318 -1.7998
 7101TIP3    H242795   6.518   3.767   2.358  0.5983  3.0349 -0.4117
 7102TIP3   OH242796   0.390   0.233   4.442 -0.1695 -0.1500  0.7528
 7102TIP3    H142797   0.451   0.160   4.444 -1.2997 -1.1103  1.0984
 7102TIP3    H242798   0.356   0.238   4.531  1.2407  1.9738  1.2013
 7103TIP3   OH242799   1.212   3.596   2.023 -0.5843 -0.4587 -0.1094
 7103TIP3    H142800   1.260   3.513   2.028 -1.9992 -1.3568 -1.2706
 7103TIP3    H242801   1.161   3.599   2.104  1.9042  0.8394  1.4779
 7104TIP3   OH242802   3.798   3.849   4.475 -0.0622 -0.5967 -0.2838
 7104TIP3    H142803   3.732   3.779   4.472 -0.3158 -0.2912 -2.6211
 7104TIP3    H242804   3.750   3.928   4.453  0.6254  0.0099  0.3833
 7105TIP3   OH242805   2.436   1.700  13.926 -1.2656  0.0535 -0.0225
 7105TIP3    H142806   2.418   1.708  14.019 -1.3448  2.6410 -0.2340
 7105TIP3    H242807   2.352   1.719  13.884 -0.9949 -0.1266 -0.6561
 7106TIP3   OH242808   2.117   3.295  11.873 -0.0621  0.1338  0.1604
 7106TIP3    H142809   2.208   3.324  11.875 -0.1050  0.2365  1.0344
 7106TIP3    H242810   2.068   3.368  11.836  0.0194  0.6507  1.0489
 7107TIP3   OH242811   1.880   4.772  17.265  0.4132 -0.1107  1.1643
 7107TIP3    H142812   1.849   4.687  17.295  0.5415 -0.0204  1.5515
 7107TIP3    H242813   1.942   4.800  17.332 -1.3965  1.3815  2.2575
 7108TIP3   OH242814   1.168   6.236   1.300  0.6407  0.5123 -0.0420
 7108TIP3    H142815   1.250   6.273   1.334  0.5283 -1.3051  2.2846
 7108TIP3    H242816   1.101   6.264   1.362  0.1569 -1.4889  0.3570
 7109TIP3   OH242817   0.844   1.225   5.803  0.4955 -0.3454 -0.2379
 7109TIP3    H142818   0.895   1.244   5.724  0.8949  1.0413  0.3511
 7109TIP3    H242819   0.756   1.254   5.782  1.1309  2.3291  0.7077
 7110TIP3   OH242820   3.293   5.102   4.466  0.3817  0.0559  0.5399
 7110TIP3    H142821   3.246   5.168   4.416 -0.7585 -0.3056  1.1365
 7110TIP3    H242822   3.370   5.082   4.412  0.4722  1.4974  0.1229
 7111TIP3   OH242823   5.670   0.542  13.507 -0.5645 -0.5787  0.7909
 7111TIP3    H142824   5.764   0.561  13.508 -0.5732 -0.5656  1.6876
 7111TIP3    H242825   5.631   0.613  13.559 -1.0218 -0.8235  0.7868
 7112TIP3   OH242826   0.986   6.458  14.606  0.0517  0.0298 -0.2261
 7112TIP3    H142827   0.944   6.441  14.521 -2.7917 -0.5152  1.2327
 7112TIP3    H242828   0.965   6.381  14.659 -0.2809  1.4302  1.7370
 7113TIP3   OH242829   4.339   3.091   3.828 -0.0920 -0.6331  0.5261
 7113TIP3    H142830   4.276   3.125   3.892 -0.8286  0.1964 -0.6303
 7113TIP3    H242831   4.324   2.997   3.827 -1.3231 -0.4434  0.2574
 7114TIP3   OH242832   4.962   0.271  15.531 -0.3832  0.1609 -0.0208
 7114TIP3    H142833   5.054   0.293  15.540  0.0720 -1.7590  0.2394
 7114TIP3    H242834   4.919   0.355  15.512  1.0395  1.4848  2.3761
 7115TIP3   OH242835   1.393   3.684  16.928 -0.6868 -0.1453 -0.1322
 7115TIP3    H142836   1.336   3.725  16.993  0.6567  1.2002  0.2467
 7115TIP3    H242837   1.480   3.719  16.949 -0.3692  1.0872 -3.2496
 7116TIP3   OH242838   4.396   5.874  12.851 -0.0886 -0.2116 -0.1029
 7116TIP3    H142839   4.490   5.858  12.839  0.2343 -0.0085  1.9434
 7116TIP3    H242840   4.387   5.970  12.848 -0.2976 -0.2512 -0.7541
 7117TIP3   OH242841   5.294   0.126   2.236  0.1194  0.3626 -0.2497
 7117TIP3    H142842   5.200   0.131   2.248  0.1778  1.1639 -0.1159
 7117TIP3    H242843   5.330   0.121   2.324  0.2290  0.5394 -0.2839
 7118TIP3   OH242844   3.207   3.363  11.693  0.0815 -0.2768  0.2889
 7118TIP3    H142845   3.132   3.379  11.636  0.4967 -0.5571 -0.3269
 7118TIP3    H242846   3.168   3.335  11.776 -0.5137  0.0919  0.1369
 7119TIP3   OH242847   2.468   0.387  15.626  0.5635  0.2780 -0.0026
 7119TIP3    H142848   2.448   0.345  15.709  1.7101 -1.8391 -0.7402
 7119TIP3    H242849   2.416   0.338  15.562  1.5072  0.3199 -0.8181
 7120TIP3   OH242850   5.480   6.243   0.288  0.0585 -0.1727 -0.0358
 7120TIP3    H142851   5.385   6.240   0.278 -0.0564 -1.1762  1.2414
 7120TIP3    H242852   5.495   6.296   0.366  0.5955  0.8271 -0.8096
 7121TIP3   OH242853   1.995   3.099   6.294 -0.7730 -0.3883 -0.3592
 7121TIP3    H142854   1.979   3.152   6.216  0.2008 -0.0532 -0.3359
 7121TIP3    H242855   2.062   3.147   6.343  1.2250 -2.3725 -1.0684
 7122TIP3   OH242856   1.297   0.715   2.320  0.3556  0.6535  0.1103
 7122TIP3    H142857   1.360   0.688   2.387  1.7296  2.2225 -0.5013
 7122TIP3    H242858   1.312   0.655   2.247 -0.4469 -0.4152  0.8106
 7123TIP3   OH242859   4.410   0.508   5.479 -0.1003 -0.8199 -0.2791
 7123TIP3    H142860   4.388   0.473   5.393 -2.7060 -0.4461  0.1924
 7123TIP3    H242861   4.369   0.594   5.482 -1.6186 -1.5757  1.9959
 7124TIP3   OH242862   6.082   6.651  13.798 -0.0169  0.3329 -0.6189
 7124TIP3    H142863   6.082   6.746  13.787 -0.9647  0.2388 -1.4850
 7124TIP3    H242864   6.152   6.620  13.740  0.9603  0.5644  0.4025
 7125TIP3   OH242865   6.180   4.153   1.236 -0.6371  0.3104 -0.4637
 7125TIP3    H142866   6.175   4.241   1.273  1.0704  0.3362 -0.2617
 7125TIP3    H242867   6.153   4.095   1.308 -0.2722  0.5711 -0.1115
 7126TIP3   OH242868   0.610   5.157   6.223  0.2420  0.8754  0.3774
 7126TIP3    H142869   0.596   5.074   6.268  1.2180  1.8688  2.5398
 7126TIP3    H242870   0.522   5.194   6.212 -0.1066  0.0162  0.2830
 7127TIP3   OH242871   6.532   1.130  10.679  0.1997 -0.1359 -0.1690
 7127TIP3    H142872   6.448   1.116  10.722  0.1032  1.7540  0.2940
 7127TIP3    H242873   6.509   1.173  10.596  0.6690 -0.1178 -0.2910
 7128TIP3   OH242874   6.297   2.412   4.518  0.2191 -0.2773 -0.2903
 7128TIP3    H142875   6.286   2.506   4.501  1.5852  0.2322  1.4143
 7128TIP3    H242876   6.288   2.371   4.433 -0.1483  1.4445 -1.1077
 7129TIP3   OH242877   2.850   5.846   5.210  0.5134  0.3041  0.0564
 7129TIP3    H142878   2.851   5.939   5.229  2.1349  0.1197  0.9430
 7129TIP3    H242879   2.813   5.840   5.122 -1.0220  1.6541  0.5878
 7130TIP3   OH242880   0.550   2.750   5.164  0.5760 -0.1754 -0.3381
 7130TIP3    H142881   0.621   2.733   5.102  1.1250  1.5401 -0.2125
 7130TIP3    H242882   0.595   2.765   5.248 -0.0185 -0.4173  0.0240
 7131TIP3   OH242883   5.062   3.112  13.784  0.4480 -0.1157 -0.1238
 7131TIP3    H142884   5.065   3.200  13.821  1.4225 -0.4675  0.6453
 7131TIP3    H242885   5.073   3.125  13.690 -0.1833  0.6411 -0.1003
 7132TIP3   OH242886   2.626   3.923  16.936 -0.3292  0.1242 -0.0769
 7132TIP3    H142887   2.641   3.841  16.889 -0.6766 -0.5941  1.0744
 7132TIP3    H242888   2.577   3.977  16.874  0.5336 -0.2601 -1.1069
 7133TIP3   OH242889   0.797   0.523  14.166  0.4997  0.3449  0.1102
 7133TIP3    H142890   0.775   0.561  14.251  1.0569 -0.9038  0.8183
 7133TIP3    H242891   0.885   0.556  14.147  0.5672  0.2346  0.2347
 7134TIP3   OH242892   6.518   5.227   2.689  0.2993 -0.1615 -0.0632
 7134TIP3    H142893   6.570   5.209   2.610  0.5713  0.4510 -0.0256
 7134TIP3    H242894   6.479   5.142   2.712  0.4255 -0.3951 -0.7082
 7135TIP3   OH242895   1.053   2.055   6.372 -0.1097 -0.0083 -0.3352
 7135TIP3    H142896   1.065   1.966   6.405 -0.7242  1.0214  2.8075
 7135TIP3    H242897   1.107   2.110   6.429 -1.1347  1.8577 -1.1002
 7136TIP3   OH242898   0.019   5.060   5.351  0.4303  0.7675 -0.1142
 7136TIP3    H142899   0.036   5.033   5.441  2.4915  1.5502 -0.2404
 7136TIP3    H242900   0.103   5.094   5.320 -0.0116 -0.4247 -2.6740
 7137TIP3   OH242901   4.940   6.524   3.184 -0.3463 -0.1291  0.0840
 7137TIP3    H142902   4.845   6.533   3.174 -0.4868 -0.2825  1.2291
 7137TIP3    H242903   4.977   6.590   3.125 -1.1324 -1.0472 -1.4736
 7138TIP3   OH242904   6.457   1.830  14.157  0.1299 -0.3532 -0.0413
 7138TIP3    H142905   6.413   1.816  14.073 -0.6047  0.4863  0.2021
 7138TIP3    H242906   6.386   1.848  14.219  0.7571  0.2145  0.5214
 7139TIP3   OH242907   0.822   0.451   1.397  0.4611 -0.5417  0.4790
 7139TIP3    H142908   0.849   0.526   1.345  2.4848 -1.6046 -0.0685
 7139TIP3    H242909   0.881   0.451   1.472  0.3274 -1.4585  0.5913
 7140TIP3   OH242910   3.748   4.903   0.649 -0.3564 -0.0367 -0.2295
 7140TIP3    H142911   3.739   4.913   0.744 -1.8609  1.0618 -0.4727
 7140TIP3    H242912   3.801   4.979   0.623 -1.4739  0.6634 -0.4930
 7141TIP3   OH242913   5.823   5.435   4.031 -0.4559  0.1657 -0.0232
 7141TIP3    H142914   5.898   5.478   4.072 -0.5878 -0.4988  0.9221
 7141TIP3    H242915   5.826   5.463   3.940  0.4168  0.8602  0.2162
 7142TIP3   OH242916   0.033   6.506  17.234 -0.6737  0.2821  0.1166
 7142TIP3    H142917  -0.044   6.521  17.290 -1.1550 -2.1913  0.2093
 7142TIP3    H242918   0.099   6.469  17.293 -0.4737 -0.4219 -0.5268
 7143TIP3   OH242919   0.532   4.107   6.802 -0.0677 -0.2392  0.1035
 7143TIP3    H142920   0.450   4.069   6.769 -0.2273  0.7647 -0.6700
 7143TIP3    H242921   0.596   4.037   6.793 -0.3808 -0.3659 -1.2230
 7144TIP3   OH242922   5.176   1.476  11.558 -0.2024 -0.7071  0.0140
 7144TIP3    H142923   5.210   1.465  11.470 -0.6261 -1.5438 -0.0446
 7144TIP3    H242924   5.206   1.399  11.606 -2.6455 -1.8691 -0.2521
 7145TIP3   OH242925   1.219   5.554  12.084 -0.4588  0.1391 -0.7255
 7145TIP3    H142926   1.280   5.540  12.011  1.0592  1.5839  0.2209
 7145TIP3    H242927   1.143   5.500  12.062  0.1278  0.2303 -3.1796
 7146TIP3   OH242928   5.352   2.905  15.337 -0.3730 -1.0675  0.5527
 7146TIP3    H142929   5.263   2.928  15.309  0.6571  1.7002 -0.6571
 7146TIP3    H242930   5.407   2.928  15.262  1.4983 -1.6007  1.7327
 7147TIP3   OH242931   4.417   0.005   4.348  0.2340 -0.7931  0.2335
 7147TIP3    H142932   4.392   0.013   4.441 -0.1725 -0.3783  0.0936
 7147TIP3    H242933   4.463   0.087   4.329 -1.7758  0.1785 -0.5583
 7148TIP3   OH242934   1.028   5.073  13.995 -0.2807 -0.4656  0.0638
 7148TIP3    H142935   0.974   5.101  14.069 -0.5418  1.3343 -0.7776
 7148TIP3    H242936   0.968   5.028  13.936 -1.0875  2.1749 -1.2230
 7149TIP3   OH242937   4.636   6.010   5.381  0.2268 -0.3147 -0.1078
 7149TIP3    H142938   4.721   6.034   5.345 -0.2278 -0.2982 -1.1928
 7149TIP3    H242939   4.608   5.934   5.330 -0.1448 -0.6869  0.6370
 7150TIP3   OH242940   6.651   5.517  16.977 -0.0791 -0.7267  0.5399
 7150TIP3    H142941   6.584   5.455  17.004  0.5110 -1.5700  0.0998
 7150TIP3    H242942   6.642   5.524  16.882  0.0952 -0.4146  0.5456
 7151TIP3   OH242943   2.284   0.492   1.995 -0.2603 -0.3976  0.3705
 7151TIP3    H142944   2.239   0.564   1.950 -0.7876 -0.3244  1.0073
 7151TIP3    H242945   2.245   0.491   2.083  0.6959 -0.5946  0.7951
 7152TIP3   OH242946   1.468   1.620   0.292 -0.0698  0.9806 -0.3364
 7152TIP3    H142947   1.549   1.663   0.265 -0.7149  2.0829 -0.5393
 7152TIP3    H242948   1.411   1.691   0.321 -1.3973  0.3538 -1.3084
 7153TIP3   OH242949   0.313   4.969  11.630  0.6887 -0.2078 -0.5452
 7153TIP3    H142950   0.278   4.894  11.679  1.2079 -0.0686  0.0411
 7153TIP3    H242951   0.379   4.930  11.573  2.0947  0.0187  0.9123
 7154TIP3   OH242952   2.248   6.444   3.181 -0.7646 -0.0384 -0.0067
 7154TIP3    H142953   2.160   6.450   3.143 -1.0089  2.7315  0.9018
 7154TIP3    H242954   2.234   6.413   3.271 -0.8403  0.5980  0.2032
 7155TIP3   OH242955   1.003   3.746   1.717 -0.0735  0.0340 -0.8019
 7155TIP3    H142956   1.071   3.805   1.748 -0.0471 -0.4911  0.1449
 7155TIP3    H242957   1.043   3.698   1.645  0.4133  0.0434 -0.5390
 7156TIP3   OH242958   6.590   6.473   4.500  0.3742 -0.2882 -0.1488
 7156TIP3    H142959   6.599   6.552   4.553  1.8832  0.0079 -0.8330
 7156TIP3    H242960   6.595   6.504   4.410 -3.0132 -0.6801 -0.5456
 7157TIP3   OH242961   0.282   0.840  13.798  0.2916 -0.0355  0.4783
 7157TIP3    H142962   0.374   0.864  13.781 -0.2082 -0.0653 -2.6737
 7157TIP3    H242963   0.236   0.923  13.804 -0.0475 -0.0252 -1.7791
 7158TIP3   OH242964   0.056   6.168  16.579  1.0755 -0.0515 -0.0469
 7158TIP3    H142965   0.030   6.148  16.670 -1.2745  0.5518 -0.5517
 7158TIP3    H242966   0.045   6.085  16.533 -0.2694  0.2795 -0.3241
 7159TIP3   OH242967   5.189   4.880  16.178  0.4503  0.3672 -0.1168
 7159TIP3    H142968   5.132   4.943  16.222 -1.0652 -1.4204  0.5597
 7159TIP3    H242969   5.170   4.892  16.085 -1.7113 -0.7832  0.1426
 7160TIP3   OH242970   1.449   0.251   1.343  0.2660  0.6693 -0.2199
 7160TIP3    H142971   1.530   0.205   1.321  1.2264  1.0454  2.3095
 7160TIP3    H242972   1.465   0.342   1.317  0.6165  0.7202  0.1725
 7161TIP3   OH242973   2.488   2.379  14.914  0.4595 -0.3016  0.8288
 7161TIP3    H142974   2.583   2.364  14.908  0.4843  0.9518 -3.0643
 7161TIP3    H242975   2.452   2.335  14.838 -1.8455  1.1469  1.0382
 7162TIP3   OH242976   6.646   3.831   0.181  0.3088  0.6328 -0.2565
 7162TIP3    H142977   6.691   3.841   0.264 -0.5280 -0.8935  0.4191
 7162TIP3    H242978   6.579   3.899   0.181  1.5360  1.8576 -0.5448
 7163TIP3   OH242979   0.235   2.200   2.181 -0.3667  0.0135 -0.2212
 7163TIP3    H142980   0.204   2.235   2.265 -0.3623  2.6338 -1.2723
 7163TIP3    H242981   0.323   2.167   2.200 -0.1215  1.1407  0.6597
 7164TIP3   OH242982   3.487   3.321   0.843  0.0836  0.5649  0.0004
 7164TIP3    H142983   3.424   3.328   0.771 -0.7205  1.9493  0.8036
 7164TIP3    H242984   3.437   3.278   0.913 -0.2790  2.4415  0.9392
 7165TIP3   OH242985   6.246   0.559  16.172 -0.0266  0.2915  0.4043
 7165TIP3    H142986   6.285   0.625  16.230  2.0299  0.5418 -1.1906
 7165TIP3    H242987   6.210   0.494  16.232  0.4446  1.4374  1.9890
 7166TIP3   OH242988   3.642   0.011  16.416 -0.1823 -0.8341 -0.1681
 7166TIP3    H142989   3.562   0.040  16.461  0.3346  1.6958 -0.7838
 7166TIP3    H242990   3.713   0.039  16.473  0.3388 -1.1801 -0.6458
 7167TIP3   OH242991   5.007   5.859   2.627 -0.6007  0.0081  0.2632
 7167TIP3    H142992   5.004   5.906   2.709  1.8576 -1.1408  1.0700
 7167TIP3    H242993   5.017   5.927   2.560 -2.0552  0.9046  0.9435
 7168TIP3   OH242994   0.615   1.154  15.021 -0.4655 -0.0603 -0.1434
 7168TIP3    H142995   0.578   1.087  14.963  0.8889 -0.0045 -1.0799
 7168TIP3    H242996   0.628   1.108  15.104 -2.8895 -0.0094  0.3072
 7169TIP3   OH242997   1.264   2.569   0.404  0.5083  0.3568  0.3688
 7169TIP3    H142998   1.203   2.500   0.429  0.5855 -0.0080 -0.4127
 7169TIP3    H242999   1.286   2.613   0.486 -0.6133  0.3413  0.6902
 7170TIP3   OH243000   5.891   2.300  10.908  0.3135  0.5359  0.4535
 7170TIP3    H143001   5.971   2.307  10.960 -0.8485  0.6207  2.2421
 7170TIP3    H243002   5.850   2.219  10.937 -0.0287  0.2375 -0.8158
 7171TIP3   OH243003   5.154   3.890   4.348  0.4371 -0.1988  0.0498
 7171TIP3    H143004   5.157   3.958   4.281  0.2749  0.0870  0.3321
 7171TIP3    H243005   5.245   3.879   4.376  0.7937 -1.7680 -1.6693
 7172TIP3   OH243006   0.356   2.497  15.392 -0.1290  0.6859 -0.5403
 7172TIP3    H143007   0.287   2.440  15.426  1.1096 -0.2700  0.4466
 7172TIP3    H243008   0.309   2.566  15.344 -1.6534 -1.3095 -2.0363
 7173TIP3   OH243009   2.460   4.088   0.367  0.4603  0.1804  0.2428
 7173TIP3    H143010   2.512   4.156   0.324  0.5763  0.5611  0.9796
 7173TIP3    H243011   2.514   4.009   0.359  1.5263  0.7449  1.6920
 7174TIP3   OH243012   0.944   5.489  14.138 -0.2157 -0.0085  0.5747
 7174TIP3    H143013   1.016   5.477  14.076 -1.3567  0.5712 -0.8915
 7174TIP3    H243014   0.945   5.582  14.158  0.1827 -0.2011  1.4977
 7175TIP3   OH243015   3.440   2.832  12.259 -0.1592  0.6077 -0.1167
 7175TIP3    H143016   3.388   2.764  12.302  0.2345 -0.0138 -0.6215
 7175TIP3    H243017   3.393   2.851  12.178  1.0228 -0.8208 -1.1654
 7176TIP3   OH243018   6.477   5.115  14.160 -0.5012 -0.3449  0.2437
 7176TIP3    H143019   6.549   5.069  14.117  0.1902  0.2357  0.7538
 7176TIP3    H243020   6.485   5.092  14.252  0.2941  1.3432  0.6174
 7177TIP3   OH243021   4.210   5.664   1.048  0.0283  0.0271 -0.5437
 7177TIP3    H143022   4.218   5.718   0.970  0.2100 -0.4628 -0.8678
 7177TIP3    H243023   4.247   5.579   1.023 -0.2543 -0.2507 -0.0465
 7178TIP3   OH243024   0.537   5.373   4.052 -0.1456 -0.3314 -0.3066
 7178TIP3    H143025   0.535   5.468   4.058  4.0414 -0.2441  1.0702
 7178TIP3    H243026   0.579   5.354   3.968  1.5630 -0.8899  0.6489
 7179TIP3   OH243027   4.250   4.382  16.104  0.4540 -0.0421 -0.4218
 7179TIP3    H143028   4.294   4.434  16.172  0.7700 -0.7312 -0.0916
 7179TIP3    H243029   4.246   4.293  16.141 -0.5540 -0.1380 -0.7582
 7180TIP3   OH243030   6.539   0.327   3.536  0.0815 -0.3866 -0.6501
 7180TIP3    H143031   6.535   0.275   3.456 -4.0158 -2.1342  0.5510
 7180TIP3    H243032   6.458   0.379   3.535  0.3234  0.1250  1.9951
 7181TIP3   OH243033   5.886   1.217   0.645  1.3130  0.3222  0.0324
 7181TIP3    H143034   5.825   1.283   0.613  2.1902  1.0522 -0.1382
 7181TIP3    H243035   5.943   1.198   0.570  0.6443 -1.1148 -0.1230
 7182TIP3   OH243036   5.680   2.360  15.259  0.5927  0.1173  0.4633
 7182TIP3    H143037   5.635   2.413  15.193 -1.0668 -3.6320 -1.6016
 7182TIP3    H243038   5.625   2.366  15.337  0.0907  0.9299  0.0458
 7183TIP3   OH243039   5.422   4.600   0.302  0.2973 -0.4989  0.0776
 7183TIP3    H143040   5.514   4.628   0.293  0.2446 -0.8486 -1.6228
 7183TIP3    H243041   5.405   4.549   0.223 -0.9831 -1.5378  1.0162
 7184TIP3   OH243042   5.187   0.296   1.588  0.0154 -0.5909 -0.4184
 7184TIP3    H143043   5.199   0.356   1.515  1.0667 -0.5670 -0.2291
 7184TIP3    H243044   5.254   0.321   1.651 -0.2214 -1.2827  0.1180
 7185TIP3   OH243045   5.958   3.493  13.637 -0.0643 -0.0917 -0.7550
 7185TIP3    H143046   6.016   3.418  13.649 -0.1121 -0.0194 -0.0500
 7185TIP3    H243047   5.987   3.556  13.703  0.7116  0.9644 -2.0790
 7186TIP3   OH243048   0.610   4.664   0.767 -0.2394  0.7471  0.1564
 7186TIP3    H143049   0.588   4.751   0.734  0.7042  1.0118  0.2120
 7186TIP3    H243050   0.541   4.607   0.732 -0.5089  1.4020 -0.3954
 7187TIP3   OH243051   1.010   2.618  13.364  0.5349 -0.3178  0.1670
 7187TIP3    H143052   0.994   2.636  13.457  0.0615 -3.2882  0.7116
 7187TIP3    H243053   0.925   2.634  13.322 -0.2195 -2.4011  0.8397
 7188TIP3   OH243054   3.990   5.632   0.243 -0.2153 -0.5106 -0.0342
 7188TIP3    H143055   3.954   5.611   0.157  0.7717 -1.2543 -0.2764
 7188TIP3    H243056   4.069   5.578   0.250 -0.7719 -1.1388  1.7094
 7189TIP3   OH243057   4.295   4.050  15.514 -0.3744  0.3982 -0.4689
 7189TIP3    H143058   4.283   3.958  15.535  1.2526  0.2147 -0.3445
 7189TIP3    H243059   4.344   4.086  15.587 -1.7215  1.5731 -0.0985
 7190TIP3   OH243060   2.247   5.733   1.517  0.6632 -0.4813  0.0561
 7190TIP3    H143061   2.316   5.697   1.571  0.7709  1.9687  1.6119
 7190TIP3    H243062   2.170   5.735   1.574  0.3273  0.4855 -0.4167
 7191TIP3   OH243063   2.031   5.029  16.957 -0.2257 -0.3570  0.2665
 7191TIP3    H143064   1.940   5.056  16.965 -0.8173 -2.1732 -0.1471
 7191TIP3    H243065   2.038   4.992  16.869  1.5509  2.0739 -0.6683
 7192TIP3   OH243066   2.229   4.075  16.563 -0.3964 -0.2561  0.2971
 7192TIP3    H143067   2.263   4.164  16.555 -1.5851  0.0948 -1.2365
 7192TIP3    H243068   2.281   4.024  16.501  1.9227 -1.1843  2.8961
 7193TIP3   OH243069   6.401   6.449  16.132  0.2353 -0.1376  0.4189
 7193TIP3    H143070   6.429   6.487  16.049 -0.1633 -0.3772  0.1737
 7193TIP3    H243071   6.445   6.364  16.136  0.4204 -0.0359  0.5500
 7194TIP3   OH243072   2.809   4.199   0.668 -0.1066  0.3780 -0.5230
 7194TIP3    H143073   2.814   4.283   0.713  0.2838  0.3056 -0.4307
 7194TIP3    H243074   2.727   4.160   0.699  0.0006  0.4703 -0.1297
 7195TIP3   OH243075   5.172   2.541   4.891  0.0712  0.5191 -0.0509
 7195TIP3    H143076   5.228   2.618   4.878  0.2184  0.4048 -0.0880
 7195TIP3    H243077   5.116   2.565   4.965 -0.2566  0.8778 -0.4085
 7196TIP3   OH243078   0.936   3.327   4.884  0.3349  0.0540  0.1082
 7196TIP3    H143079   0.878   3.393   4.846 -0.0515 -0.0515  0.5119
 7196TIP3    H243080   1.022   3.370   4.887 -0.3899  1.4327  2.6326
 7197TIP3   OH243081   0.984   1.000   0.248  0.5676 -0.0279 -0.0194
 7197TIP3    H143082   1.069   0.957   0.260  0.6510 -0.4413 -1.9119
 7197TIP3    H243083   0.921   0.928   0.252  0.6930 -0.3736 -3.0169
 7198TIP3   OH243084   1.280   1.245   0.398 -0.1842  0.1943  0.3775
 7198TIP3    H143085   1.203   1.279   0.444 -0.9467  1.7808 -2.0208
 7198TIP3    H243086   1.245   1.200   0.322  1.2715  1.3557 -1.0097
 7199TIP3   OH243087   4.343   6.283   6.455 -0.8178  0.0587 -0.5439
 7199TIP3    H143088   4.299   6.278   6.540  1.3890  1.1423  0.7043
 7199TIP3    H243089   4.277   6.323   6.397 -2.5343 -1.2087  0.4884
 7200TIP3   OH243090   1.580   2.807   5.849 -0.2312  0.1336 -0.1682
 7200TIP3    H143091   1.569   2.849   5.934  0.2839  0.3981 -0.2348
 7200TIP3    H243092   1.494   2.817   5.806  0.0511  1.6161 -0.4106
 7201TIP3   OH243093   4.142   2.866  15.522 -0.6911 -0.0243  0.2859
 7201TIP3    H143094   4.183   2.946  15.555  1.0236 -0.9246  0.4338
 7201TIP3    H243095   4.050   2.874  15.547 -0.7300  2.2790 -0.4638
 7202TIP3   OH243096   0.764   4.861   5.087  0.6258 -0.2500  0.5648
 7202TIP3    H143097   0.830   4.820   5.031 -0.8256 -0.5755 -0.9539
 7202TIP3    H243098   0.680   4.833   5.050 -0.3943  2.2482  0.8771
 7203TIP3   OH243099   0.991   5.904   3.717 -0.5316  0.9543  0.1532
 7203TIP3    H143100   0.965   5.875   3.629 -1.2728 -1.0848  1.0339
 7203TIP3    H243101   0.969   5.997   3.718  0.7981  1.3730 -2.3102
 7204TIP3   OH243102   1.287   4.334   5.117  0.0056  0.0795 -0.3791
 7204TIP3    H143103   1.292   4.326   5.022 -1.0146  0.2023 -0.4435
 7204TIP3    H243104   1.336   4.414   5.137 -0.0142  0.2054 -0.8261
 7205TIP3   OH243105   1.877   3.596   5.948 -0.0148  0.1565  0.1212
 7205TIP3    H143106   1.820   3.542   5.893  0.3031 -0.0661  0.0064
 7205TIP3    H243107   1.965   3.573   5.920  0.0985  1.7834 -0.9253
 7206TIP3   OH243108   1.019   1.963  13.988 -0.6166  0.3608  0.3130
 7206TIP3    H143109   1.000   1.981  14.080 -0.9868  0.5629  0.1945
 7206TIP3    H243110   0.971   1.882  13.969  0.2788 -0.2483  0.5810
 7207TIP3   OH243111   5.863   5.755  11.359 -0.5410 -0.4580 -0.3080
 7207TIP3    H143112   5.819   5.796  11.434  0.5120 -2.0719  1.2438
 7207TIP3    H243113   5.949   5.731  11.393 -0.9728 -3.5430 -1.2833
 7208TIP3   OH243114   6.618   1.488  16.103 -0.5928 -0.6218  0.1087
 7208TIP3    H143115   6.616   1.393  16.091  0.3762 -0.6933  0.4588
 7208TIP3    H243116   6.532   1.518  16.072 -0.7044 -1.5472 -0.5081
 7209TIP3   OH243117   5.764   4.808  15.881  0.2196 -0.6179 -0.1283
 7209TIP3    H143118   5.671   4.822  15.862  0.4006  0.1441 -0.4608
 7209TIP3    H243119   5.766   4.725  15.930 -0.5864 -0.8496 -0.4788
 7210TIP3   OH243120   0.063   2.292  13.970 -0.0793 -0.4416  0.2642
 7210TIP3    H143121   0.147   2.330  13.943  0.8080 -1.6746  1.1979
 7210TIP3    H243122   0.039   2.233  13.899  0.7247 -1.3796  0.7505
 7211TIP3   OH243123   2.875   4.601   6.057  0.4004  0.4581 -0.9815
 7211TIP3    H143124   2.893   4.507   6.052 -1.7219 -0.1690  1.4655
 7211TIP3    H243125   2.893   4.624   6.149 -3.1130  1.4440 -0.4325
 7212TIP3   OH243126   1.233   2.188   5.951 -0.3610 -0.7349 -0.0273
 7212TIP3    H143127   1.146   2.228   5.944 -0.1831 -0.1675  0.9548
 7212TIP3    H243128   1.217   2.101   5.987 -0.5227 -0.6512  0.1002
 7213TIP3   OH243129   4.511   3.319  12.349 -0.2715 -0.3317 -0.1924
 7213TIP3    H143130   4.436   3.260  12.343 -0.8145  0.0274  2.5918
 7213TIP3    H243131   4.573   3.274  12.406  1.1013 -0.0403 -1.4245
 7214TIP3   OH243132   5.437   0.811   1.048 -0.6568  0.5246  0.8743
 7214TIP3    H143133   5.374   0.855   0.992 -0.1315 -0.2429 -0.3306
 7214TIP3    H243134   5.510   0.873   1.056  0.3177 -0.3147 -1.2537
 7215TIP3   OH243135   3.142   2.412   1.837  0.2830  0.3547  0.0471
 7215TIP3    H143136   3.220   2.399   1.890  1.1074  1.5972 -0.8268
 7215TIP3    H243137   3.131   2.330   1.789 -0.6894 -0.9219  2.3724
 7216TIP3   OH243138   5.948   0.291  10.894  0.1643 -0.0245 -0.1803
 7216TIP3    H143139   6.039   0.264  10.887  0.1802  0.0061 -0.0803
 7216TIP3    H243140   5.941   0.366  10.834  0.1623 -0.1355 -0.3185
 7217TIP3   OH243141   0.655   5.745   1.925 -0.4689  0.2685  0.3141
 7217TIP3    H143142   0.703   5.698   1.856  0.8612 -0.0768  1.4689
 7217TIP3    H243143   0.656   5.836   1.897  0.4623  0.1942  0.0931
 7218TIP3   OH243144   2.496   6.038   0.691 -0.6960  0.0290 -0.5890
 7218TIP3    H143145   2.448   6.119   0.705 -0.5400 -0.3445  2.5132
 7218TIP3    H243146   2.439   5.970   0.728  0.8068 -0.8016  0.2432
 7219TIP3   OH243147   1.864   4.356   4.190 -0.6288 -0.5634  0.4496
 7219TIP3    H143148   1.823   4.369   4.275 -2.1563 -1.4095 -0.1399
 7219TIP3    H243149   1.908   4.271   4.197 -1.7823 -1.2030  0.0052
 7220TIP3   OH243150   6.240   2.536   1.307 -0.1359  0.8791  0.5611
 7220TIP3    H143151   6.243   2.548   1.402 -0.5991 -1.3532  0.8847
 7220TIP3    H243152   6.332   2.535   1.279  0.1057 -0.8928  1.3412
 7221TIP3   OH243153   2.810   5.169  17.150  0.3225  0.3422 -0.1631
 7221TIP3    H143154   2.716   5.182  17.166  0.3517 -0.1519  0.4137
 7221TIP3    H243155   2.815   5.086  17.103  0.5233  0.0249  0.4154
 7222TIP3   OH243156   6.507   4.663  16.646  0.2135 -0.0132 -0.7333
 7222TIP3    H143157   6.563   4.585  16.643  2.4553  1.5640 -1.7149
 7222TIP3    H243158   6.561   4.729  16.690 -1.5585  1.0531 -0.1217
 7223TIP3   OH243159   6.144   4.851   5.570  0.3551 -0.2954  0.2735
 7223TIP3    H143160   6.196   4.931   5.564 -0.3208  0.1811  0.6281
 7223TIP3    H243161   6.203   4.787   5.609  1.0718 -0.1226 -0.5182
 7224TIP3   OH243162   6.065   3.960  14.915  0.0363 -0.4104  0.4303
 7224TIP3    H143163   6.039   3.880  14.870 -1.8864 -0.2695  1.2268
 7224TIP3    H243164   5.993   4.021  14.898  0.7273  0.6193  1.1650
 7225TIP3   OH243165   6.312   5.497   5.997 -0.6541 -0.0694 -0.2326
 7225TIP3    H143166   6.338   5.526   6.084  1.4063  0.0512 -0.8704
 7225TIP3    H243167   6.386   5.445   5.966 -0.2547  2.0098 -2.9286
 7226TIP3   OH243168   3.969   1.587  15.170  0.3028  0.5914  0.8099
 7226TIP3    H143169   4.028   1.650  15.212  0.3052  1.2653 -0.1579
 7226TIP3    H243170   3.894   1.640  15.143 -1.3345 -0.4968  3.1390
 7227TIP3   OH243171   6.258   6.641  13.317 -0.3736 -0.4391  0.7126
 7227TIP3    H143172   6.249   6.641  13.222 -0.4079 -0.4098  0.7157
 7227TIP3    H243173   6.339   6.592  13.333 -0.3764 -0.4574  0.6699
 7228TIP3   OH243174   6.272   5.365   2.726 -0.8630  0.0398 -0.1290
 7228TIP3    H143175   6.357   5.323   2.713 -1.0496 -0.6687  0.9460
 7228TIP3    H243176   6.257   5.413   2.644 -0.3634 -1.4586 -1.1161
 7229TIP3   OH243177   0.497   2.910  14.840 -0.0277 -0.6719 -0.2155
 7229TIP3    H143178   0.563   2.865  14.894  0.4833  0.1212 -0.1729
 7229TIP3    H243179   0.419   2.854  14.846  0.3054 -1.0533  0.6160
 7230TIP3   OH243180   5.457   6.298   3.693  0.3095  0.1075 -0.8088
 7230TIP3    H143181   5.523   6.303   3.763 -0.5021 -0.5099  0.0003
 7230TIP3    H243182   5.458   6.206   3.666  0.4595  0.3001 -1.4550
 7231TIP3   OH243183   2.067   2.699  12.408  0.1036  0.1616  0.1996
 7231TIP3    H143184   2.144   2.653  12.441  1.2421  0.7064 -1.6097
 7231TIP3    H243185   2.063   2.676  12.315 -3.0707 -1.4290  0.6353
 7232TIP3   OH243186   1.815   4.936  16.163 -0.1337  0.0985 -0.4222
 7232TIP3    H143187   1.878   4.992  16.118 -0.7134  0.2336 -1.0664
 7232TIP3    H243188   1.814   4.855  16.113  1.1180 -0.7165  0.8356
 7233TIP3   OH243189   1.392   6.329   3.140 -0.2236 -0.1185 -0.2848
 7233TIP3    H143190   1.443   6.310   3.219 -2.7486 -3.2360  0.6723
 7233TIP3    H243191   1.439   6.284   3.070 -1.0068 -2.1031  0.4235
 7234TIP3   OH243192   0.232   4.174  12.934 -0.0867  0.6160  0.6367
 7234TIP3    H143193   0.185   4.103  12.977 -0.9658  0.5279 -0.4578
 7234TIP3    H243194   0.189   4.254  12.965 -1.1295  0.5246 -0.5562
 7235TIP3   OH243195   2.371   3.523   0.998  0.1956  0.3201 -0.2787
 7235TIP3    H143196   2.310   3.575   1.051 -0.1191 -0.8777  0.5486
 7235TIP3    H243197   2.436   3.492   1.061 -0.8324 -2.0929 -0.3517
 7236TIP3   OH243198   0.277   6.810  13.577  0.5619  1.0715  0.0720
 7236TIP3    H143199   0.325   6.891  13.595  0.5661  0.9390  0.6867
 7236TIP3    H243200   0.191   6.825  13.616  0.9382  0.3492  1.2005
 7237TIP3   OH243201   1.614   6.083   1.961  0.0675  0.1626 -0.5754
 7237TIP3    H143202   1.665   6.164   1.953 -0.5215  0.9223  2.6203
 7237TIP3    H243203   1.533   6.100   1.913 -0.3068  1.7025  0.5702
 7238TIP3   OH243204   4.478   5.513  12.568  0.0629 -0.3650 -0.4076
 7238TIP3    H143205   4.532   5.466  12.632 -1.0713  2.4541  2.7890
 7238TIP3    H243206   4.422   5.446  12.530 -0.3536 -1.9206  2.7700
 7239TIP3   OH243207   6.133   4.570   2.505 -0.5633 -0.0807 -0.3871
 7239TIP3    H143208   6.070   4.507   2.470  0.3812 -0.2503 -1.8374
 7239TIP3    H243209   6.218   4.538   2.475  0.2244  0.0920  1.6397
 7240TIP3   OH243210   0.757   5.472  13.442  0.2321 -0.2133  0.5048
 7240TIP3    H143211   0.789   5.400  13.496 -3.6979 -3.2041 -0.9400
 7240TIP3    H243212   0.744   5.434  13.355 -0.6266  2.6160 -0.6867
 7241TIP3   OH243213   2.561   4.132   0.734  0.2820  0.4061  0.3971
 7241TIP3    H143214   2.502   4.069   0.692  0.6271 -1.1662  2.1771
 7241TIP3    H243215   2.532   4.217   0.702  0.3971 -0.7034 -2.7902
 7242TIP3   OH243216   3.386   1.129   4.230 -0.5350 -0.6767  0.2131
 7242TIP3    H143217   3.327   1.059   4.259  0.2948 -0.2438  3.1012
 7242TIP3    H243218   3.464   1.083   4.198 -0.4304 -1.1188  1.0898
 7243TIP3   OH243219   0.030   1.191   1.163 -0.0633 -0.6826 -0.1617
 7243TIP3    H143220   0.050   1.124   1.227 -0.3789 -2.0030 -1.4186
 7243TIP3    H243221  -0.063   1.212   1.178 -0.2909 -1.3976 -0.5420
 7244TIP3   OH243222   3.209   5.858  16.451 -0.7837 -0.0254 -0.3402
 7244TIP3    H143223   3.284   5.823  16.403  2.4548  2.6135  2.5506
 7244TIP3    H243224   3.189   5.790  16.516 -0.6451 -0.5541 -0.8450
 7245TIP3   OH243225   0.102   1.855  13.856 -0.3158  0.3861  0.0101
 7245TIP3    H143226   0.109   1.908  13.776  1.4067 -1.7724 -1.3470
 7245TIP3    H243227   0.186   1.809  13.861 -1.8683 -2.4640  0.9408
 7246TIP3   OH243228   1.513   1.505  10.929 -0.7150  0.4294 -0.1248
 7246TIP3    H143229   1.519   1.426  10.875  1.2793  0.1769  0.4273
 7246TIP3    H243230   1.487   1.573  10.867 -0.4311 -0.2636 -1.0270
 7247TIP3   OH243231   0.735   0.859   1.641  0.5059  0.4673  0.0753
 7247TIP3    H143232   0.762   0.946   1.670  1.0626  0.9133 -1.7683
 7247TIP3    H243233   0.814   0.805   1.651  1.1975  1.0207 -2.2105
 7248TIP3   OH243234   4.195   4.019   2.579 -0.2553 -0.3791  0.2477
 7248TIP3    H143235   4.249   4.051   2.651  0.4151 -0.1486 -0.3464
 7248TIP3    H243236   4.255   3.969   2.524 -0.7607 -0.5538 -0.1537
 7249TIP3   OH243237   3.501   5.933   5.281  0.0313  0.0187 -0.0976
 7249TIP3    H143238   3.479   5.995   5.211  1.3539  0.1636 -0.3870
 7249TIP3    H243239   3.487   5.983   5.362 -2.3380 -0.4151 -0.2087
 7250TIP3   OH243240   0.006   3.762   2.774 -0.2522  0.1134  0.4079
 7250TIP3    H143241  -0.081   3.777   2.810 -0.0551 -0.1205  0.9963
 7250TIP3    H243242   0.041   3.849   2.756  0.1274  0.3035  1.9569
 7251TIP3   OH243243   3.429   4.604   3.523  0.2224  0.0538 -0.0468
 7251TIP3    H143244   3.481   4.539   3.569  1.0841  1.1729  0.5865
 7251TIP3    H243245   3.405   4.562   3.440  0.8800 -0.9993  0.2893
 7252TIP3   OH243246   5.419   2.104  16.960  0.0250  0.3548  0.5894
 7252TIP3    H143247   5.505   2.145  16.964  0.5617 -0.7654  0.7802
 7252TIP3    H243248   5.430   2.021  17.006 -1.2992  0.4462  1.0950
 7253TIP3   OH243249   1.206   6.537   6.269 -0.0701 -0.2525 -0.3043
 7253TIP3    H143250   1.261   6.528   6.348 -0.5912 -1.2541 -0.0431
 7253TIP3    H243251   1.121   6.565   6.303 -0.9187 -2.7359 -0.2681
 7254TIP3   OH243252   3.556   0.013   3.248  0.1095 -1.1211 -0.4675
 7254TIP3    H143253   3.476  -0.024   3.286  0.8729 -2.0705  0.2100
 7254TIP3    H243254   3.571   0.093   3.299 -0.0136 -1.3167 -0.1215
 7255TIP3   OH243255   5.400   3.114  12.377 -0.4286 -0.3687  1.1160
 7255TIP3    H143256   5.337   3.130  12.448 -3.0752  2.2427 -1.6934
 7255TIP3    H243257   5.458   3.190  12.379 -0.7509 -0.0989  0.2421
 7256TIP3   OH243258   5.841   1.656  15.171 -0.1096  0.2836 -0.0180
 7256TIP3    H143259   5.835   1.579  15.115 -0.1151  0.2799 -0.0117
 7256TIP3    H243260   5.932   1.684  15.165 -0.7181  1.9522 -2.2161
 7257TIP3   OH243261   2.665   6.603   5.538 -0.1811  0.0306 -0.4430
 7257TIP3    H143262   2.662   6.689   5.580 -1.7471  0.3155 -1.1316
 7257TIP3    H243263   2.743   6.607   5.482  1.2883  0.0337  1.5418
 7258TIP3   OH243264   0.919   2.807   5.353 -0.0743  0.4284 -0.1276
 7258TIP3    H143265   0.959   2.881   5.399  0.3705 -0.9641  1.7884
 7258TIP3    H243266   0.938   2.823   5.260  0.1655  2.6123  0.2696
 7259TIP3   OH243267   0.950   4.639  17.067 -0.3754 -0.0398  0.3497
 7259TIP3    H143268   0.908   4.677  17.145 -2.2622  0.2567 -0.7704
 7259TIP3    H243269   1.037   4.613  17.097 -0.7388  0.8935  2.3293
 7260TIP3   OH243270   4.217   5.705   5.730  0.5086 -0.2517 -0.0844
 7260TIP3    H143271   4.287   5.686   5.792  1.1340 -1.7578 -1.2342
 7260TIP3    H243272   4.142   5.728   5.785  0.9132 -2.0394  1.2606
 7261TIP3   OH243273   0.958   3.324   0.826 -0.8299  0.3345  0.2449
 7261TIP3    H143274   0.911   3.298   0.747  0.5218  0.2987 -0.5803
 7261TIP3    H243275   1.050   3.328   0.798 -0.0458 -1.7934  2.3540
 7262TIP3   OH243276   1.412   1.232   1.136 -0.1835  0.7053 -0.0126
 7262TIP3    H143277   1.503   1.257   1.148 -0.0052  0.8472 -1.5875
 7262TIP3    H243278   1.407   1.142   1.169  0.6532  0.5137 -0.3988
 7263TIP3   OH243279   2.306   0.116   4.381  0.0347  0.0645  0.2585
 7263TIP3    H143280   2.302   0.206   4.412 -1.5381  0.3542 -0.6754
 7263TIP3    H243281   2.233   0.072   4.424  0.2661 -0.5362  0.0506
 7264TIP3   OH243282   5.571   0.128   0.097  0.3470 -0.1654 -0.3397
 7264TIP3    H143283   5.498   0.087   0.052  1.4377 -1.4323 -0.9954
 7264TIP3    H243284   5.644   0.068   0.084  1.5054  1.0646  0.3202
 7265TIP3   OH243285   6.487   5.059  14.425  0.2621 -0.3721  0.2287
 7265TIP3    H143286   6.552   5.114  14.468 -1.0267  1.6517 -0.3308
 7265TIP3    H243287   6.433   5.025  14.496 -1.3060  2.2362  0.3292
 7266TIP3   OH243288   1.838   0.495   4.748 -0.2552  0.0245  0.8990
 7266TIP3    H143289   1.872   0.556   4.683 -3.2229  1.1041  0.2829
 7266TIP3    H243290   1.874   0.527   4.831 -1.1249  2.1603  0.4911
 7267TIP3   OH243291   2.874   5.359  14.598  0.4437  0.2642  0.2116
 7267TIP3    H143292   2.806   5.420  14.571 -0.8774 -1.1567  0.2702
 7267TIP3    H243293   2.839   5.273  14.576  1.6690 -0.5649  1.4306
 7268TIP3   OH243294   1.136   1.894  15.640 -0.2566  0.7564  0.5249
 7268TIP3    H143295   1.092   1.937  15.566  0.7752  0.0572 -0.5279
 7268TIP3    H243296   1.223   1.873  15.606  0.5217  1.1687  2.2292
 7269TIP3   OH243297   5.704   6.440   0.986  0.0883 -0.1246  0.0975
 7269TIP3    H143298   5.661   6.402   0.910  1.8120 -1.1010 -0.4146
 7269TIP3    H243299   5.767   6.503   0.950  0.2379  0.1133  0.7609
 7270TIP3   OH243300   3.803   1.708  14.326  0.2759 -0.5559  0.4928
 7270TIP3    H143301   3.752   1.654  14.386 -0.3603 -1.8315 -1.1332
 7270TIP3    H243302   3.865   1.647  14.285  1.0941  0.3977  0.2813
 7271TIP3   OH243303   1.253   1.154   0.102 -0.0407 -0.2525  0.1160
 7271TIP3    H143304   1.245   1.064   0.134  1.3238 -0.2713  0.4127
 7271TIP3    H243305   1.162   1.184   0.093 -0.4944 -1.4802  0.5019
 7272TIP3   OH243306   6.783   4.024   2.646 -0.2097  0.0306 -0.0119
 7272TIP3    H143307   6.700   4.061   2.677 -0.3336 -0.4659  0.2520
 7272TIP3    H243308   6.849   4.090   2.668 -0.7990  1.3726 -2.0651
 7273TIP3   OH243309   0.208   2.809  11.192 -0.3740  0.8742 -0.4999
 7273TIP3    H143310   0.279   2.746  11.175 -1.8252 -1.5258  1.9112
 7273TIP3    H243311   0.133   2.754  11.214 -2.0930  3.4691  0.2185
 7274TIP3   OH243312   5.134   5.249  14.986  0.0080 -0.6348  0.2911
 7274TIP3    H143313   5.215   5.218  15.026  0.5311  0.5577  0.1900
 7274TIP3    H243314   5.105   5.319  15.044  0.6699  0.9934 -1.2840
 7275TIP3   OH243315   3.888   2.747   4.379 -0.1574  0.0608 -0.1039
 7275TIP3    H143316   3.888   2.671   4.437  0.6222 -0.4463 -0.7605
 7275TIP3    H243317   3.814   2.800   4.409  0.6229  0.1222  1.7734
 7276TIP3   OH243318   3.634   1.027  13.181 -0.5575 -0.0220  0.2110
 7276TIP3    H143319   3.563   0.962  13.182 -0.4946 -0.1092  3.0513
 7276TIP3    H243320   3.709   0.980  13.217  0.0777  1.0058  0.2295
 7277TIP3   OH243321   1.826   1.579   2.793 -0.0815 -0.1062  0.3143
 7277TIP3    H143322   1.840   1.608   2.703 -3.3593 -1.0231 -0.5558
 7277TIP3    H243323   1.745   1.623   2.820  1.2891  0.8100  3.1241
 7278TIP3   OH243324   6.222   4.311   1.474 -0.1550  0.1086 -0.1346
 7278TIP3    H143325   6.219   4.236   1.533  2.7612 -0.0812 -0.1618
 7278TIP3    H243326   6.177   4.381   1.522 -1.7806 -1.2614  0.4145
 7279TIP3   OH243327   6.243   0.015  14.327 -0.5178 -0.4007  0.3353
 7279TIP3    H143328   6.330  -0.009  14.293 -0.3970 -1.2246  1.2017
 7279TIP3    H243329   6.187   0.016  14.249  0.5880  1.6965 -0.4595
 7280TIP3   OH243330   5.355   1.856   4.406 -1.0800 -0.1965 -0.0107
 7280TIP3    H143331   5.364   1.939   4.360  2.8538 -1.6287 -2.0237
 7280TIP3    H243332   5.277   1.816   4.369 -2.6475  2.2847  0.5190
 7281TIP3   OH243333   4.051   1.043  13.642 -1.0168 -0.0277  0.2233
 7281TIP3    H143334   4.100   1.105  13.696 -0.5772 -0.3503  0.1963
 7281TIP3    H243335   4.065   0.958  13.683 -0.0203 -0.3967 -0.8487
 7282TIP3   OH243336   1.483   0.904   2.063 -0.1166  0.3000 -0.1671
 7282TIP3    H143337   1.539   0.979   2.081  0.8947 -0.5329  0.2386
 7282TIP3    H243338   1.452   0.876   2.149  0.7148 -0.6487 -0.1660
 7283TIP3   OH243339   2.392   1.762   1.554  0.2917 -0.0309  0.0416
 7283TIP3    H143340   2.305   1.734   1.581  0.9618 -2.5762 -0.2807
 7283TIP3    H243341   2.389   1.858   1.558 -2.4851 -0.0765  0.0703
 7284TIP3   OH243342   0.578   2.872  12.608 -0.0206 -0.2196  0.4322
 7284TIP3    H143343   0.491   2.835  12.592 -0.3111  0.9575 -0.8319
 7284TIP3    H243344   0.583   2.881  12.703 -1.5764  0.3636  0.4829
 7285TIP3   OH243345   2.680   1.739  15.975 -0.0861  0.3631 -0.5676
 7285TIP3    H143346   2.682   1.684  15.896  0.3627  0.5058 -0.6579
 7285TIP3    H243347   2.588   1.739  16.001 -0.3573  0.8757 -1.4942
 7286TIP3   OH243348   3.136   2.961  16.406  0.5316  0.2952  0.0766
 7286TIP3    H143349   3.218   2.924  16.436  0.8888  1.8623  1.0920
 7286TIP3    H243350   3.081   2.886  16.384  2.4780 -0.7452 -1.2834
 7287TIP3   OH243351   2.064   4.672  12.141  0.7965 -0.0200  0.0529
 7287TIP3    H143352   2.138   4.723  12.173 -0.3283  0.7406  1.4735
 7287TIP3    H243353   2.090   4.581  12.155  2.1987  0.1781 -1.1394
 7288TIP3   OH243354   6.130   3.180  10.319 -0.1926 -0.0006 -0.1577
 7288TIP3    H143355   6.067   3.252  10.329  0.4001  0.2978  1.6746
 7288TIP3    H243356   6.215   3.220  10.335  0.4676 -0.4531 -2.4229
 7289TIP3   OH243357   0.857   4.122   2.356 -0.2994 -0.3744  0.7947
 7289TIP3    H143358   0.851   4.171   2.438  1.5809 -2.1154  2.0111
 7289TIP3    H243359   0.947   4.138   2.326 -0.5179 -0.9229 -0.1709
 7290TIP3   OH243360   2.519   6.513   3.062  0.1197  0.0120 -0.0123
 7290TIP3    H143361   2.478   6.569   2.996  1.0995 -0.3863 -0.9710
 7290TIP3    H243362   2.445   6.473   3.108 -0.6068 -1.0357 -2.0048
 7291TIP3   OH243363   2.008   6.760  13.850  0.5552 -0.2735 -0.4485
 7291TIP3    H143364   2.102   6.753  13.835  1.4026  0.6625  3.7944
 7291TIP3    H243365   1.980   6.834  13.796  2.4586  0.1100 -0.9309
 7292TIP3   OH243366   3.682   5.488  15.409 -0.4363  0.1797  0.8172
 7292TIP3    H143367   3.695   5.545  15.486 -0.4760 -1.1741  1.8353
 7292TIP3    H243368   3.597   5.515  15.374 -0.3165  0.9668  1.1009
 7293TIP3   OH243369   5.627   3.993  14.922 -0.3059 -0.5500  0.3149
 7293TIP3    H143370   5.683   4.062  14.888 -0.4314 -0.4497  0.3147
 7293TIP3    H243371   5.549   4.038  14.954 -0.4020 -0.6926  0.2837
 7294TIP3   OH243372   0.307   0.306   0.539 -0.3335 -0.5821  0.2677
 7294TIP3    H143373   0.268   0.356   0.609  2.1795  0.3984  1.0339
 7294TIP3    H243374   0.271   0.344   0.459  0.2165  1.3209  0.8951
 7295TIP3   OH243375   1.992   4.173  11.980 -0.1861  0.0186 -0.1470
 7295TIP3    H143376   2.076   4.202  12.016 -0.4844 -0.5741  1.0578
 7295TIP3    H243377   1.927   4.230  12.022 -0.6451 -1.4435  1.1989
 7296TIP3   OH243378   2.790   4.580  16.805  0.0764  0.1142  0.3660
 7296TIP3    H143379   2.788   4.517  16.877 -1.2239 -0.6350 -0.2927
 7296TIP3    H243380   2.771   4.527  16.727  0.2518  1.1063 -0.3653
 7297TIP3   OH243381   3.813   4.840   3.105 -0.0062  0.1864  0.5386
 7297TIP3    H143382   3.736   4.799   3.144 -0.7422  1.4659  0.4701
 7297TIP3    H243383   3.876   4.769   3.094 -1.6999 -1.1756 -0.7194
 7298TIP3   OH243384   1.893   5.125  14.730  0.1584 -0.5066 -0.5560
 7298TIP3    H143385   1.908   5.219  14.742 -1.9005 -0.4432  1.9285
 7298TIP3    H243386   1.797   5.118  14.724  0.2231 -2.5991  0.6910
 7299TIP3   OH243387   1.780   3.970   1.184 -0.1290 -0.1585 -0.2336
 7299TIP3    H143388   1.687   3.976   1.206  0.1313 -1.4230  1.3063
 7299TIP3    H243389   1.818   4.051   1.219 -0.3221 -0.5432  0.8725
 7300TIP3   OH243390   3.431   2.719   0.693 -0.0359  0.1419  0.1114
 7300TIP3    H143391   3.433   2.629   0.725  1.2124 -0.6854 -2.1083
 7300TIP3    H243392   3.499   2.764   0.744  0.0004 -0.4321  0.5726
 7301TIP3   OH243393   1.638   2.124  16.187  0.4662  0.1133 -0.7067
 7301TIP3    H143394   1.562   2.168  16.226  0.4447  0.0187 -0.6415
 7301TIP3    H243395   1.604   2.084  16.107  0.2759 -0.5515 -0.2960
 7302TIP3   OH243396   3.480   1.856  11.739  0.0799  0.0994  0.2657
 7302TIP3    H143397   3.409   1.865  11.676 -0.0701  0.4891  0.4926
 7302TIP3    H243398   3.500   1.945  11.767 -0.7565 -0.1681  1.7725
 7303TIP3   OH243399   6.709   0.502  14.444 -0.4790 -0.0368  0.1310
 7303TIP3    H143400   6.782   0.453  14.406  0.4259  0.5929  1.0430
 7303TIP3    H243401   6.698   0.578  14.387 -2.0782 -1.4015 -1.4628
 7304TIP3   OH243402   3.453   2.365  12.987 -0.1570  0.0725 -0.0622
 7304TIP3    H143403   3.479   2.412  12.908 -0.4804  3.1854  1.6368
 7304TIP3    H243404   3.492   2.278  12.977  1.3268  1.0189 -2.7866
 7305TIP3   OH243405   6.772   0.468   3.617 -0.2582 -0.2965 -0.4610
 7305TIP3    H143406   6.753   0.517   3.696 -1.5296  0.3861 -1.1665
 7305TIP3    H243407   6.687   0.431   3.590  0.6794 -3.0550  0.1511
 7306TIP3   OH243408   5.892   2.060   1.557  0.0982  0.1733  1.0950
 7306TIP3    H143409   5.893   1.991   1.622 -2.0741  0.2048  1.1801
 7306TIP3    H243410   5.883   2.014   1.473 -0.3540  0.2992  1.0739
 7307TIP3   OH243411   4.480   5.590  14.578 -0.1837  0.3492 -0.2936
 7307TIP3    H143412   4.544   5.544  14.522  0.0382 -0.5799  0.7028
 7307TIP3    H243413   4.519   5.675  14.594  2.9946 -1.7258  3.9608
 7308TIP3   OH243414   5.112   6.702   2.285  0.2444 -0.4771  0.3398
 7308TIP3    H143415   5.181   6.646   2.250  0.6769 -0.0234  0.4574
 7308TIP3    H243416   5.035   6.683   2.230  0.3463 -1.2873  0.4818
 7309TIP3   OH243417   3.917   2.976  11.462  0.1975 -0.3798  0.2548
 7309TIP3    H143418   3.941   2.892  11.500 -0.8571 -0.6140  0.4083
 7309TIP3    H243419   3.844   2.957  11.403 -1.2511  0.6580  1.6545
 7310TIP3   OH243420   6.611   6.461  13.936  0.7782  0.3568 -0.4092
 7310TIP3    H143421   6.621   6.402  14.011  1.9650  2.2289  0.9732
 7310TIP3    H243422   6.553   6.414  13.876 -0.2970 -1.1631  1.7277
 7311TIP3   OH243423   2.498   0.614   3.458 -0.2187 -0.4056 -0.4332
 7311TIP3    H143424   2.496   0.709   3.442  1.1611 -0.4153 -0.7846
 7311TIP3    H243425   2.425   0.580   3.407  0.0509  0.3429 -1.3527
 7312TIP3   OH243426   2.177   5.374  16.128  0.5374 -0.1198 -0.2459
 7312TIP3    H143427   2.114   5.404  16.062  1.7270 -0.6286 -1.6375
 7312TIP3    H243428   2.147   5.415  16.209 -1.2728  0.0821 -0.9817
 7313TIP3   OH243429   2.828   0.478  15.793  0.3399 -0.3899  0.2175
 7313TIP3    H143430   2.821   0.397  15.844 -1.3271  0.6204  1.6463
 7313TIP3    H243431   2.881   0.536  15.848 -1.4214  0.6848  0.8065
 7314TIP3   OH243432   5.770   6.611  15.325 -0.0131 -0.0180 -0.0993
 7314TIP3    H143433   5.771   6.536  15.385  0.1458  0.8563  0.9980
 7314TIP3    H243434   5.726   6.577  15.247  1.7184 -1.8008 -0.3569
 7315TIP3   OH243435   2.407   0.360  12.119  0.2695 -0.1276 -0.3663
 7315TIP3    H143436   2.329   0.366  12.175  1.3666 -1.3977  1.3815
 7315TIP3    H243437   2.392   0.281  12.066 -1.0328  1.4004 -2.3301
 7316TIP3   OH243438   5.541   0.859   0.230 -0.0575  0.0220 -0.9305
 7316TIP3    H143439   5.516   0.775   0.268 -1.1759  0.9059  0.3195
 7316TIP3    H243440   5.472   0.879   0.167  0.0579  0.1337 -1.0215
 7317TIP3   OH243441   3.869   6.799  16.836 -0.5756 -0.2136 -0.0498
 7317TIP3    H143442   3.936   6.857  16.871  0.1368 -0.4918 -0.9508
 7317TIP3    H243443   3.851   6.833  16.748  1.5823 -2.7716 -1.5311
 7318TIP3   OH243444   4.879   3.880  11.195 -0.5432  0.4875  0.1027
 7318TIP3    H143445   4.898   3.797  11.239 -1.6760 -0.4717 -1.1741
 7318TIP3    H243446   4.963   3.906  11.156 -0.0972  0.1382  0.8144
 7319TIP3   OH243447   4.408   3.084   5.636  0.2227  0.3697  0.2393
 7319TIP3    H143448   4.484   3.130   5.673  1.3028 -2.2576  1.3819
 7319TIP3    H243449   4.358   3.054   5.711 -0.5379 -0.1903 -0.4827
 7320TIP3   OH243450   4.123   2.117   3.322 -0.0818 -0.0349  0.1632
 7320TIP3    H143451   4.083   2.066   3.393  0.7315 -0.9559 -0.0450
 7320TIP3    H243452   4.186   2.174   3.367  1.0782 -1.2437  0.1102
 7321TIP3   OH243453   3.904   1.162   0.810 -0.1623 -0.3054  0.4961
 7321TIP3    H143454   3.975   1.221   0.836 -2.4616  2.3946  0.9385
 7321TIP3    H243455   3.906   1.092   0.875  1.6650  0.0693  0.8697
 7322TIP3   OH243456   0.249   4.810   1.960  0.6322 -0.3858 -1.0158
 7322TIP3    H143457   0.308   4.803   2.035  0.6633  0.4432 -0.9523
 7322TIP3    H243458   0.265   4.731   1.909  0.4805 -1.0458 -0.0510
 7323TIP3   OH243459   5.130   3.355  16.364  0.2521  0.4320  0.8872
 7323TIP3    H143460   5.124   3.273  16.315 -2.0951 -0.3695  2.4365
 7323TIP3    H243461   5.205   3.342  16.423  2.3081  0.9332 -1.5204
 7324TIP3   OH243462   6.209   4.160   1.739 -0.6101  0.3741  0.3435
 7324TIP3    H143463   6.207   4.171   1.834 -0.3907  0.2225  0.3662
 7324TIP3    H243464   6.119   4.134   1.717 -0.9371  1.4554  0.3777
 7325TIP3   OH243465   3.429   6.811  10.988  0.1301  0.4384  0.2011
 7325TIP3    H143466   3.359   6.778  11.045  0.7601  0.4678  1.0053
 7325TIP3    H243467   3.458   6.891  11.031  1.2367 -0.0250  0.3304
 7326TIP3   OH243468   3.483   5.122   5.879 -0.0532 -0.7465 -0.3256
 7326TIP3    H143469   3.405   5.118   5.934  0.8778  0.9231  1.1823
 7326TIP3    H243470   3.533   5.043   5.902 -0.6187 -1.0755 -0.2310
 7327TIP3   OH243471   1.918   5.785   4.944 -0.0678 -0.3068  0.1350
 7327TIP3    H143472   1.998   5.752   4.903  0.3391 -0.3379  0.9556
 7327TIP3    H243473   1.911   5.735   5.026 -0.5385  0.2109  0.4085
 7328TIP3   OH243474   1.676   0.388   5.940  0.6073  0.2373  0.0979
 7328TIP3    H143475   1.748   0.390   5.877  0.0316  1.0499 -0.5468
 7328TIP3    H243476   1.708   0.437   6.016  1.5302 -1.2679  0.6956
 7329TIP3   OH243477   5.991   4.184   2.627  0.0090 -0.4013  0.1684
 7329TIP3    H143478   5.971   4.158   2.537  0.1985  0.4310 -0.1181
 7329TIP3    H243479   6.086   4.191   2.629  0.1397 -2.1290  0.9178
 7330TIP3   OH243480   5.391   1.182   3.893 -0.5807  1.1082 -0.0977
 7330TIP3    H143481   5.428   1.239   3.961  0.4852 -1.1688  1.2692
 7330TIP3    H243482   5.463   1.124   3.869 -1.3003  1.0930 -2.3608
 7331TIP3   OH243483   4.756   2.677  16.689  0.6532 -0.4001  0.0606
 7331TIP3    H143484   4.662   2.661  16.695  0.3239  0.9499 -1.3513
 7331TIP3    H243485   4.792   2.635  16.767 -1.3315  0.8218  1.6851
 7332TIP3   OH243486   0.677   3.699  12.802 -0.4157  0.0270 -0.0073
 7332TIP3    H143487   0.709   3.609  12.814  0.7407  0.5767  1.1155
 7332TIP3    H243488   0.622   3.694  12.724  0.7603 -1.3895 -0.7781
 7333TIP3   OH243489   3.778   0.026   3.051  0.2207  0.1043  0.0703
 7333TIP3    H143490   3.694   0.043   3.095  0.5136 -1.7670  1.3996
 7333TIP3    H243491   3.763   0.055   2.960 -1.5728  0.6143  0.4974
 7334TIP3   OH243492   0.266   4.396  11.749 -0.2265  0.1261  0.2220
 7334TIP3    H143493   0.194   4.390  11.687 -0.6296 -0.6213  0.7531
 7334TIP3    H243494   0.283   4.306  11.775  0.5282  0.3522  0.5296
 7335TIP3   OH243495   1.133   0.215   2.164  0.0857  0.2731 -0.0570
 7335TIP3    H143496   1.092   0.294   2.199  0.2607 -0.3039  1.4863
 7335TIP3    H243497   1.227   0.230   2.172  0.1185 -0.3796  0.9613
 7336TIP3   OH243498   1.359   1.842  16.757 -0.3703  0.0381  0.4773
 7336TIP3    H143499   1.370   1.921  16.809 -1.2923 -0.7421  1.8990
 7336TIP3    H243500   1.447   1.821  16.725  0.1209  0.7989  1.3244
 7337TIP3   OH243501   4.899   4.060   4.816  0.8588 -0.0628  0.4311
 7337TIP3    H143502   4.949   4.032   4.740  0.3230 -0.8540  0.3610
 7337TIP3    H243503   4.827   3.997   4.822  0.4675  0.4384  1.1446
 7338TIP3   OH243504   6.480   6.781   4.991  0.2490  0.0153 -0.0956
 7338TIP3    H143505   6.519   6.745   5.071 -0.9523 -1.3393 -0.0895
 7338TIP3    H243506   6.529   6.861   4.974 -0.9989  1.5648  3.2952
 7339TIP3   OH243507   0.901   3.593   2.096 -0.3805  0.1315 -0.4507
 7339TIP3    H143508   0.899   3.686   2.117 -0.3843  0.1425 -0.5010
 7339TIP3    H243509   0.810   3.571   2.075 -0.7899 -0.3759  1.7431
 7340TIP3   OH243510   3.347   3.265   2.120 -0.4939 -0.1297  0.2848
 7340TIP3    H143511   3.328   3.357   2.100  0.5136  0.0525  0.1117
 7340TIP3    H243512   3.402   3.236   2.047 -0.5535 -0.7823  0.4985
 7341TIP3   OH243513   5.274   4.413   3.404  0.2093 -0.1687  0.1992
 7341TIP3    H143514   5.298   4.350   3.472 -0.1595 -0.8186 -0.2666
 7341TIP3    H243515   5.205   4.369   3.354  1.5730 -0.3503 -1.5709
 7342TIP3   OH243516   1.649   1.279  11.971 -0.1442 -0.2146  0.4436
 7342TIP3    H143517   1.592   1.356  11.979  0.7983  0.3435  2.0166
 7342TIP3    H243518   1.681   1.282  11.881  0.3209  1.5573  0.6455
 7343TIP3   OH243519   4.872   3.874   0.366 -0.0732  0.4420 -0.0874
 7343TIP3    H143520   4.828   3.798   0.402  0.5760  0.4783  0.8070
 7343TIP3    H243521   4.921   3.841   0.290 -2.2188  0.5454 -1.5461
 7344TIP3   OH243522   1.824   3.964  11.116  0.5381  0.1937  0.1323
 7344TIP3    H143523   1.891   4.016  11.070  0.3373 -0.2426 -0.6607
 7344TIP3    H243524   1.871   3.886  11.146  0.2895 -0.3212 -0.8074
 7345TIP3   OH243525   5.280   5.407  14.359  0.6413 -0.2442  0.8194
 7345TIP3    H143526   5.285   5.319  14.322  2.1931 -0.1709  0.8465
 7345TIP3    H243527   5.359   5.451  14.329 -0.6224  1.5023 -0.0530
 7346TIP3   OH243528   5.045   0.364  17.132 -0.4380  0.0633 -0.1275
 7346TIP3    H143529   4.980   0.317  17.081 -1.7431  0.9064  0.7327
 7346TIP3    H243530   5.004   0.378  17.217  1.0398  0.2096  0.5894
 7347TIP3   OH243531   4.055   3.721   3.537  0.0189  0.5764  0.1944
 7347TIP3    H143532   4.057   3.774   3.617  2.0217  0.4744  0.2506
 7347TIP3    H243533   4.127   3.659   3.549 -0.0006  0.2235 -1.4803
 7348TIP3   OH243534   1.202   2.570  12.316 -0.6970 -0.3008  0.6295
 7348TIP3    H143535   1.295   2.568  12.292 -0.8317 -1.3345  0.1620
 7348TIP3    H243536   1.182   2.481  12.343 -2.1574 -0.7162 -1.6652
 7349TIP3   OH243537   4.658   2.443   2.308  0.0265 -0.3924 -0.1769
 7349TIP3    H143538   4.691   2.456   2.397 -0.0139  1.0359 -0.3504
 7349TIP3    H243539   4.578   2.392   2.319  1.2484 -2.2046  0.4057
 7350TIP3   OH243540   3.566   2.223  12.255 -0.3971 -0.1453 -0.4110
 7350TIP3    H143541   3.584   2.196  12.165 -0.5650  0.5610 -0.6608
 7350TIP3    H243542   3.483   2.271  12.250  0.3506  1.2000 -0.1373
 7351TIP3   OH243543   2.585   5.749  15.542  0.5480 -0.2133 -0.0605
 7351TIP3    H143544   2.646   5.822  15.539  0.0239  0.1804 -1.4679
 7351TIP3    H243545   2.593   5.707  15.457 -0.4670 -0.7175  0.0832
 7352TIP3   OH243546   5.855   6.554  16.534  0.4273  0.7967 -0.1133
 7352TIP3    H143547   5.802   6.550  16.454 -0.0121  0.3254  0.1932
 7352TIP3    H243548   5.795   6.526  16.603  1.4030 -0.9054  0.0714
 7353TIP3   OH243549   0.636   6.324  11.803 -0.1427  0.1238  0.4457
 7353TIP3    H143550   0.723   6.283  11.805  0.0185  0.4735  0.5030
 7353TIP3    H243551   0.634   6.381  11.880 -0.8757 -0.8127  1.1401
 7354TIP3   OH243552   5.732   2.990  14.260 -0.0310  0.0080  0.1869
 7354TIP3    H143553   5.692   3.024  14.340  0.0553 -1.8802  1.0420
 7354TIP3    H243554   5.784   3.064  14.226  0.3407  0.6605  2.1308
 7355TIP3   OH243555   5.368   1.692  11.542 -0.4716 -0.9747 -0.3563
 7355TIP3    H143556   5.280   1.691  11.582 -0.3752  1.7983 -0.0127
 7355TIP3    H243557   5.426   1.662  11.612 -0.7348  0.5332  0.5313
 7356TIP3   OH243558   0.054   5.305  16.992 -0.0537 -0.0890 -0.3621
 7356TIP3    H143559   0.041   5.400  16.997 -1.1250 -0.2141 -0.5825
 7356TIP3    H243560   0.124   5.287  17.054 -0.1677  0.7901  0.0289
 7357TIP3   OH243561   5.336   0.274   3.559 -0.4442 -0.0557 -0.2050
 7357TIP3    H143562   5.248   0.302   3.536 -0.2766  0.8405  0.2092
 7357TIP3    H243563   5.391   0.304   3.487 -0.4159 -0.2080 -0.2461
 7358TIP3   OH243564   6.609   6.417  12.525  0.0031 -1.0744 -0.1997
 7358TIP3    H143565   6.535   6.478  12.528  0.1516 -0.8322 -1.2635
 7358TIP3    H243566   6.600   6.365  12.605  0.2744  0.7949  1.0723
 7359TIP3   OH243567   6.115   6.178  16.058 -0.6021  0.0884 -0.5997
 7359TIP3    H143568   6.051   6.199  16.127 -1.1872 -0.0879 -1.0862
 7359TIP3    H243569   6.192   6.149  16.106 -1.1326 -0.3969 -0.0181
 7360TIP3   OH243570   5.616   3.525   3.466  0.2154 -0.2262 -0.2499
 7360TIP3    H143571   5.580   3.613   3.476  0.2131 -0.0340 -1.7587
 7360TIP3    H243572   5.567   3.471   3.528  0.3912  0.8764  0.8623
 7361TIP3   OH243573   0.049   6.259   2.229  0.0427 -0.0918  0.0606
 7361TIP3    H143574   0.046   6.236   2.136  0.2884 -0.5574  0.1699
 7361TIP3    H243575   0.087   6.183   2.272  0.4296  0.3338  0.4790
 7362TIP3   OH243576   3.977   5.835   1.882 -0.0433  0.4675 -0.1807
 7362TIP3    H143577   4.009   5.810   1.969  0.7075  0.6453 -0.4025
 7362TIP3    H243578   3.985   5.755   1.830 -2.6694 -0.3046  0.4957
 7363TIP3   OH243579   2.393   5.133  10.935 -0.0720  0.1687  0.3466
 7363TIP3    H143580   2.340   5.109  10.859  2.8791 -0.6424 -1.5848
 7363TIP3    H243581   2.454   5.060  10.946  1.9129  1.8859  1.2292
 7364TIP3   OH243582   0.503   6.041  11.691  0.2603 -0.5857  0.3240
 7364TIP3    H143583   0.463   6.031  11.605  0.3996  0.7025  0.1068
 7364TIP3    H243584   0.451   6.109  11.734  0.3823 -1.0049  1.1386
 7365TIP3   OH243585   4.967   6.605   4.468  0.3075 -0.2760 -0.3901
 7365TIP3    H143586   4.891   6.563   4.429 -0.9541  1.9071 -0.3380
 7365TIP3    H243587   4.970   6.572   4.558 -0.8526 -0.0434 -0.2593
 7366TIP3   OH243588   5.031   0.263  11.185  0.2506 -0.0887  0.5326
 7366TIP3    H143589   5.059   0.171  11.189 -0.7163 -0.4659 -0.9496
 7366TIP3    H243590   4.936   0.259  11.185  0.2006  0.8522 -0.4210
 7367TIP3   OH243591   4.892   6.332   2.290  0.1106  0.1980  0.2427
 7367TIP3    H143592   4.908   6.333   2.385 -0.2434 -0.8972  0.3221
 7367TIP3    H243593   4.799   6.314   2.281 -0.3577  2.6973 -0.2957
 7368TIP3   OH243594   5.519   1.777  12.116  0.0042  0.7123 -0.7488
 7368TIP3    H143595   5.570   1.839  12.169 -0.1265 -1.7787  2.4743
 7368TIP3    H243596   5.495   1.708  12.177 -2.3265 -1.0949 -3.5701
 7369TIP3   OH243597   5.994   3.743   6.085 -0.5499 -0.2626 -0.0878
 7369TIP3    H143598   5.928   3.800   6.123  0.1421 -1.2187  2.6286
 7369TIP3    H243599   6.064   3.740   6.150  1.1601 -1.0784 -1.9228
 7370TIP3   OH243600   3.276   2.525   3.069  0.3452 -0.2592 -0.0133
 7370TIP3    H143601   3.210   2.515   3.000  1.5483 -0.3666 -1.1661
 7370TIP3    H243602   3.341   2.584   3.031  0.5633  0.4000  1.3744
 7371TIP3   OH243603   6.500   5.550   4.577 -0.6164 -0.0251  0.1437
 7371TIP3    H143604   6.571   5.564   4.641 -0.9191 -0.4169  0.5732
 7371TIP3    H243605   6.432   5.505   4.627 -0.7128 -0.6629 -0.5535
 7372TIP3   OH243606   6.139   6.160  11.383 -0.3051  0.5324  0.1270
 7372TIP3    H143607   6.079   6.093  11.350  1.3831 -1.7329  1.5547
 7372TIP3    H243608   6.220   6.146  11.334  0.6125  0.3965  1.6697
 7373TIP3   OH243609   4.415   4.612  13.501 -0.3338 -0.0583 -0.2286
 7373TIP3    H143610   4.390   4.628  13.410  0.3212 -0.1999 -0.4327
 7373TIP3    H243611   4.474   4.685  13.523  0.2425 -0.5317 -0.2065
 7374TIP3   OH243612   5.998   2.188  13.638 -0.2923 -0.1735  0.3879
 7374TIP3    H143613   6.057   2.244  13.587 -1.6203  0.5116 -0.4288
 7374TIP3    H243614   5.940   2.149  13.572 -1.2081 -0.2853  1.2570
 7375TIP3   OH243615   1.581   3.323  15.557 -0.0260 -0.2267  0.0557
 7375TIP3    H143616   1.508   3.296  15.503 -0.6768  0.7557  0.4189
 7375TIP3    H243617   1.658   3.312  15.501 -0.7225  1.1307 -1.2132
 7376TIP3   OH243618   0.844   1.777   0.522  0.1133 -0.1289 -0.1128
 7376TIP3    H143619   0.769   1.736   0.565  0.6205 -0.3352  0.5770
 7376TIP3    H243620   0.903   1.704   0.503  0.1154  0.0268 -0.7110
 7377TIP3   OH243621   0.889   3.071  15.850 -0.2733  0.9232  0.8954
 7377TIP3    H143622   0.834   2.993  15.858  0.1210  0.5231 -0.1882
 7377TIP3    H243623   0.927   3.084  15.937 -0.6591  0.1387  1.1773
 7378TIP3   OH243624   6.497   0.469  15.249 -0.4052  0.3945 -0.4145
 7378TIP3    H143625   6.507   0.499  15.339 -0.6314  2.7497 -1.1441
 7378TIP3    H243626   6.564   0.516  15.200  0.6754 -1.9665 -1.2602
 7379TIP3   OH243627   2.314   0.199   1.206 -0.7275 -0.3226 -0.4795
 7379TIP3    H143628   2.318   0.136   1.134  0.4141  0.3188 -0.9969
 7379TIP3    H243629   2.405   0.224   1.221 -0.9465 -0.5076  1.2594
 7380TIP3   OH243630   2.034   5.048  11.374  0.4132 -0.3646 -0.1019
 7380TIP3    H143631   2.066   5.068  11.286  0.1106 -0.4594 -0.2342
 7380TIP3    H243632   1.941   5.074  11.372  0.6507  0.5322  0.4842
 7381TIP3   OH243633   5.463   2.464  12.069 -0.4346  0.0167  0.2743
 7381TIP3    H143634   5.538   2.470  12.127 -0.5525  2.3092  0.2523
 7381TIP3    H243635   5.487   2.519  11.994 -1.0453 -1.3980 -0.9780
 7382TIP3   OH243636   0.944   4.702  12.539 -0.0410  0.6321  0.2158
 7382TIP3    H143637   0.864   4.727  12.586 -0.0477 -0.7374  0.9908
 7382TIP3    H243638   1.010   4.692  12.608  1.0490  2.5950 -0.5039
 7383TIP3   OH243639   1.213   5.367  16.897  0.3494 -0.6056 -0.5349
 7383TIP3    H143640   1.275   5.297  16.919  1.6411  0.5360 -0.5270
 7383TIP3    H243641   1.216   5.372  16.801  1.9762  0.9777 -0.4182
 7384TIP3   OH243642   4.197   3.171   5.474  0.0100  0.5344 -0.0150
 7384TIP3    H143643   4.259   3.135   5.538 -0.3121 -0.4968 -0.2886
 7384TIP3    H243644   4.194   3.264   5.496 -1.1687 -0.0232  2.4157
 7385TIP3   OH243645   2.499   3.293  12.327  0.3990 -0.1223 -0.6875
 7385TIP3    H143646   2.557   3.266  12.398  0.5462 -1.3772 -1.2834
 7385TIP3    H243647   2.555   3.297  12.250 -0.6157 -3.0590 -1.6397
 7386TIP3   OH243648   1.181   4.508  14.737  0.3971  0.2460 -0.7432
 7386TIP3    H143649   1.210   4.450  14.807 -0.1407  0.6967 -0.1469
 7386TIP3    H243650   1.262   4.546  14.703  0.7711 -0.9787 -1.2585
 7387TIP3   OH243651   5.079   3.362  13.941  0.0044 -0.2725 -0.0625
 7387TIP3    H143652   5.170   3.369  13.970  0.5754 -0.4441 -1.7403
 7387TIP3    H243653   5.027   3.373  14.021  1.4774  0.3149  0.8359
 7388TIP3   OH243654   6.568   5.062   6.554 -0.3571 -0.1442  0.1074
 7388TIP3    H143655   6.514   4.988   6.582  1.7752 -1.7955 -0.0275
 7388TIP3    H243656   6.646   5.021   6.516  1.2967  2.1906  0.9203
 7389TIP3   OH243657   5.561   0.061  13.360  0.1889  0.3789 -0.4694
 7389TIP3    H143658   5.618   0.021  13.426  0.4135  1.8833  0.2820
 7389TIP3    H243659   5.590   0.153  13.357 -1.2433  0.8138 -1.1174
 7390TIP3   OH243660   5.344   3.413   1.296  0.1798  0.6113  0.0147
 7390TIP3    H143661   5.334   3.428   1.202  0.4215  0.9448  0.0447
 7390TIP3    H243662   5.351   3.500   1.334 -3.8416  0.6959  0.7869
 7391TIP3   OH243663   0.441   4.704  15.882  0.1044  0.4570 -0.1903
 7391TIP3    H143664   0.520   4.673  15.926 -0.7095 -1.5195 -0.0627
 7391TIP3    H243665   0.375   4.709  15.952 -0.5386 -0.3350 -0.7244
 7392TIP3   OH243666   1.581   3.173   4.602  0.0387 -0.2519  0.0357
 7392TIP3    H143667   1.607   3.264   4.618 -2.0190  0.6724 -1.7135
 7392TIP3    H243668   1.615   3.126   4.678 -1.1629  2.4074  2.3249
 7393TIP3   OH243669   0.056   2.332   0.184 -0.1656  0.0027 -0.5749
 7393TIP3    H143670   0.118   2.366   0.248 -0.6247 -0.9346  0.3989
 7393TIP3    H243671   0.005   2.408   0.157 -0.3422  0.3173  0.6133
 7394TIP3   OH243672   2.112   1.133  17.243 -0.2490 -0.2320 -0.2433
 7394TIP3    H143673   2.103   1.197  17.172 -1.5189  0.2159  0.3036
 7394TIP3    H243674   2.196   1.154  17.283 -0.1468  0.3811 -0.7687
 7395TIP3   OH243675   2.032   0.774  16.820 -0.1732  0.2129  0.5810
 7395TIP3    H143676   1.953   0.818  16.790 -1.0751 -1.1268  0.9613
 7395TIP3    H243677   2.004   0.724  16.896  1.2346  0.4217  1.2597
 7396TIP3   OH243678   3.387   2.524   4.605 -0.1654 -0.1858 -0.2773
 7396TIP3    H143679   3.388   2.472   4.686 -1.0427  1.9589  1.1516
 7396TIP3    H243680   3.479   2.526   4.577  0.1100 -1.1634  0.5105
 7397TIP3   OH243681   2.121   2.799   4.179  0.0414 -0.2066  0.5247
 7397TIP3    H143682   2.031   2.767   4.173 -0.5747  1.5791 -0.3362
 7397TIP3    H243683   2.163   2.743   4.244 -2.0059 -0.3640  1.7456
 7398TIP3   OH243684   0.427   3.072   4.809  0.2466 -0.2128 -0.1166
 7398TIP3    H143685   0.472   3.155   4.794  1.1557 -0.3271  1.7230
 7398TIP3    H243686   0.337   3.096   4.828  0.3645  0.3058 -0.2153
 7399TIP3   OH243687   4.446   4.130  10.993  0.2054  0.3376 -0.3879
 7399TIP3    H143688   4.496   4.051  11.015 -0.8398 -0.0918  0.4937
 7399TIP3    H243689   4.422   4.119  10.901 -2.8913 -2.0540  0.6009
 7400TIP3   OH243690   5.457   5.485   0.525  0.3707  0.4366 -0.6517
 7400TIP3    H143691   5.525   5.539   0.564 -2.5509  2.5209  1.7627
 7400TIP3    H243692   5.448   5.411   0.585 -0.1176  0.6288 -0.4892
 7401TIP3   OH243693   4.305   5.794  11.282  0.7698  0.0062  0.3387
 7401TIP3    H143694   4.309   5.856  11.208  0.3039 -0.5601 -0.1701
 7401TIP3    H243695   4.371   5.826  11.343  1.4662  0.2380 -0.5152
 7402TIP3   OH243696   5.014   0.795  15.523  0.7527 -0.3154 -0.7769
 7402TIP3    H143697   4.944   0.798  15.458  2.3115 -0.0587 -2.4953
 7402TIP3    H243698   5.066   0.874  15.505  0.5454  0.3787  1.5489
 7403TIP3   OH243699   4.293   4.034   2.857  0.2774 -0.7190  0.1441
 7403TIP3    H143700   4.286   4.025   2.952  0.8423  0.0422  0.2663
 7403TIP3    H243701   4.260   4.123   2.840  1.9335 -0.1346 -0.1559
 7404TIP3   OH243702   3.981   0.400  13.007  0.6440 -0.3605  0.0649
 7404TIP3    H143703   4.005   0.334  13.072  2.0277  0.3696  0.3228
 7404TIP3    H243704   4.062   0.448  12.991  0.3511 -0.5762 -2.2704
 7405TIP3   OH243705   4.868   2.801  14.567  0.2287  0.3630 -0.3675
 7405TIP3    H143706   4.876   2.737  14.638  1.8715  2.2777  1.2680
 7405TIP3    H243707   4.929   2.770  14.500  0.3724 -0.2556  0.0437
 7406TIP3   OH243708   4.676   5.083  15.416 -0.6608  0.1681  0.0757
 7406TIP3    H143709   4.590   5.124  15.421 -0.5687  0.7662 -2.4590
 7406TIP3    H243710   4.736   5.155  15.397 -0.4554 -0.9731 -4.1200
 7407TIP3   OH243711   0.392   6.789  13.301  0.1360 -0.3905  0.2928
 7407TIP3    H143712   0.327   6.779  13.370  1.0981  0.7691  1.3854
 7407TIP3    H243713   0.342   6.781  13.220 -1.4679  1.0279  1.1064
 7408TIP3   OH243714   0.812   3.033  12.420  0.2293 -0.5494 -0.2040
 7408TIP3    H143715   0.729   3.017  12.464  0.0060 -0.2741 -0.5264
 7408TIP3    H243716   0.877   3.032  12.490 -0.1805  0.3500  0.1922
 7409TIP3   OH243717   3.400   4.383  14.420 -0.4519  0.3137  0.4095
 7409TIP3    H143718   3.431   4.434  14.494 -1.6592  3.0941 -0.9192
 7409TIP3    H243719   3.307   4.367  14.439 -0.4026 -0.2344  0.2000
 7410TIP3   OH243720   1.019   3.566   0.582  0.0243  0.4651  0.5054
 7410TIP3    H143721   1.111   3.552   0.561 -0.0440 -0.8615  1.0470
 7410TIP3    H243722   1.016   3.567   0.678 -0.4875  0.7764  0.4878
 7411TIP3   OH243723   6.775   6.679   3.004  0.0828 -0.0447 -0.0329
 7411TIP3    H143724   6.764   6.585   3.020  1.4836 -0.3983 -0.9786
 7411TIP3    H243725   6.855   6.702   3.052  0.9226  0.1851 -1.4952
 7412TIP3   OH243726   0.483   2.839   6.121 -0.3405 -0.0646 -0.1836
 7412TIP3    H143727   0.418   2.841   6.050 -0.5869 -0.2407  0.0361
 7412TIP3    H243728   0.454   2.767   6.177 -1.1467  1.1909  1.0486
 7413TIP3   OH243729   3.892   0.534   1.181 -0.0912 -0.0596  0.1614
 7413TIP3    H143730   3.911   0.511   1.090 -0.4474  1.0076 -0.1916
 7413TIP3    H243731   3.830   0.467   1.210  0.7595 -0.9570 -0.0727
 7414TIP3   OH243732   5.187   4.612  17.210  0.5991 -0.2858  0.3080
 7414TIP3    H143733   5.100   4.627  17.172 -0.5762 -2.2766  2.0956
 7414TIP3    H243734   5.211   4.696  17.248 -0.7409  0.1720  0.1690
 7415TIP3   OH243735   5.069   2.541  13.604  0.1143 -0.1725 -0.2741
 7415TIP3    H143736   5.071   2.452  13.569  3.3238 -0.9695  1.6881
 7415TIP3    H243737   4.981   2.550  13.640 -0.0663 -2.8455  0.0977
 7416TIP3   OH243738   3.227   1.994   0.755  0.4796 -0.1756  0.1247
 7416TIP3    H143739   3.144   1.952   0.779  0.7001  0.0949  1.4061
 7416TIP3    H243740   3.211   2.088   0.769  0.6854 -0.0240 -0.6172
 7417TIP3   OH243741   3.190   1.117   2.376 -0.0103 -0.1790 -0.0113
 7417TIP3    H143742   3.261   1.122   2.311  0.5252 -1.2125  0.4842
 7417TIP3    H243743   3.117   1.079   2.327 -0.9778  3.0115 -1.1389
 7418TIP3   OH243744   3.377   2.881  14.713  0.0025 -0.3431  0.6289
 7418TIP3    H143745   3.453   2.900  14.658 -1.4091 -0.9673 -1.6155
 7418TIP3    H243746   3.323   2.823  14.659 -0.4985 -2.6270  3.4683
 7419TIP3   OH243747   1.428   2.817   2.316 -0.6843 -0.3409 -0.2206
 7419TIP3    H143748   1.481   2.803   2.395 -0.5284 -1.2384 -0.4846
 7419TIP3    H243749   1.416   2.912   2.312  1.4671 -0.0612 -0.5184
 7420TIP3   OH243750   5.221   5.114   3.768 -0.4242 -0.0948  0.0070
 7420TIP3    H143751   5.301   5.069   3.739 -1.8885 -0.2557 -4.1253
 7420TIP3    H243752   5.251   5.177   3.833  2.9794 -0.6711 -0.9000
 7421TIP3   OH243753   1.947   3.628  10.674 -0.1855  0.1054  0.1505
 7421TIP3    H143754   1.987   3.676  10.601 -0.6697  2.1560  1.2223
 7421TIP3    H243755   1.854   3.644  10.665 -0.4340 -1.3047  0.0707
 7422TIP3   OH243756   0.992   4.352  11.921  0.5498  0.2559  0.0322
 7422TIP3    H143757   1.005   4.372  11.828  0.0103  1.0797  0.1241
 7422TIP3    H243758   0.979   4.438  11.962  3.0422  0.1341  1.2397
 7423TIP3   OH243759   6.076   4.023   5.398  0.0570 -0.5701 -0.6115
 7423TIP3    H143760   6.148   4.044   5.338 -0.3025  1.6727 -0.2991
 7423TIP3    H243761   6.112   4.039   5.485 -1.0000  1.2305 -0.4831
 7424TIP3   OH243762   3.547   4.900  13.035 -0.0820 -0.3014 -0.4030
 7424TIP3    H143763   3.613   4.968  13.049  0.4263 -0.7190 -0.7238
 7424TIP3    H243764   3.502   4.926  12.955  0.2556 -0.4568 -0.6429
 7425TIP3   OH243765   5.769   4.992   3.866  0.1291 -0.0898  0.1857
 7425TIP3    H143766   5.775   4.976   3.961  0.8129  0.8531  0.3099
 7425TIP3    H243767   5.844   4.946   3.829  0.4107  0.3482  0.2112
 7426TIP3   OH243768   0.225   0.173  11.122  0.1494 -0.0917 -0.0161
 7426TIP3    H143769   0.244   0.099  11.179  4.7423  0.2199 -0.9150
 7426TIP3    H243770   0.184   0.135  11.045 -2.1850 -1.0096  1.6287
 7427TIP3   OH243771   2.229   2.028  15.067  0.2539  0.2300  0.2281
 7427TIP3    H143772   2.230   2.066  15.154  1.3580  1.6460 -0.3935
 7427TIP3    H243773   2.167   2.081  15.018 -0.4077 -0.5977  0.1608
 7428TIP3   OH243774   4.230   4.827  11.016  0.2195  0.1446  0.0783
 7428TIP3    H143775   4.174   4.759  11.054 -1.0321  1.2202  0.2160
 7428TIP3    H243776   4.317   4.787  11.011 -0.2713 -1.0903  1.1371
 7429TIP3   OH243777   5.955   0.540   1.258 -0.1879 -0.3594  0.2967
 7429TIP3    H143778   5.908   0.571   1.335 -0.3845 -0.7880  0.3502
 7429TIP3    H243779   5.898   0.561   1.185  0.3454  0.7546  0.1878
 7430TIP3   OH243780   5.465   6.704   5.865  0.1516  0.5318  0.2907
 7430TIP3    H143781   5.485   6.632   5.926  0.5452  0.3052 -0.1083
 7430TIP3    H243782   5.451   6.661   5.781  2.3919  1.0918 -0.3993
 7431TIP3   OH243783   4.680   3.977   5.883 -0.1566 -0.5711 -0.1255
 7431TIP3    H143784   4.719   3.893   5.907  0.1400 -1.1066 -2.3593
 7431TIP3    H243785   4.714   4.039   5.948  1.7079 -1.6676 -0.0348
 7432TIP3   OH243786   6.102   3.265  13.655 -0.4885 -0.3523 -0.1329
 7432TIP3    H143787   6.039   3.207  13.698  1.2550 -1.7059  0.6664
 7432TIP3    H243788   6.101   3.238  13.563 -0.8548 -0.5705 -0.0642
 7433TIP3   OH243789   6.362   5.886  15.244 -0.0812 -1.0540  0.0441
 7433TIP3    H143790   6.317   5.963  15.279 -0.2720 -1.6316  1.0906
 7433TIP3    H243791   6.452   5.915  15.231  0.4398 -1.3245  2.7350
 7434TIP3   OH243792   3.759   0.014  14.976  0.4039  0.3073  0.4591
 7434TIP3    H143793   3.790  -0.077  14.971 -3.4100 -0.9579 -3.4021
 7434TIP3    H243794   3.809   0.059  14.907 -0.0747  0.3332  0.1295
 7435TIP3   OH243795   0.737   5.675  13.906  0.1147 -0.1475  0.1609
 7435TIP3    H143796   0.808   5.615  13.881  1.3034  2.7541 -4.0755
 7435TIP3    H243797   0.782   5.757  13.929 -1.7346  1.0307 -0.2753
 7436TIP3   OH243798   4.466   0.195  14.067 -0.0453  0.0185 -0.3110
 7436TIP3    H143799   4.426   0.112  14.044 -1.2529  0.7526 -0.8955
 7436TIP3    H243800   4.550   0.171  14.105 -0.5966 -1.4891 -0.0088
 7437TIP3   OH243801   3.625   2.888   4.388  0.1908 -0.5674 -0.5392
 7437TIP3    H143802   3.648   2.981   4.397 -1.1560  0.0650 -2.9701
 7437TIP3    H243803   3.529   2.887   4.392  0.2793 -2.2028  1.9699
 7438TIP3   OH243804   4.260   6.783   3.775 -0.1103 -0.3325  0.2848
 7438TIP3    H143805   4.216   6.699   3.764  0.5800 -0.3735 -2.4787
 7438TIP3    H243806   4.205   6.845   3.728  0.8240  0.2540 -0.0584
 7439TIP3   OH243807   3.560   2.778   3.825 -0.1270 -0.3650 -0.0731
 7439TIP3    H143808   3.587   2.692   3.793 -1.5182 -0.7404 -0.2655
 7439TIP3    H243809   3.474   2.764   3.864  0.4518  0.5814  1.6253
 7440TIP3   OH243810   5.730   1.001  17.146 -0.6005  0.3563 -0.2757
 7440TIP3    H143811   5.755   1.090  17.121 -1.4945  0.5672 -0.4188
 7440TIP3    H243812   5.812   0.961  17.174  0.0411  0.8230 -1.4214
 7441TIP3   OH243813   5.563   5.339   3.012  0.2561 -0.3316  0.1161
 7441TIP3    H143814   5.607   5.384   3.084  0.1387  0.5376 -0.3598
 7441TIP3    H243815   5.552   5.405   2.944  0.3145 -1.1335 -0.6895
 7442TIP3   OH243816   0.306   4.286  14.080  0.6982 -0.2961 -0.2467
 7442TIP3    H143817   0.299   4.229  14.003  1.2066  1.2605 -1.4821
 7442TIP3    H243818   0.346   4.366  14.046  1.6687  0.1114  1.8145
 7443TIP3   OH243819   6.318   5.770  14.117 -0.2861 -0.2007 -1.0024
 7443TIP3    H143820   6.284   5.788  14.205 -0.7111 -1.2173 -0.9599
 7443TIP3    H243821   6.269   5.694  14.087  1.6000 -1.3837 -1.1322
 7444TIP3   OH243822   2.232   6.138  15.375  0.4190 -1.1140 -0.7874
 7444TIP3    H143823   2.298   6.153  15.443  1.4259 -0.5486 -1.8895
 7444TIP3    H243824   2.275   6.162  15.293 -1.2887 -0.3366 -1.4841
 7445TIP3   OH243825   6.716   5.410  13.705  0.9483  0.2273 -0.4961
 7445TIP3    H143826   6.650   5.434  13.639  0.6302 -0.3278 -0.3792
 7445TIP3    H243827   6.784   5.476  13.695  0.5768  0.5546 -0.9150
 7446TIP3   OH243828   2.269   2.039  14.329 -0.0410 -0.3481 -0.8327
 7446TIP3    H143829   2.326   2.069  14.400 -1.7320  2.5904 -0.6353
 7446TIP3    H243830   2.190   2.009  14.373 -0.1254 -0.8624 -1.3297
 7447TIP3   OH243831   5.602   5.134   4.302 -0.5583  0.2101  0.3223
 7447TIP3    H143832   5.572   5.224   4.296 -0.5062  0.3257  1.6814
 7447TIP3    H243833   5.603   5.103   4.211 -0.4073  1.6209 -0.1753
 7448TIP3   OH243834   0.047   1.696   0.775  0.6616 -0.0549 -0.0644
 7448TIP3    H143835   0.116   1.712   0.840  2.0084  1.0084 -1.7094
 7448TIP3    H243836   0.004   1.616   0.804  2.2776 -0.4516  1.2720
 7449TIP3   OH243837   2.193   6.703   3.558 -0.2084  0.2799 -0.1668
 7449TIP3    H143838   2.203   6.618   3.602 -1.2762 -0.6194 -1.6053
 7449TIP3    H243839   2.278   6.746   3.571  0.3678 -1.0188  0.5535
 7450TIP3   OH243840   5.911   3.001   3.361  0.4056  0.1716 -0.0017
 7450TIP3    H143841   5.868   2.926   3.403 -0.2046 -0.7093 -2.1565
 7450TIP3    H243842   5.957   2.964   3.286  1.4049  1.7414 -0.1858
 7451TIP3   OH243843   3.513   0.292  16.711  0.3948 -0.5373  0.4767
 7451TIP3    H143844   3.468   0.240  16.645  1.3093  1.6427 -1.9971
 7451TIP3    H243845   3.578   0.233  16.749  0.4713 -1.5991 -1.2627
 7452TIP3   OH243846   1.613   0.410   2.657  0.1581  0.3098  0.1331
 7452TIP3    H143847   1.544   0.475   2.671  0.5758  0.2227  3.0010
 7452TIP3    H243848   1.664   0.445   2.584 -0.1114  2.8269  1.0768
 7453TIP3   OH243849   2.148   4.111  11.611  1.2048 -0.2260  0.0054
 7453TIP3    H143850   2.056   4.128  11.594  1.0840 -1.3552 -0.4997
 7453TIP3    H243851   2.187   4.198  11.621  0.3241  0.2940 -0.9917
 7454TIP3   OH243852   4.482   1.964  14.725  0.3884 -0.4761 -0.3099
 7454TIP3    H143853   4.524   1.901  14.666  1.6519  0.1702 -0.1295
 7454TIP3    H243854   4.555   2.010  14.765 -0.4996  0.0357  0.7279
 7455TIP3   OH243855   2.562   0.119  12.311  0.2561  0.0507 -0.1043
 7455TIP3    H143856   2.530   0.067  12.385 -0.9185 -0.3512 -0.8859
 7455TIP3    H243857   2.590   0.201  12.350 -0.8514  0.0473  0.7286
 7456TIP3   OH243858   3.468   0.062   2.249  0.4843 -0.1959 -0.0862
 7456TIP3    H143859   3.448   0.064   2.156  0.3827 -0.0535 -0.0612
 7456TIP3    H243860   3.389   0.027   2.290  0.0934  0.8455  0.0640
 7457TIP3   OH243861   4.047   3.931  16.276 -0.1632  0.4975  0.1055
 7457TIP3    H143862   4.017   3.942  16.366 -0.8023  0.5284 -0.1078
 7457TIP3    H243863   4.060   3.837  16.266 -0.0902  0.4942  0.2302
 7458TIP3   OH243864   4.486   5.716   3.356  0.0138  0.3356 -0.9590
 7458TIP3    H143865   4.493   5.635   3.305  0.7867  0.8639 -1.7227
 7458TIP3    H243866   4.472   5.687   3.446  3.7518 -0.7583 -0.6275
 7459TIP3   OH243867   2.142   3.824   5.167  0.1117 -0.5489 -0.4729
 7459TIP3    H143868   2.164   3.886   5.097  1.8225 -0.0269  0.4920
 7459TIP3    H243869   2.201   3.750   5.152 -1.1125 -1.4627 -0.9209
 7460TIP3   OH243870   0.570   6.781  15.027 -0.2658  0.1041 -0.0333
 7460TIP3    H143871   0.480   6.748  15.032 -0.4153  0.0882 -2.2889
 7460TIP3    H243872   0.575   6.848  15.095 -1.7678 -0.3994  0.5858
 7461TIP3   OH243873   2.589   2.995  16.776 -0.1874  0.4174 -1.1128
 7461TIP3    H143874   2.549   2.922  16.824  0.4319  0.1539 -1.0001
 7461TIP3    H243875   2.672   2.961  16.745  1.0564  1.6982  0.6939
 7462TIP3   OH243876   1.223   4.569   2.050  0.2036 -0.0361  0.4193
 7462TIP3    H143877   1.192   4.653   2.016 -1.7428 -0.9407 -0.1144
 7462TIP3    H243878   1.194   4.568   2.141  1.3366  0.3885  0.7979
 7463TIP3   OH243879   1.430   1.573   6.211 -0.0892 -0.0256 -0.0492
 7463TIP3    H143880   1.504   1.559   6.270 -0.2218  1.5505  0.5388
 7463TIP3    H243881   1.353   1.566   6.268 -0.2388  1.0544 -0.0996
 7464TIP3   OH243882   5.005   6.418   4.921  0.1855  0.0855  0.0682
 7464TIP3    H143883   5.019   6.507   4.889  0.5830 -0.3638 -1.0255
 7464TIP3    H243884   5.078   6.368   4.884 -0.2848 -0.7865  0.3189
 7465TIP3   OH243885   1.840   0.124   1.847 -0.0165  0.1674  0.3637
 7465TIP3    H143886   1.897   0.067   1.796  0.3712 -0.3052  1.2964
 7465TIP3    H243887   1.899   0.183   1.893 -0.3189  0.2374  0.6688
 7466TIP3   OH243888   1.312   3.682   3.758 -0.1851  0.1398 -0.3361
 7466TIP3    H143889   1.344   3.733   3.832 -2.0375 -1.5054  1.6501
 7466TIP3    H243890   1.239   3.734   3.723  0.9768  1.1350 -1.3203
 7467TIP3   OH243891   6.451   4.838   1.002  0.6975 -0.1818 -0.2051
 7467TIP3    H143892   6.492   4.917   1.037  0.2125 -0.5382  1.1815
 7467TIP3    H243893   6.515   4.768   1.019  1.7682  0.1088 -2.7183
 7468TIP3   OH243894   1.977   5.335  17.178 -0.5667  0.4222 -0.7284
 7468TIP3    H143895   1.911   5.303  17.240  1.3894 -1.3507  0.5014
 7468TIP3    H243896   1.945   5.309  17.092 -2.4693  1.4095 -0.3422
 7469TIP3   OH243897   1.112   6.039   2.077 -0.4230  0.3407 -0.2888
 7469TIP3    H143898   1.058   6.060   2.153  0.5588  0.9951  0.2464
 7469TIP3    H243899   1.175   6.111   2.072  1.1243 -0.9735 -0.1921
 7470TIP3   OH243900   5.107   4.330  16.712 -0.0604  0.1871  0.4576
 7470TIP3    H143901   5.040   4.366  16.771 -0.9758 -0.6018 -0.0783
 7470TIP3    H243902   5.189   4.369  16.742 -0.7265  0.9875  1.2796
 7471TIP3   OH243903   6.588   2.057   1.146 -0.4390  0.0505 -0.2158
 7471TIP3    H143904   6.535   2.013   1.079 -1.2767 -0.4949  0.7926
 7471TIP3    H243905   6.579   2.002   1.224 -0.1724  1.1498  0.6002
 7472TIP3   OH243906   1.539   5.962   4.974 -0.7434  0.3554  1.0794
 7472TIP3    H143907   1.552   5.906   5.050 -0.5396 -0.1157  0.6959
 7472TIP3    H243908   1.572   5.911   4.900 -0.8336  0.8569  0.6899
 7473TIP3   OH243909   4.868   4.302  16.528  0.0029 -0.0479 -0.3539
 7473TIP3    H143910   4.893   4.333  16.615  2.3955 -1.7589 -0.3907
 7473TIP3    H243911   4.797   4.240  16.545  1.0224 -1.0182  0.4882
 7474TIP3   OH243912   2.080   5.470  16.358 -0.1636  0.0843 -0.3999
 7474TIP3    H143913   2.148   5.451  16.423 -2.3021  0.4151  2.0425
 7474TIP3    H243914   2.063   5.564  16.368 -1.9844 -0.2711  0.0884
 7475TIP3   OH243915   2.831   0.650   4.497  0.2305  0.4265  0.1706
 7475TIP3    H143916   2.863   0.617   4.581  3.2630 -1.0412 -1.5046
 7475TIP3    H243917   2.844   0.744   4.502  1.2983  0.2446  0.9903
 7476TIP3   OH243918   3.946   3.105   5.844 -0.1092 -0.1517  0.0154
 7476TIP3    H143919   3.873   3.126   5.903 -0.5163 -0.3536 -0.4146
 7476TIP3    H243920   3.907   3.051   5.776  0.1176  1.0602 -1.0985
 7477TIP3   OH243921   4.849   3.544  16.296 -0.1221 -0.0826  0.6799
 7477TIP3    H143922   4.920   3.576  16.240  0.0579  0.4574  1.2032
 7477TIP3    H243923   4.793   3.621  16.309 -0.8339 -0.5111  0.2377
 7478TIP3   OH243924   4.667   6.262   5.496  0.0147 -0.4571 -0.2621
 7478TIP3    H143925   4.662   6.167   5.492  1.9489 -0.6201  0.4056
 7478TIP3    H243926   4.659   6.283   5.589 -0.9945  0.0824 -0.4654
 7479TIP3   OH243927   0.478   4.002   5.517  0.2247 -0.8194 -0.4714
 7479TIP3    H143928   0.497   4.056   5.593 -0.3878 -0.1531 -0.7799
 7479TIP3    H243929   0.515   3.917   5.538  0.0892 -0.6351  0.5588
 7480TIP3   OH243930   2.991   3.770   2.932  0.2136 -0.0571  0.4325
 7480TIP3    H143931   3.003   3.677   2.913 -1.8658 -0.4931  1.2310
 7480TIP3    H243932   3.073   3.796   2.975  1.4041 -1.1421 -1.1003
 7481TIP3   OH243933   5.787   1.973   3.140  0.3466 -0.4154  0.1104
 7481TIP3    H143934   5.817   2.064   3.149 -1.8445  0.4651 -1.1910
 7481TIP3    H243935   5.862   1.928   3.101  1.7529  0.6254  1.4961
 7482TIP3   OH243936   3.372   6.286   3.002 -0.2169 -0.1094 -0.5054
 7482TIP3    H143937   3.373   6.326   2.915  2.3048  0.9058 -0.0503
 7482TIP3    H243938   3.450   6.320   3.045 -0.7809 -1.5476  1.7411
 7483TIP3   OH243939   5.516   1.484  14.637 -0.0424 -0.5334 -0.1169
 7483TIP3    H143940   5.427   1.491  14.673  0.4711 -0.2986  1.1263
 7483TIP3    H243941   5.530   1.567  14.593 -1.0010 -1.1537 -1.6407
 7484TIP3   OH243942   4.120   1.427  16.522  0.1875 -0.5658  0.5273
 7484TIP3    H143943   4.130   1.522  16.532 -1.1084 -0.2424 -1.0474
 7484TIP3    H243944   4.093   1.396  16.609  0.5239  0.5071  1.0226
 7485TIP3   OH243945   1.154   3.313   5.323  0.5744  0.1325  0.7774
 7485TIP3    H143946   1.084   3.284   5.264 -1.1254  1.1255  2.2382
 7485TIP3    H243947   1.221   3.349   5.265  0.3227 -1.6965 -0.7216
 7486TIP3   OH243948   1.171   2.287  10.984  0.6256  0.2966 -0.2321
 7486TIP3    H143949   1.094   2.339  10.963  1.5177  0.7120 -2.6209
 7486TIP3    H243950   1.136   2.212  11.034 -0.9860  1.7217  0.8429
 7487TIP3   OH243951   3.461   1.409  15.510  0.8894 -0.1654 -0.1572
 7487TIP3    H143952   3.530   1.469  15.536  0.4187  0.2157  0.2153
 7487TIP3    H243953   3.397   1.464  15.465  0.1506 -0.2800  0.7551
 7488TIP3   OH243954   5.431   6.592  15.316 -0.3197 -0.4455  0.4400
 7488TIP3    H143955   5.472   6.642  15.387  0.0585 -1.1065  0.6847
 7488TIP3    H243956   5.399   6.512  15.358 -0.5387 -0.6082 -0.0387
 7489TIP3   OH243957   3.110   5.232   2.513  0.0146 -0.1547 -0.3620
 7489TIP3    H143958   3.176   5.183   2.464  1.5413  0.2282  1.2487
 7489TIP3    H243959   3.141   5.229   2.604 -2.0320  0.3072  0.3600
 7490TIP3   OH243960   1.594   4.794   0.580 -0.0587 -0.3681  0.4252
 7490TIP3    H143961   1.530   4.812   0.649 -0.0079 -0.5710  0.5267
 7490TIP3    H243962   1.656   4.733   0.621 -0.2605 -0.8066  0.0666
 7491TIP3   OH243963   3.144   4.891  11.627  0.2777  0.1149 -0.5132
 7491TIP3    H143964   3.187   4.976  11.641  2.0605 -0.8341 -0.1399
 7491TIP3    H243965   3.125   4.860  11.715  0.5286 -0.3237 -0.6134
 7492TIP3   OH243966   4.502   3.580   5.994 -0.1072  0.0340 -0.2286
 7492TIP3    H143967   4.571   3.647   5.987  1.0539 -1.1264 -0.1155
 7492TIP3    H243968   4.509   3.549   6.084 -1.3616  0.5171  0.0343
 7493TIP3   OH243969   4.300   3.143  14.467  0.1244  0.2606  0.6979
 7493TIP3    H143970   4.393   3.166  14.464 -0.0288  0.7320 -1.2402
 7493TIP3    H243971   4.257   3.218  14.425 -1.1430  0.0689  1.6403
 7494TIP3   OH243972   0.292   1.873  12.124  0.2918  0.0349 -0.0759
 7494TIP3    H143973   0.219   1.840  12.071 -1.8267 -0.1031  2.8200
 7494TIP3    H243974   0.353   1.799  12.129 -1.1769 -1.1604  0.6143
 7495TIP3   OH243975   1.430   3.306   2.908  0.1939 -0.3379  0.1366
 7495TIP3    H143976   1.492   3.352   2.964  1.2237 -0.6712 -0.7095
 7495TIP3    H243977   1.466   3.217   2.900  0.6738  0.0013 -1.9105
 7496TIP3   OH243978   5.051   4.420  16.997  0.0849 -0.0471  0.1093
 7496TIP3    H143979   5.080   4.502  16.956  1.4876 -0.0937  0.9632
 7496TIP3    H243980   5.080   4.427  17.088 -2.3028 -0.2809  0.9221
 7497TIP3   OH243981   5.519   4.840  11.278  0.0822 -0.0320  0.6389
 7497TIP3    H143982   5.546   4.817  11.189  0.1570  0.8527  0.4225
 7497TIP3    H243983   5.423   4.845  11.273  0.1102  0.4008  0.5074
 7498TIP3   OH243984   3.793   0.246  11.203 -0.6284  0.3226 -0.1461
 7498TIP3    H143985   3.698   0.236  11.213 -0.6944  1.0889 -0.0353
 7498TIP3    H243986   3.803   0.291  11.119 -0.3135 -0.8086 -0.7253
 7499TIP3   OH243987   2.607   4.505  12.599 -0.4799  0.0082 -0.5582
 7499TIP3    H143988   2.598   4.596  12.571 -2.0085 -0.2601 -0.9462
 7499TIP3    H243989   2.544   4.456  12.547  1.4491 -1.5562 -1.5286
 7500TIP3   OH243990   3.631   0.168  15.169 -0.2814 -0.2453 -0.0727
 7500TIP3    H143991   3.697   0.236  15.158 -0.4988 -0.0592 -0.2217
 7500TIP3    H243992   3.641   0.113  15.091  0.3591 -0.7811  0.3811
 7501TIP3   OH243993   4.980   1.745  16.470  0.2151  0.1379 -0.0773
 7501TIP3    H143994   4.989   1.660  16.426 -1.2849  0.1696 -0.4618
 7501TIP3    H243995   5.045   1.742  16.540 -0.0567 -1.4743  0.1388
 7502TIP3   OH243996   3.768   5.678  11.267 -0.4651 -0.6896 -0.1340
 7502TIP3    H143997   3.815   5.762  11.271 -1.8009  0.0760 -0.1411
 7502TIP3    H243998   3.814   5.623  11.331  0.8369 -0.1714 -0.6045
 7503TIP3   OH243999   2.523   5.954   1.514 -0.7929  0.4163  0.9044
 7503TIP3    H144000   2.594   5.970   1.577 -0.8191  0.4233  0.9319
 7503TIP3    H244001   2.504   6.041   1.477  1.2899  0.0110 -1.3304
 7504TIP3   OH244002   5.950   5.388   4.604 -0.0603 -0.2951 -0.2560
 7504TIP3    H144003   5.868   5.367   4.559 -1.9663  0.3458  2.7773
 7504TIP3    H244004   5.980   5.305   4.640  0.4052 -0.4500 -0.9894
 7505TIP3   OH244005   0.060   6.032   4.003  0.2272  0.4515  0.0470
 7505TIP3    H144006   0.057   6.085   3.923 -1.8714  0.3039 -0.0118
 7505TIP3    H244007  -0.005   5.963   3.988  2.3328 -1.6705  0.4611
 7506TIP3   OH244008   3.894   1.626   5.797 -0.2515  0.6644  0.3170
 7506TIP3    H144009   3.847   1.546   5.819 -0.2616  0.4189 -0.5925
 7506TIP3    H244010   3.842   1.696   5.837 -1.0342  0.3433 -0.1285
 7507TIP3   OH244011   2.466   3.078   4.868  0.0850  0.2171  0.1782
 7507TIP3    H144012   2.393   3.017   4.858 -1.0120  1.6612 -0.8670
 7507TIP3    H244013   2.521   3.063   4.791  0.0402  0.2743  0.1355
 7508TIP3   OH244014   0.174   4.881  12.345  0.0870 -0.2345 -0.0579
 7508TIP3    H144015   0.210   4.929  12.270  2.1938 -0.2682  0.8849
 7508TIP3    H244016   0.106   4.939  12.380 -0.5381  0.0141 -1.6614
 7509TIP3   OH244017   0.079   2.533   4.587 -0.5499 -0.0132  0.3738
 7509TIP3    H144018  -0.015   2.533   4.574 -0.6312 -1.2020  0.9473
 7509TIP3    H244019   0.097   2.618   4.628 -1.1949  0.7333 -0.8464
 7510TIP3   OH244020   1.178   3.381   2.851  0.5605 -0.1704  0.2929
 7510TIP3    H144021   1.272   3.361   2.859  0.5734  0.2746  1.4597
 7510TIP3    H244022   1.150   3.399   2.941 -0.6533 -0.3070 -0.0473
 7511TIP3   OH244023   5.546   6.048   5.568  0.2417  0.2112 -0.1115
 7511TIP3    H144024   5.620   6.016   5.619  0.2891 -0.0301 -0.3290
 7511TIP3    H244025   5.475   6.056   5.631  0.1648 -0.5539 -0.0980
 7512TIP3   OH244026   5.807   1.000  11.991 -0.5095 -0.5300  0.0836
 7512TIP3    H144027   5.742   0.929  11.999  0.7596 -1.7251  0.0668
 7512TIP3    H244028   5.882   0.958  11.950 -0.1784  1.1532 -1.0552
 7513TIP3   OH244029   2.512   0.059   2.221  0.1640 -0.3412 -0.2912
 7513TIP3    H144030   2.597   0.096   2.196  0.6415 -0.3983  1.2231
 7513TIP3    H244031   2.533  -0.003   2.291 -1.3270  0.9786  1.3675
 7514TIP3   OH244032   5.413   3.826   4.371  0.6171  0.4267 -0.0366
 7514TIP3    H144033   5.469   3.899   4.396  2.1208 -0.3787 -1.0191
 7514TIP3    H244034   5.450   3.794   4.289 -0.4393 -1.0143  0.0248
 7515TIP3   OH244035   2.064   4.523  11.882  0.0255  0.3721 -0.4689
 7515TIP3    H144036   2.007   4.458  11.924 -0.2487 -0.3345 -1.8842
 7515TIP3    H244037   2.085   4.585  11.951  2.8987 -2.9499  1.8190
 7516TIP3   OH244038   6.754   5.655  16.606 -0.1085  0.1249  0.2609
 7516TIP3    H144039   6.723   5.633  16.519 -0.1797  0.5394  0.1808
 7516TIP3    H244040   6.761   5.571  16.651 -0.1368 -0.0822 -0.1215
 7517TIP3   OH244041   4.915   0.154   0.381  0.8545 -0.2565 -0.2385
 7517TIP3    H144042   4.849   0.135   0.447  2.0863 -1.2404  0.7241
 7517TIP3    H244043   4.906   0.248   0.364  2.0415  0.4899  3.0005
 7518TIP3   OH244044   3.339   4.152   3.050  0.0368 -0.2914 -0.6559
 7518TIP3    H144045   3.285   4.217   3.095  2.1875  0.0762  1.5499
 7518TIP3    H244046   3.355   4.189   2.963 -0.7223  1.0113 -0.2480
 7519TIP3   OH244047   3.706   1.488   0.877  0.2468  0.2305 -0.7349
 7519TIP3    H144048   3.665   1.565   0.916 -0.1939 -0.5842  0.4273
 7519TIP3    H244049   3.754   1.523   0.802  1.0494  1.8274  0.4770
 7520TIP3   OH244050   5.781   5.013   5.788  0.2583  0.1109  0.2844
 7520TIP3    H144051   5.870   4.990   5.813 -0.1436 -1.3957  0.3647
 7520TIP3    H244052   5.725   4.957   5.842 -0.6653 -1.8682 -2.6067
 7521TIP3   OH244053   1.922   0.683   4.578  0.0893  0.6044  0.3765
 7521TIP3    H144054   1.932   0.778   4.590  1.3249  0.7352 -1.4307
 7521TIP3    H244055   2.011   0.651   4.569 -0.3938 -0.5148 -0.5362
 7522TIP3   OH244056   0.949   3.065  13.161 -0.8690 -0.3288 -0.3807
 7522TIP3    H144057   0.863   3.023  13.165 -1.3777  0.6445 -0.8598
 7522TIP3    H244058   0.985   3.039  13.077  0.1227 -2.2738  0.6213
 7523TIP3   OH244059   4.051   6.306  15.158  0.3686  0.0969  0.3768
 7523TIP3    H144060   4.046   6.398  15.134  0.1938 -0.2391 -0.9350
 7523TIP3    H244061   3.979   6.292  15.219 -0.1557  0.6257 -0.1203
 7524TIP3   OH244062   3.559   6.409  14.838 -0.4086  0.6457 -0.2536
 7524TIP3    H144063   3.578   6.371  14.923  1.3777  1.2284 -0.3630
 7524TIP3    H244064   3.477   6.456  14.850 -2.2793 -2.6326  0.0442
 7525TIP3   OH244065   6.680   1.128  12.551  0.5566  0.2912 -0.0343
 7525TIP3    H144066   6.741   1.082  12.609  1.9370  0.6682 -1.1801
 7525TIP3    H244067   6.607   1.152  12.608  0.9465 -1.1779  1.1014
 7526TIP3   OH244068   3.837   2.103   0.997  1.0389  0.4873 -0.0769
 7526TIP3    H144069   3.858   2.113   0.904 -1.1927  0.7040 -0.5807
 7526TIP3    H244070   3.747   2.073   0.999  0.9337  0.8167  2.0380
 7527TIP3   OH244071   5.646   1.892   0.606  0.1658 -0.2485 -0.2892
 7527TIP3    H144072   5.556   1.914   0.580  0.6291  0.4501 -1.3017
 7527TIP3    H244073   5.658   1.802   0.574  0.1241 -0.0353 -0.8993
 7528TIP3   OH244074   6.453   3.860  12.605  0.1184 -0.4638  0.1692
 7528TIP3    H144075   6.444   3.948  12.640  0.3255  0.3527 -1.7658
 7528TIP3    H244076   6.408   3.804  12.668 -0.0919  1.0307  1.3616
 7529TIP3   OH244077   1.704   6.814   4.892 -0.4525  0.0812  0.1511
 7529TIP3    H144078   1.769   6.869   4.935 -0.3040 -0.5153  0.6862
 7529TIP3    H244079   1.623   6.865   4.896 -0.1684  0.5369  0.0772
 7530TIP3   OH244080   3.646   1.752  11.985  0.5743 -0.1983 -0.0801
 7530TIP3    H144081   3.580   1.802  12.034 -1.9769 -2.3512 -1.1399
 7530TIP3    H244082   3.730   1.779  12.022 -0.7211  4.2032 -0.1012
 7531TIP3   OH244083   3.616   4.710   2.103 -0.0390  0.0252 -0.2366
 7531TIP3    H144084   3.547   4.771   2.130  1.1691  1.5802 -0.5943
 7531TIP3    H244085   3.596   4.691   2.011 -1.0882 -1.0654  0.2029
 7532TIP3   OH244086   3.833   6.659   0.608 -0.1085  0.2779 -0.0722
 7532TIP3    H144087   3.816   6.681   0.516  0.9746  1.9323  0.1118
 7532TIP3    H244088   3.928   6.648   0.613 -0.2212 -0.3715  0.7416
 7533TIP3   OH244089   3.613   2.858  10.898 -0.5341 -0.5012 -0.4301
 7533TIP3    H144090   3.656   2.870  10.813  0.9873 -0.2790  0.3425
 7533TIP3    H244091   3.644   2.932  10.951 -2.0255 -0.2455  0.1123
 7534TIP3   OH244092   1.442   4.077  12.699 -0.4014 -0.5216 -0.3984
 7534TIP3    H144093   1.397   4.159  12.717 -1.7230 -1.0971 -0.9883
 7534TIP3    H244094   1.534   4.095  12.715 -0.7944  0.8179  0.3590
 7535TIP3   OH244095   5.086   3.091   1.936 -0.7456 -0.4013 -0.3546
 7535TIP3    H144096   5.129   3.175   1.952  0.2618 -1.0951  0.7320
 7535TIP3    H244097   4.998   3.114   1.906 -1.1895  1.0581  1.8941
 7536TIP3   OH244098   2.899   1.305  15.309  0.0964  0.3044  0.0484
 7536TIP3    H144099   2.913   1.398  15.293  0.7497  0.2880  0.5079
 7536TIP3    H244100   2.978   1.276  15.355  0.4875 -0.7631 -1.2411
 7537TIP3   OH244101   5.926   5.010  14.495  0.4470 -0.4334  0.0008
 7537TIP3    H144102   5.959   4.955  14.424  0.4302  1.5092 -1.5532
 7537TIP3    H244103   5.865   5.070  14.453  1.6556  1.8335  1.3509
 7538TIP3   OH244104   0.095   6.114   5.377  0.3114 -0.3239 -1.0048
 7538TIP3    H144105   0.119   6.177   5.309  1.4469 -0.4315 -0.7173
 7538TIP3    H244106   0.011   6.079   5.348 -1.0108  2.3106 -0.4559
 7539TIP3   OH244107   1.388   3.102   2.537  0.1507 -0.1968  0.1433
 7539TIP3    H144108   1.397   3.193   2.563  1.4343  0.2590 -1.8105
 7539TIP3    H244109   1.427   3.097   2.450 -0.8998 -2.3820 -0.2525
 7540TIP3   OH244110   1.312   4.598  11.390  0.1243  0.0891 -0.2253
 7540TIP3    H144111   1.377   4.581  11.458  0.6119 -0.7239 -0.8848
 7540TIP3    H244112   1.289   4.511  11.357 -0.2013  0.4751 -1.0207
 7541TIP3   OH244113   6.104   0.874   2.108  0.1325 -0.6255  0.5322
 7541TIP3    H144114   6.114   0.919   2.025 -0.8559 -0.9860  0.2072
 7541TIP3    H244115   6.048   0.799   2.088 -2.3466  0.7419  1.9946
 7542TIP3   OH244116   3.348   0.242  12.110 -0.1360  0.0343 -0.1243
 7542TIP3    H144117   3.283   0.293  12.158 -1.0317 -0.6270 -0.6177
 7542TIP3    H244118   3.296   0.186  12.052  0.8929  0.4001 -1.4340
 7543TIP3   OH244119   3.049   4.854  15.976  0.1143  0.4642  0.7605
 7543TIP3    H144120   3.128   4.811  15.943  0.7902  1.3701  1.1881
 7543TIP3    H244121   2.998   4.784  16.016  0.4127 -0.2300 -0.0577
 7544TIP3   OH244122   4.291   0.889   1.684 -0.0940 -0.2983  0.5784
 7544TIP3    H144123   4.273   0.797   1.665  1.3567 -0.1333 -1.8009
 7544TIP3    H244124   4.362   0.886   1.749 -0.0197 -0.8590  0.4760
 7545TIP3   OH244125   6.515   5.703  13.292  0.2686  0.0401  0.2795
 7545TIP3    H144126   6.499   5.740  13.379 -0.6587 -0.4130  0.3167
 7545TIP3    H244127   6.431   5.714  13.246  0.8246  0.4936 -0.6363
 7546TIP3   OH244128   2.528   3.150  16.463 -0.1612  0.0191  0.8040
 7546TIP3    H144129   2.611   3.120  16.498  0.9665 -0.9275 -2.5138
 7546TIP3    H244130   2.464   3.084  16.490  0.6473 -0.6367  1.0997
 7547TIP3   OH244131   0.971   0.642   1.231  0.2693 -0.2530  0.0141
 7547TIP3    H144132   0.944   0.620   1.142 -0.9130 -0.0483  0.3175
 7547TIP3    H244133   0.925   0.723   1.251  3.0183  1.4594 -0.3446
 7548TIP3   OH244134   2.384   1.604   2.765  0.0592 -0.2241 -0.1232
 7548TIP3    H144135   2.369   1.665   2.837  1.2832  0.9412 -0.8255
 7548TIP3    H244136   2.379   1.518   2.805 -2.1062  0.3099  0.8184
 7549TIP3   OH244137   0.933   2.772  14.689 -0.1659 -0.1490  0.3965
 7549TIP3    H144138   0.870   2.709  14.655  0.5666  0.0821 -1.4637
 7549TIP3    H244139   0.885   2.855  14.690 -0.1766 -0.1443 -0.1694
 7550TIP3   OH244140   6.218   4.865  13.129 -0.1470 -0.0468 -0.4907
 7550TIP3    H144141   6.270   4.802  13.178  0.2570 -0.9627 -2.0691
 7550TIP3    H244142   6.260   4.949  13.145 -0.8376 -0.1147  1.8213
 7551TIP3   OH244143   3.647   1.018   5.035  0.0747 -0.5367  0.3158
 7551TIP3    H144144   3.663   1.087   5.099 -0.7325  0.2868 -0.3743
 7551TIP3    H244145   3.616   1.063   4.957  1.7105 -1.4731 -0.9187
 7552TIP3   OH244146   5.222   3.141  12.580 -0.0780 -0.0191  0.8569
 7552TIP3    H144147   5.269   3.186  12.650  0.0419  0.9752  0.1562
 7552TIP3    H244148   5.176   3.070  12.623 -0.7799  1.1670  2.0869
 7553TIP3   OH244149   1.527   4.517  12.891 -0.0749 -0.0816 -0.0523
 7553TIP3    H144150   1.597   4.575  12.861 -0.8446  0.1197 -1.5267
 7553TIP3    H244151   1.448   4.552  12.850 -1.0791 -0.1959  1.7466
 7554TIP3   OH244152   3.488   1.338  15.844  0.1234 -0.1491  0.3717
 7554TIP3    H144153   3.526   1.426  15.842  0.6038 -0.3576  0.1301
 7554TIP3    H244154   3.564   1.279  15.835 -0.2222 -0.5746  0.2244
 7555TIP3   OH244155   2.200   5.600   5.110 -0.5805 -0.2132  0.3054
 7555TIP3    H144156   2.114   5.557   5.103 -0.7469 -0.2926  2.4158
 7555TIP3    H244157   2.188   5.664   5.180  1.2052 -0.4776  0.8611
 7556TIP3   OH244158   0.495   4.922  14.366  0.3763 -0.2726 -0.0373
 7556TIP3    H144159   0.511   4.832  14.396  0.0659 -0.5654 -0.7125
 7556TIP3    H244160   0.545   4.929  14.284 -0.3955 -0.1579 -0.5024
 7557TIP3   OH244161   6.473   2.720   3.373 -0.2124 -0.9911  0.2502
 7557TIP3    H144162   6.504   2.757   3.290  1.6497 -1.9474  0.4955
 7557TIP3    H244163   6.433   2.795   3.418  3.6041  0.8687  0.7940
 7558TIP3   OH244164   5.443   5.985  13.889 -0.4203 -0.2830  0.0004
 7558TIP3    H144165   5.446   6.000  13.983  0.1118 -1.5835  0.1931
 7558TIP3    H244166   5.395   6.060  13.855 -1.1400 -0.1099  1.3640
 7559TIP3   OH244167   4.252   0.142   3.171 -0.2534  0.3282 -0.1909
 7559TIP3    H144168   4.253   0.229   3.211  0.8402  0.0600  0.3925
 7559TIP3    H244169   4.317   0.148   3.101 -1.0725  0.3473 -0.9476
 7560TIP3   OH244170   3.666   3.538   0.661 -0.1976  0.0416  0.6204
 7560TIP3    H144171   3.615   3.588   0.725 -0.2551 -1.4665  1.8076
 7560TIP3    H244172   3.628   3.449   0.665  0.5077 -0.3334 -0.7347
 7561TIP3   OH244173   4.021   1.274  15.951 -0.2895  0.4909  0.1257
 7561TIP3    H144174   3.934   1.313  15.962  0.0433  1.5155 -0.8955
 7561TIP3    H244175   4.081   1.348  15.944  0.4055 -0.1756 -1.2762
 7562TIP3   OH244176   4.537   5.452   4.100 -0.2473 -0.0340  0.4810
 7562TIP3    H144177   4.607   5.442   4.035  0.1860  1.0228  0.7785
 7562TIP3    H244178   4.582   5.487   4.177 -0.9041 -0.4976  1.0795
 7563TIP3   OH244179   5.911   1.088   1.484 -0.5909 -0.0362 -0.7316
 7563TIP3    H144180   5.935   1.082   1.576 -0.2322  0.3231 -0.7995
 7563TIP3    H244181   5.884   1.179   1.472  1.1100  0.4150 -1.3831
 7564TIP3   OH244182   0.739   3.684   1.826 -0.4255  0.6598 -0.0851
 7564TIP3    H144183   0.729   3.721   1.913  1.0894 -0.9952  0.8092
 7564TIP3    H244184   0.829   3.705   1.801 -0.8886  1.2470 -1.3310
 7565TIP3   OH244185   3.042   2.954   2.638  0.6385  0.3402  0.2132
 7565TIP3    H144186   3.033   3.020   2.570 -1.1770  0.9416  1.0016
 7565TIP3    H244187   2.952   2.936   2.666  1.0226 -2.7724 -0.2847
 7566TIP3   OH244188   5.069   5.577  12.474  0.2829  0.3458 -0.4795
 7566TIP3    H144189   5.126   5.499  12.469  0.8154  0.7032 -0.0048
 7566TIP3    H244190   5.018   5.574  12.393  0.5714 -0.2916 -0.6420
 7567TIP3   OH244191   5.519   6.733  12.201 -0.1255 -0.1078 -0.0438
 7567TIP3    H144192   5.539   6.806  12.143 -1.3032  0.5289  0.3495
 7567TIP3    H244193   5.445   6.688  12.160  0.4143 -0.9236 -0.1453
 7568TIP3   OH244194   2.289   2.329   3.209 -0.2271  0.3412  0.6867
 7568TIP3    H144195   2.206   2.281   3.208 -0.1638  0.2162  1.4849
 7568TIP3    H244196   2.355   2.261   3.219 -0.0810  0.5239  0.9548
 7569TIP3   OH244197   2.131   4.863   5.613  0.6779  0.4228 -0.3080
 7569TIP3    H144198   2.200   4.907   5.663  1.5610 -1.7059  0.3967
 7569TIP3    H244199   2.156   4.875   5.521 -0.1517  3.0552 -0.2384
 7570TIP3   OH244200   6.151   5.607   3.203 -0.1958 -0.3565 -0.4535
 7570TIP3    H144201   6.126   5.614   3.295  1.2555  0.7897 -0.1368
 7570TIP3    H244202   6.203   5.527   3.198 -0.0859 -0.2983 -0.2397
 7571TIP3   OH244203   1.253   1.001  15.337  0.0273 -0.5658 -0.4543
 7571TIP3    H144204   1.183   0.945  15.304 -0.7545  0.1464 -0.0175
 7571TIP3    H244205   1.270   0.968  15.425  0.5233 -0.9845 -0.6986
 7572TIP3   OH244206   4.507   5.388   6.044 -0.1212  0.2901  0.4761
 7572TIP3    H144207   4.552   5.305   6.059  1.1953  0.7947 -0.5425
 7572TIP3    H244208   4.454   5.372   5.966 -0.1595  0.2972  0.5003
 7573TIP3   OH244209   0.369   6.190   3.398 -0.0635  0.1728  0.0520
 7573TIP3    H144210   0.350   6.272   3.352  1.0365  0.6318  0.4051
 7573TIP3    H244211   0.462   6.195   3.418  0.7560 -2.5644 -2.7206
 7574TIP3   OH244212   4.156   1.904   2.125  0.0053 -0.3171 -0.3465
 7574TIP3    H144213   4.186   1.916   2.035  2.8242  0.6527  0.6756
 7574TIP3    H244214   4.087   1.969   2.137  1.2980  1.1817 -1.0565
 7575TIP3   OH244215   6.027   0.107  16.754  0.5515  1.0741 -0.3243
 7575TIP3    H144216   5.956   0.044  16.769  1.0193  0.0564 -2.2263
 7575TIP3    H244217   5.984   0.183  16.715  0.6111  0.0039 -2.5750
 7576TIP3   OH244218   6.744   1.040   3.946  0.0504 -0.2541 -0.3499
 7576TIP3    H144219   6.686   1.101   3.899  0.8204 -0.7784 -2.0371
 7576TIP3    H244220   6.817   1.026   3.885  1.2206 -0.7436  1.1473
 7577TIP3   OH244221   2.225   2.307  12.769  0.1820  0.0979  0.6516
 7577TIP3    H144222   2.232   2.401  12.787 -0.0865 -0.0491  1.5485
 7577TIP3    H244223   2.130   2.292  12.764  0.2362  0.2436 -1.5296
 7578TIP3   OH244224   4.404   2.829   2.934 -0.8146 -0.0207  0.3740
 7578TIP3    H144225   4.357   2.897   2.887 -2.0117 -0.3157  1.1415
 7578TIP3    H244226   4.336   2.770   2.966 -0.0694  0.4604  2.9167
 7579TIP3   OH244227   5.324   6.000  11.564 -0.0694 -0.3001 -0.3410
 7579TIP3    H144228   5.303   5.957  11.646  2.8892 -2.1449 -0.4823
 7579TIP3    H244229   5.256   5.970  11.503 -1.0352 -0.6155  0.8754
 7580TIP3   OH244230   0.737   2.059  11.498  0.6454 -0.1342  0.0940
 7580TIP3    H144231   0.697   1.972  11.499  0.3088 -0.0156 -1.3899
 7580TIP3    H244232   0.707   2.101  11.578  0.2725 -1.1500  0.4904
 7581TIP3   OH244233   1.246   4.239  12.493 -0.2920 -0.1486  0.5036
 7581TIP3    H144234   1.277   4.153  12.464  0.1223  0.0912  0.2371
 7581TIP3    H244235   1.176   4.219  12.555  0.0344 -0.6857  0.7034
 7582TIP3   OH244236   2.357   6.181  12.186  0.4481  0.2197 -0.0201
 7582TIP3    H144237   2.313   6.263  12.208  0.5380  0.4578 -0.7073
 7582TIP3    H244238   2.288   6.115  12.189  0.3295  0.3587  0.3120
 7583TIP3   OH244239   0.791   0.157   6.459  0.0130  0.1893 -0.1535
 7583TIP3    H144240   0.777   0.252   6.461  0.4874  0.2806 -0.8135
 7583TIP3    H244241   0.757   0.130   6.374  2.0953  0.1439 -1.0186
 7584TIP3   OH244242   5.340   6.375   3.250 -0.0997 -0.3393 -0.3709
 7584TIP3    H144243   5.323   6.389   3.343 -0.2996 -1.1931 -0.2723
 7584TIP3    H244244   5.423   6.419   3.235  1.0029 -1.9530  0.7085
 7585TIP3   OH244245   2.065   4.415  16.493  0.8072  0.6522  0.4926
 7585TIP3    H144246   2.038   4.506  16.500 -0.9778  0.4345 -2.6970
 7585TIP3    H244247   2.159   4.420  16.476  1.3054  1.7243  3.2275
 7586TIP3   OH244248   3.933   2.829   2.161  0.4640  0.2577  0.7467
 7586TIP3    H144249   4.014   2.873   2.135  0.7636 -0.8931 -0.3534
 7586TIP3    H244250   3.923   2.849   2.254  0.6013  2.5815  0.2802
 7587TIP3   OH244251   2.413   1.222  12.425  0.2368 -0.2255  0.1459
 7587TIP3    H144252   2.430   1.316  12.415  0.0639 -0.2243 -0.1388
 7587TIP3    H244253   2.500   1.183  12.432  0.4065 -0.3432 -2.3547
 7588TIP3   OH244254   5.855   5.600  16.184 -0.1592 -0.0596 -0.2723
 7588TIP3    H144255   5.834   5.667  16.119 -1.0594 -0.4377 -0.3734
 7588TIP3    H244256   5.796   5.527  16.164  0.1737 -0.5255  0.4171
 7589TIP3   OH244257   3.655   4.526  14.555 -0.1952  0.4185  0.1481
 7589TIP3    H144258   3.697   4.611  14.540 -1.8008  1.0890 -0.6033
 7589TIP3    H244259   3.630   4.528  14.647 -0.6334  0.9460  0.0226
 7590TIP3   OH244260   3.200   1.853   3.606 -0.0940 -0.2382 -0.5554
 7590TIP3    H144261   3.216   1.923   3.543  1.8910 -0.7969 -0.6986
 7590TIP3    H244262   3.188   1.898   3.689  2.6718  0.2350 -0.3617
 7591TIP3   OH244263   1.226   2.070  12.651  0.0538 -0.0794 -0.3639
 7591TIP3    H144264   1.317   2.041  12.651  0.9062  2.3302 -2.6021
 7591TIP3    H244265   1.230   2.163  12.675 -1.7863  0.0919 -0.5966
 7592TIP3   OH244266   6.591   5.025   5.476 -0.1757 -0.0057  0.2891
 7592TIP3    H144267   6.548   5.111   5.473 -0.4001 -0.1110  0.4494
 7592TIP3    H244268   6.645   5.023   5.397  0.1013  0.4234  0.4651
 7593TIP3   OH244269   0.125   6.026  13.372 -0.6507  0.3922 -0.0140
 7593TIP3    H144270   0.031   6.035  13.359 -0.7082 -1.9375 -1.4281
 7593TIP3    H244271   0.134   5.989  13.460 -0.9843  1.7038  0.5820
 7594TIP3   OH244272   4.105   4.897   5.489 -0.2607  0.0091  0.5170
 7594TIP3    H144273   4.030   4.844   5.516  1.4112 -2.1638  1.0442
 7594TIP3    H244274   4.149   4.920   5.571 -0.7350  1.8882  0.2641
 7595TIP3   OH244275   3.879   4.356  12.976  0.3313  0.1243  0.2667
 7595TIP3    H144276   3.963   4.317  13.001  0.5435  0.7227  0.5151
 7595TIP3    H244277   3.847   4.301  12.905 -0.4955 -1.8455  2.1290
 7596TIP3   OH244278   3.614   2.937  15.873  0.2079 -0.0748 -0.5838
 7596TIP3    H144279   3.569   2.997  15.932 -1.3798 -1.6431 -0.1574
 7596TIP3    H244280   3.558   2.932  15.796  2.1467  1.7620 -2.1522
 7597TIP3   OH244281   3.359   5.798   4.076  0.0647  0.1673  0.1897
 7597TIP3    H144282   3.329   5.837   3.994 -1.3849  0.5040  0.8616
 7597TIP3    H244283   3.386   5.873   4.130  0.7556 -0.0335  0.1313
 7598TIP3   OH244284   1.709   2.354  14.813  0.3096  0.3271  0.7252
 7598TIP3    H144285   1.695   2.413  14.739 -0.5891  0.0984  0.7036
 7598TIP3    H244286   1.765   2.285  14.778  0.5486  0.6402  0.4810
 7599TIP3   OH244287   0.051   6.515  12.473  0.1324  0.5491 -0.0956
 7599TIP3    H144288   0.098   6.436  12.502 -0.0606 -0.4641 -2.4634
 7599TIP3    H244289  -0.038   6.503  12.506  0.5279  0.6093  1.0242
 7600TIP3   OH244290   5.293   6.581   4.196 -0.1794 -0.5357  0.0274
 7600TIP3    H144291   5.206   6.593   4.234  0.2240 -0.8536  1.0787
 7600TIP3    H244292   5.282   6.506   4.136 -0.7752 -0.1493 -0.3627
 7601TIP3   OH244293   4.977   4.035  12.994  0.0040 -0.3545  0.0859
 7601TIP3    H144294   4.944   3.957  13.040 -0.2539 -1.3290 -1.7367
 7601TIP3    H244295   4.943   4.026  12.905 -1.0429  2.4545  0.1588
 7602TIP3   OH244296   4.170   0.066   5.097 -0.0577  0.4239  0.1189
 7602TIP3    H144297   4.140   0.124   5.167  0.1172 -1.1658  1.5500
 7602TIP3    H244298   4.255   0.035   5.127 -0.2471 -0.7412 -0.5378
 7603TIP3   OH244299   5.015   6.491  11.655 -0.1259  0.7048  0.4191
 7603TIP3    H144300   5.094   6.452  11.616 -0.4476 -1.1824  1.5917
 7603TIP3    H244301   4.990   6.560  11.594  2.5315  1.4540  0.0915
 7604TIP3   OH244302   0.511   4.167  16.952  0.3890  0.1780  0.2443
 7604TIP3    H144303   0.567   4.121  16.889  0.9604  0.1528  0.7588
 7604TIP3    H244304   0.532   4.126  17.036 -0.9727 -0.3523  0.3282
 7605TIP3   OH244305   6.518   6.448  13.577  0.2449  0.4902 -0.1413
 7605TIP3    H144306   6.466   6.417  13.651  1.1705  0.6193  0.5698
 7605TIP3    H244307   6.548   6.368  13.534 -2.3205  0.4009 -1.8408
 7606TIP3   OH244308   2.383   4.618  12.174 -0.4134 -0.1636 -0.5181
 7606TIP3    H144309   2.305   4.565  12.158 -0.3626 -0.1244 -0.9029
 7606TIP3    H244310   2.436   4.565  12.233 -1.2101  0.2651  0.6011
 7607TIP3   OH244311   2.297   2.125   1.258  0.5918  0.6329 -0.2064
 7607TIP3    H144312   2.237   2.176   1.205 -2.5023 -1.2204  1.3541
 7607TIP3    H244313   2.320   2.049   1.204  1.8474  1.5070 -0.9275
 7608TIP3   OH244314   2.638   6.081  16.670 -0.3344  0.3386  0.5367
 7608TIP3    H144315   2.587   6.149  16.713  2.1485  2.3555  0.3966
 7608TIP3    H244316   2.615   6.000  16.716 -5.2945  0.7331 -0.9588
 7609TIP3   OH244317   1.002   6.110  13.066 -0.1270 -0.3047  0.3906
 7609TIP3    H144318   1.040   6.198  13.056  0.5863 -0.4996  1.3227
 7609TIP3    H244319   0.970   6.088  12.978  0.6883  0.4288 -0.1014
 7610TIP3   OH244320   2.909   3.589   3.476 -0.4133  0.4193 -0.5358
 7610TIP3    H144321   2.924   3.660   3.540  0.2413 -0.6011  0.4617
 7610TIP3    H244322   2.951   3.513   3.516 -3.4407 -1.1957 -0.3283
 7611TIP3   OH244323   1.712   4.713  13.689  0.1068  0.4212  0.3749
 7611TIP3    H144324   1.719   4.807  13.672  0.1870  0.6696  1.7594
 7611TIP3    H244325   1.800   4.687  13.717  0.3089 -0.2467 -0.8218
 7612TIP3   OH244326   3.961   4.964   0.328  0.0351  0.3653 -0.2526
 7612TIP3    H144327   3.928   4.906   0.258 -0.4379  0.6857 -0.2920
 7612TIP3    H244328   4.041   4.920   0.358 -2.0057 -2.0034  1.9164
 7613TIP3   OH244329   2.571   3.766   0.942  0.1451  0.2662  0.1832
 7613TIP3    H144330   2.527   3.808   0.869 -2.7915  0.7601  2.1224
 7613TIP3    H244331   2.551   3.673   0.932 -0.0974  0.3131  0.2138
 7614TIP3   OH244332   4.624   2.780  17.014 -0.0989 -0.0655 -0.4542
 7614TIP3    H144333   4.566   2.768  17.090  0.3575 -0.5552 -0.1798
 7614TIP3    H244334   4.570   2.827  16.951 -0.4564  0.4368  0.2139
 7615TIP3   OH244335   5.125   1.292   0.661  0.1533  0.0253 -0.0270
 7615TIP3    H144336   5.171   1.368   0.698  1.9228 -0.7154 -0.6655
 7615TIP3    H244337   5.141   1.297   0.567 -1.7846  0.1914 -0.3772
 7616TIP3   OH244338   0.418   4.162   3.059  0.4808  0.0619 -0.2934
 7616TIP3    H144339   0.395   4.238   3.006  0.8833  0.9999  0.8443
 7616TIP3    H244340   0.432   4.091   2.996 -1.4174  0.5262 -1.2673
 7617TIP3   OH244341   2.026   6.470  12.546 -0.0305 -0.6545 -0.3069
 7617TIP3    H144342   2.035   6.483  12.451 -1.6535  3.3439 -0.0489
 7617TIP3    H244343   1.932   6.474  12.561  0.3653  2.7283  1.8489
 7618TIP3   OH244344   1.422   3.396   5.492 -0.0300 -0.3641 -0.5880
 7618TIP3    H144345   1.345   3.412   5.547  1.6909  1.9579  1.2842
 7618TIP3    H244346   1.467   3.322   5.534 -0.0981 -0.2789 -0.3628
 7619TIP3   OH244347   4.248   3.455   3.864  0.1726  0.1734 -0.5589
 7619TIP3    H144348   4.191   3.530   3.879 -2.0865 -1.2726 -1.6206
 7619TIP3    H244349   4.208   3.384   3.913  3.0448 -0.0712  1.5613
 7620TIP3   OH244350   6.489   5.747  11.085 -0.3743  0.4536 -0.6150
 7620TIP3    H144351   6.443   5.721  11.164  0.4356 -1.8952 -0.8859
 7620TIP3    H244352   6.499   5.666  11.035  1.9389  1.3320 -1.6433
 7621TIP3   OH244353   3.434   5.368  15.251 -0.0744  0.1394 -0.1129
 7621TIP3    H144354   3.441   5.350  15.157  0.8319 -0.1780  0.0151
 7621TIP3    H244355   3.429   5.281  15.291 -0.3354  0.2739  0.1487
 7622TIP3   OH244356   0.339   2.114  13.560  0.2128 -0.1547 -0.6543
 7622TIP3    H144357   0.309   2.203  13.540  1.1114 -0.1958 -2.2439
 7622TIP3    H244358   0.398   2.125  13.635 -1.1176  0.3463  0.3302
 7623TIP3   OH244359   2.335   3.518  12.332  0.0123  0.4970  0.5483
 7623TIP3    H144360   2.399   3.585  12.308  0.2713 -0.3774 -1.2580
 7623TIP3    H244361   2.386   3.438  12.340 -0.8898 -0.2863 -1.2623
 7624TIP3   OH244362   5.127   4.104   4.182  0.0885 -0.1717 -0.7822
 7624TIP3    H144363   5.077   4.162   4.239  0.7604  0.1851 -0.5560
 7624TIP3    H244364   5.083   4.110   4.097 -0.1549  0.2659 -0.6249
 7625TIP3   OH244365   2.755   6.795  11.308 -0.0403  0.1114  0.1853
 7625TIP3    H144366   2.707   6.824  11.230 -1.6310 -1.5456  0.5196
 7625TIP3    H244367   2.835   6.849  11.309 -0.6942  1.1452 -1.7769
 7626TIP3   OH244368   5.703   0.420  12.027  0.0663  0.4547  0.3767
 7626TIP3    H144369   5.670   0.470  11.952 -0.4278 -3.4986 -2.2135
 7626TIP3    H244370   5.793   0.399  12.003  0.7336  1.3036  2.0964
 7627TIP3   OH244371   0.853   1.786  13.172  0.3576  0.2878  0.2250
 7627TIP3    H144372   0.862   1.713  13.110  0.4468  0.8588 -0.4445
 7627TIP3    H244373   0.814   1.856  13.120 -2.1210 -0.0974  1.5148
 7628TIP3   OH244374   5.727   3.217  11.648 -0.4908 -0.3667 -0.0927
 7628TIP3    H144375   5.684   3.248  11.568  2.7162  0.4439 -1.5726
 7628TIP3    H244376   5.722   3.291  11.708 -0.1955  0.0993 -0.6419
 7629TIP3   OH244377   2.622   1.532  13.113 -0.6894 -0.5869  0.2956
 7629TIP3    H144378   2.624   1.482  13.031 -2.6009  0.4177 -0.3955
 7629TIP3    H244379   2.546   1.499  13.160 -1.7853  1.3811 -0.0164
 7630TIP3   OH244380   0.343   4.474   6.129 -0.1802  0.2473 -0.2750
 7630TIP3    H144381   0.437   4.492   6.141 -0.4847  2.1544 -0.6293
 7630TIP3    H244382   0.303   4.561   6.117 -2.3859 -0.3074  2.5632
 7631TIP3   OH244383   6.113   2.931  16.170 -0.0559 -0.6321 -0.0693
 7631TIP3    H144384   6.126   2.922  16.076  0.4964  1.6739 -0.2479
 7631TIP3    H244385   6.199   2.955  16.205 -0.7515  0.9384  0.6564
 7632TIP3   OH244386   5.628   4.858   0.280  0.7587  0.0345  0.7158
 7632TIP3    H144387   5.549   4.911   0.285  0.2912 -0.5644 -0.1438
 7632TIP3    H244388   5.695   4.918   0.246 -0.4271 -0.5823 -2.9512
 7633TIP3   OH244389   0.894   2.701   4.459  0.1154  0.0835  0.3179
 7633TIP3    H144390   0.825   2.652   4.503  0.9408 -2.3522 -1.0185
 7633TIP3    H244391   0.903   2.658   4.373  1.4732  2.0248 -0.5385
 7634TIP3   OH244392   0.728   1.712   2.300  0.3891  0.5864 -0.0302
 7634TIP3    H144393   0.791   1.728   2.371 -0.2249 -1.0092  0.9198
 7634TIP3    H244394   0.712   1.798   2.262  4.7971  0.8106 -1.7396
 7635TIP3   OH244395   2.244   4.945   5.338 -0.7571  0.3318 -0.0516
 7635TIP3    H144396   2.316   5.007   5.329  0.1725 -0.7454 -0.1148
 7635TIP3    H244397   2.265   4.874   5.276 -1.3124 -0.5113  0.7150
 7636TIP3   OH244398   2.760   2.194   5.857  0.1315  0.0256 -0.1239
 7636TIP3    H144399   2.686   2.210   5.915  0.2089 -0.0213 -0.0123
 7636TIP3    H244400   2.828   2.158   5.914  1.2297  2.6851  0.2831
 7637TIP3   OH244401   3.341   6.818  11.537  0.0096 -0.1986 -0.0412
 7637TIP3    H144402   3.248   6.795  11.544  0.3870 -2.0348 -0.8062
 7637TIP3    H244403   3.347   6.905  11.576 -2.0764  0.0517 -0.2188
 7638TIP3   OH244404   0.880   2.028   0.182  0.5158 -0.4459  0.1245
 7638TIP3    H144405   0.796   1.981   0.183 -1.1404  2.4139  1.3078
 7638TIP3    H244406   0.914   2.018   0.271 -0.6082  1.8206  0.8501
 7639TIP3   OH244407   4.411   4.546   3.132 -0.7025  0.0773 -0.8964
 7639TIP3    H144408   4.428   4.455   3.108  0.9950 -0.0734  0.7324
 7639TIP3    H244409   4.435   4.596   3.055 -0.1888 -0.7606 -1.2895
 7640TIP3   OH244410   5.505   6.548   3.970 -0.0696  0.1908  0.1609
 7640TIP3    H144411   5.452   6.468   3.973 -0.1054  0.2269  0.5607
 7640TIP3    H244412   5.507   6.572   3.878  0.2056 -0.4508 -0.0066
 7641TIP3   OH244413   1.801   0.994   4.605 -0.9471 -0.0354  0.1989
 7641TIP3    H144414   1.831   1.085   4.598  0.1593 -0.3799  0.3656
 7641TIP3    H244415   1.723   0.999   4.661 -1.0838  0.8521 -0.0662
 7642TIP3   OH244416   3.131   6.779  11.187 -1.1169  0.4783 -0.7654
 7642TIP3    H144417   3.189   6.707  11.165  0.4203  0.5059  2.8529
 7642TIP3    H244418   3.130   6.834  11.109  3.1851  0.1135 -1.1809
 7643TIP3   OH244419   4.257   6.550  14.901 -0.4392 -0.6812 -0.6610
 7643TIP3    H144420   4.185   6.567  14.962  2.4888 -0.8485  3.0753
 7643TIP3    H244421   4.252   6.456  14.884 -0.3848 -0.9471  0.6789
 7644TIP3   OH244422   3.619   4.021   2.931  0.1276  0.3619 -0.3153
 7644TIP3    H144423   3.626   4.082   3.004  2.1069 -0.9782  0.6497
 7644TIP3    H244424   3.530   4.035   2.897 -0.1231  2.4069  1.0597
 7645TIP3   OH244425   6.729   1.422  14.914  0.5183 -0.0251 -0.1045
 7645TIP3    H144426   6.729   1.503  14.964  1.4841  1.3997 -2.3604
 7645TIP3    H244427   6.706   1.354  14.978  0.3216  1.9247  1.9288
 7646TIP3   OH244428   6.611   3.900  15.507  0.0117  0.0210  0.1847
 7646TIP3    H144429   6.697   3.895  15.467  0.2848 -3.4840  1.0267
 7646TIP3    H244430   6.550   3.892  15.434  0.4799 -2.4589  0.0337
 7647TIP3   OH244431   1.638   4.704  10.654 -0.5649  0.5227 -0.1399
 7647TIP3    H144432   1.732   4.697  10.670 -0.9786 -1.7487  1.4417
 7647TIP3    H244433   1.613   4.786  10.696  0.4826  0.5015  0.5508
 7648TIP3   OH244434   0.860   6.742  11.917  0.1957 -0.1215 -0.5725
 7648TIP3    H144435   0.864   6.652  11.949  1.0462  0.2923  0.5053
 7648TIP3    H244436   0.934   6.786  11.960  0.3875  0.8417 -1.8547
 7649TIP3   OH244437   6.485   2.730   0.165 -0.4783 -0.4515 -0.2150
 7649TIP3    H144438   6.429   2.660   0.200 -1.3790  0.3752  0.0122
 7649TIP3    H244439   6.442   2.811   0.193  1.0168  0.1965  0.2484
 7650TIP3   OH244440   2.733   6.319   0.732  0.2816  0.1389 -0.1221
 7650TIP3    H144441   2.730   6.350   0.642  1.3515 -0.6134 -0.4236
 7650TIP3    H244442   2.818   6.275   0.740 -0.0285 -0.2704  1.0926
 7651TIP3   OH244443   0.799   6.493  11.573  0.1816 -0.1439  0.8376
 7651TIP3    H144444   0.761   6.416  11.530  1.2152 -0.8965  1.2338
 7651TIP3    H244445   0.741   6.565  11.550  1.3989 -0.2432 -2.9027
 7652TIP3   OH244446   1.007   0.550  15.718 -0.3390 -0.3162 -0.3639
 7652TIP3    H144447   1.040   0.635  15.690  0.1051 -0.4011 -0.0991
 7652TIP3    H244448   1.077   0.513  15.771 -0.4820 -0.8992 -0.5739
 7653TIP3   OH244449   6.348   5.727  11.740  0.0788 -0.2523  0.1417
 7653TIP3    H144450   6.270   5.673  11.727  1.1120 -1.3778 -1.5489
 7653TIP3    H244451   6.376   5.751  11.652  3.1119 -2.0221  0.5515
 7654TIP3   OH244452   2.295   4.102   2.778  0.3509  0.0130  0.2621
 7654TIP3    H144453   2.270   4.119   2.687  0.7047 -0.1921  0.1233
 7654TIP3    H244454   2.371   4.045   2.771  0.2718 -0.1445  0.6946
 7655TIP3   OH244455   5.566   5.615  16.367  0.0044 -0.4666 -0.3095
 7655TIP3    H144456   5.620   5.694  16.368  1.6176 -1.5549  0.2891
 7655TIP3    H244457   5.596   5.566  16.290 -1.0351 -0.4892 -0.7144
 7656TIP3   OH244458   3.413   4.278  16.949 -0.0801 -0.4974 -0.4920
 7656TIP3    H144459   3.352   4.206  16.936 -1.0490 -0.0583  1.3502
 7656TIP3    H244460   3.365   4.340  17.004  0.8917  1.3567 -1.7119
 7657TIP3   OH244461   0.301   1.643   1.311  0.2320  0.3033  0.2080
 7657TIP3    H144462   0.236   1.712   1.295  0.4080  0.3207 -0.4791
 7657TIP3    H244463   0.367   1.685   1.365 -0.8434 -0.0164  1.7809
 7658TIP3   OH244464   5.330   3.113  14.766  0.5009  0.2807 -0.2816
 7658TIP3    H144465   5.411   3.074  14.797 -0.2465  0.0822  1.5023
 7658TIP3    H244466   5.297   3.052  14.700  0.7754 -0.6823  0.4635
 7659TIP3   OH244467   5.054   5.536  16.141 -0.2757  0.2845  0.7444
 7659TIP3    H144468   5.039   5.449  16.104  1.8473  0.5497 -0.8516
 7659TIP3    H244469   5.147   5.539  16.160 -0.0979  2.5445 -0.2169
 7660TIP3   OH244470   6.803   0.191   0.366 -0.6222 -0.6094  0.1964
 7660TIP3    H144471   6.836   0.138   0.293  0.8249  0.1110  0.3092
 7660TIP3    H244472   6.718   0.222   0.335 -2.1685 -4.1236  0.6947
 7661TIP3   OH244473   5.598   5.258   2.482 -0.3167 -0.3490 -0.0449
 7661TIP3    H144474   5.640   5.176   2.457 -2.5454 -1.2369 -0.9672
 7661TIP3    H244475   5.666   5.306   2.530  1.4033 -2.1707 -0.6082
 7662TIP3   OH244476   2.902   0.442   2.393  0.3572  0.3511  1.2477
 7662TIP3    H144477   2.974   0.405   2.444 -1.1781  1.0778  4.0301
 7662TIP3    H244478   2.881   0.524   2.438  0.4464  2.1641 -1.9181
 7663TIP3   OH244479   0.079   0.134  15.226  0.5400 -0.5573  0.0044
 7663TIP3    H144480   0.002   0.128  15.281 -0.4401 -0.3545 -1.3117
 7663TIP3    H244481   0.150   0.161  15.285 -0.7846  1.0272  0.9099
 7664TIP3   OH244482   1.939   5.297   5.229  0.1839 -0.5326 -0.6023
 7664TIP3    H144483   1.915   5.328   5.316 -0.5889  1.2184 -1.4007
 7664TIP3    H244484   1.972   5.209   5.243 -0.8119 -0.6311  1.3493
 7665TIP3   OH244485   1.913   4.197  11.505 -0.1406  0.1826  0.0665
 7665TIP3    H144486   1.873   4.138  11.441  1.6805 -0.6168 -0.3768
 7665TIP3    H244487   1.852   4.198  11.578 -0.8941 -1.1123 -0.5284
 7666TIP3   OH244488   2.974   1.170   1.137 -0.4792 -0.3060 -0.4159
 7666TIP3    H144489   2.946   1.228   1.066 -0.2368  0.1547 -0.1404
 7666TIP3    H244490   3.069   1.179   1.139 -0.0804 -3.3463 -2.6079
 7667TIP3   OH244491   2.110   0.651  13.793 -0.2440 -0.1207  0.1317
 7667TIP3    H144492   2.088   0.559  13.808  1.1906 -0.3433  0.9572
 7667TIP3    H244493   2.118   0.658  13.697  0.7560 -1.1154  0.1417
 7668TIP3   OH244494   5.692   3.153   3.687 -0.2483 -0.1759 -0.0883
 7668TIP3    H144495   5.643   3.220   3.736  0.3599  1.3562 -1.4981
 7668TIP3    H244496   5.627   3.085   3.668 -1.2295  0.6499  0.2300
 7669TIP3   OH244497   5.793   6.062  11.241 -0.2303  0.5279  0.0958
 7669TIP3    H144498   5.867   6.014  11.203 -0.4540 -0.2906  0.6853
 7669TIP3    H244499   5.716   6.014  11.211 -0.4892  0.9189  0.1313
 7670TIP3   OH244500   1.055   2.416   2.167 -0.1523  0.0461 -0.5056
 7670TIP3    H144501   1.045   2.511   2.173  0.3678 -0.0132  1.9577
 7670TIP3    H244502   1.129   2.396   2.225 -1.5145 -2.0514  0.6085
 7671TIP3   OH244503   4.319   2.298   5.432  0.1029 -0.4843 -0.6585
 7671TIP3    H144504   4.330   2.365   5.500  0.1783 -0.0058 -1.1365
 7671TIP3    H244505   4.298   2.348   5.353  0.9561 -0.9748 -1.1960
 7672TIP3   OH244506   5.773   6.361   1.586  0.3468  0.1074 -0.3489
 7672TIP3    H144507   5.864   6.391   1.584  0.3723 -0.0356 -1.3076
 7672TIP3    H244508   5.732   6.412   1.657  1.1352  0.2598 -0.0004
 7673TIP3   OH244509   6.449   5.393   3.373  0.3689  0.9423 -0.2597
 7673TIP3    H144510   6.422   5.473   3.419 -2.7527  0.1518 -0.6158
 7673TIP3    H244511   6.384   5.383   3.304  1.8626 -0.8809 -1.4314
 7674TIP3   OH244512   5.332   3.796  11.496 -0.0976 -0.1381 -0.2570
 7674TIP3    H144513   5.333   3.771  11.404  1.9569  0.1810 -0.3462
 7674TIP3    H244514   5.307   3.889  11.496 -0.7171 -0.2990 -0.4255
 7675TIP3   OH244515   2.396   1.165   3.429 -0.4140 -0.6829  0.1923
 7675TIP3    H144516   2.348   1.082   3.422  1.5088 -1.8069 -0.1820
 7675TIP3    H244517   2.421   1.171   3.521 -0.5895 -0.5080  0.2275
 7676TIP3   OH244518   4.632   2.273   4.557  0.1865  0.3975 -0.3213
 7676TIP3    H144519   4.668   2.357   4.585  0.2902 -0.1406  1.2131
 7676TIP3    H244520   4.706   2.212   4.564 -0.5026 -0.3176  0.9900
 7677TIP3   OH244521   6.416   3.584  14.007 -0.2799  0.0250 -0.0380
 7677TIP3    H144522   6.381   3.498  13.982 -2.1612  0.4287  1.0887
 7677TIP3    H244523   6.429   3.629  13.924 -0.2404 -0.9859 -0.5958
 7678TIP3   OH244524   3.448   1.862  13.761 -0.2685  0.4098  0.3594
 7678TIP3    H144525   3.464   1.922  13.688 -0.8601 -0.6063 -0.6188
 7678TIP3    H244526   3.490   1.904  13.836 -0.7094  2.0768 -0.2984
 7679TIP3   OH244527   3.503   2.092  12.886  0.1576 -0.7350  0.3951
 7679TIP3    H144528   3.540   2.017  12.932  1.5858 -1.0012 -1.1351
 7679TIP3    H244529   3.421   2.060  12.850 -0.0698 -1.0610  1.1940
 7680TIP3   OH244530   0.122   6.232   5.845  0.5585  0.2282 -0.0628
 7680TIP3    H144531   0.152   6.176   5.773  0.4276 -0.5268  0.4695
 7680TIP3    H244532   0.073   6.173   5.902  2.6305  0.3413  1.8812
 7681TIP3   OH244533   5.146   3.106  11.115 -0.8211  0.6160 -0.2405
 7681TIP3    H144534   5.170   3.164  11.042  0.3496 -0.8990 -1.0724
 7681TIP3    H244535   5.208   3.033  11.110 -1.2744  0.0501  1.7537
 7682TIP3   OH244536   3.630   4.702  13.266  0.1689 -0.0618 -0.5145
 7682TIP3    H144537   3.628   4.607  13.280  1.0377 -0.1870 -1.1612
 7682TIP3    H244538   3.635   4.711  13.170 -0.4561  0.6485 -0.4799
 7683TIP3   OH244539   3.399   0.287  15.295  0.3037  0.5634 -0.0687
 7683TIP3    H144540   3.480   0.238  15.281  1.0424  1.3253  1.3934
 7683TIP3    H244541   3.330   0.222  15.284  1.3171 -1.2501  3.3469
 7684TIP3   OH244542   2.848   6.608  16.344 -0.0916 -0.3947 -0.0171
 7684TIP3    H144543   2.795   6.604  16.424 -0.2050 -0.8862 -0.1157
 7684TIP3    H244544   2.858   6.702  16.327  0.6240 -0.2863  1.0240
 7685TIP3   OH244545   6.324   3.034  13.710  0.1343 -0.0637  0.6210
 7685TIP3    H144546   6.321   3.061  13.801 -1.2002  0.7185  0.3650
 7685TIP3    H244547   6.309   2.939  13.712 -4.2157  0.5283  0.9844
 7686TIP3   OH244548   6.092   0.726   1.467 -0.3013  0.0987 -0.3690
 7686TIP3    H144549   6.151   0.666   1.422  1.4120  0.5196  1.2216
 7686TIP3    H244550   6.054   0.780   1.398 -0.2397 -1.4194 -1.6021
 7687TIP3   OH244551   3.872   0.477   1.660 -0.5785 -0.0681  0.2246
 7687TIP3    H144552   3.935   0.523   1.716  1.2866 -0.3153 -1.6108
 7687TIP3    H244553   3.865   0.390   1.698 -0.4091  0.2022  0.8839
 7688TIP3   OH244554   2.235   1.946   2.877  0.1365 -0.5923 -0.2110
 7688TIP3    H144555   2.187   1.871   2.840 -1.4685 -0.8664  2.3019
 7688TIP3    H244556   2.285   1.908   2.949 -0.6086  0.7130  1.0145
 7689TIP3   OH244557   4.796   2.973  12.149 -0.2703  0.0588 -0.4530
 7689TIP3    H144558   4.831   2.977  12.238 -0.1341 -0.6144 -0.4713
 7689TIP3    H244559   4.822   3.056  12.110  2.7374 -1.0530 -0.9700
 7690TIP3   OH244560   6.230   6.412   3.541 -0.9413  0.3072 -0.2353
 7690TIP3    H144561   6.215   6.479   3.607 -1.3089 -0.4428  0.4573
 7690TIP3    H244562   6.316   6.433   3.504 -0.4330  0.3473  0.9510
 7691TIP3   OH244563   6.638   6.113  13.903 -0.1533  0.2229  0.9136
 7691TIP3    H144564   6.576   6.041  13.912  0.2048 -0.4089 -1.3739
 7691TIP3    H244565   6.609   6.160  13.825  2.1101  0.0379 -0.0806
 7692TIP3   OH244566   5.971   6.410  11.726 -0.3271  0.4347 -0.2340
 7692TIP3    H144567   6.058   6.371  11.731 -0.3183  0.1798 -1.9985
 7692TIP3    H244568   5.916   6.341  11.687 -1.9354 -0.3734  3.3016
 7693TIP3   OH244569   4.095   6.557  17.098  0.1286 -0.3894  0.0777
 7693TIP3    H144570   4.027   6.585  17.158  1.6792  1.0319  1.2354
 7693TIP3    H244571   4.130   6.476  17.136  2.3322  1.4599  2.1581
 7694TIP3   OH244572   5.763   2.599  15.483  0.5640  0.0865  0.7714
 7694TIP3    H144573   5.782   2.514  15.523  0.1832  0.6508  2.1944
 7694TIP3    H244574   5.831   2.611  15.417 -0.9931 -2.5980 -1.4641
 7695TIP3   OH244575   5.218   2.077   1.258  0.0764 -0.7517  0.1948
 7695TIP3    H144576   5.281   2.027   1.310 -1.1638 -0.0514  2.4077
 7695TIP3    H244577   5.224   2.166   1.293 -1.1035 -0.3698 -0.5678
 7696TIP3   OH244578   2.581   3.462  12.612 -0.2032  0.3694 -0.0837
 7696TIP3    H144579   2.552   3.370  12.609  1.1809 -0.1080  0.6976
 7696TIP3    H244580   2.501   3.512  12.629 -0.3377 -1.1270  4.5656
 7697TIP3   OH244581   1.031   4.252   0.008 -0.3967 -0.6369 -0.1041
 7697TIP3    H144582   1.080   4.239  -0.073  2.2213 -2.9181  1.7551
 7697TIP3    H244583   0.951   4.201  -0.005 -0.4244 -0.2432 -1.5943
 7698TIP3   OH244584   2.262   1.924   4.303 -0.1337 -0.2378 -0.5834
 7698TIP3    H144585   2.258   1.927   4.207 -2.0000 -1.2954 -0.5554
 7698TIP3    H244586   2.176   1.891   4.330 -0.1200  1.2997  1.5237
 7699TIP3   OH244587   0.206   0.295   3.173  0.5246  0.1015 -0.3273
 7699TIP3    H144588   0.187   0.222   3.232  1.0525  0.0810 -0.1842
 7699TIP3    H244589   0.182   0.262   3.086  2.7959 -1.0261 -0.5604
 7700TIP3   OH244590   3.065   5.957  11.855  0.1506  0.1327 -0.3450
 7700TIP3    H144591   3.055   6.052  11.850  0.5024  0.2087  0.2917
 7700TIP3    H244592   3.089   5.930  11.767 -0.5427  0.5648 -0.6636
 7701TIP3   OH244593   4.480   5.175  11.308  0.0514 -0.0363  0.1398
 7701TIP3    H144594   4.386   5.186  11.294 -0.3618  0.1063  2.8101
 7701TIP3    H244595   4.517   5.260  11.284 -0.3498 -0.3652 -1.7737
 7702TIP3   OH244596   2.952   1.883   5.269  0.1539  0.5486  0.2539
 7702TIP3    H144597   2.976   1.911   5.358 -0.0413  0.2706  0.3930
 7702TIP3    H244598   3.035   1.855   5.230  0.0467 -0.5079  0.7688
 7703TIP3   OH244599   6.342   3.092   5.103 -0.0079 -0.6822 -0.2288
 7703TIP3    H144600   6.405   3.143   5.155  0.4619  0.2689 -1.7152
 7703TIP3    H244601   6.272   3.154   5.082 -0.6315 -1.3002  0.0153
 7704TIP3   OH244602   0.394   5.356   1.935 -0.2437 -0.4694 -0.9067
 7704TIP3    H144603   0.400   5.261   1.921  0.4936 -0.3741 -1.2778
 7704TIP3    H244604   0.443   5.372   2.015  1.4405 -0.1442 -1.9762
 7705TIP3   OH244605   5.346   0.829   0.666  0.1445 -0.1504 -0.2871
 7705TIP3    H144606   5.335   0.885   0.743  0.2163  2.2376 -1.9407
 7705TIP3    H244607   5.374   0.745   0.700  2.4475  1.5437  2.1272
 7706TIP3   OH244608   5.190   1.300   6.456 -0.5832  0.4649  0.7228
 7706TIP3    H144609   5.099   1.298   6.426 -0.5251  1.3165  0.5014
 7706TIP3    H244610   5.224   1.384   6.426  0.5160 -0.1904  0.1257
 7707TIP3   OH244611   4.212   4.196  10.186 -0.2021 -0.3529 -0.1969
 7707TIP3    H144612   4.185   4.179  10.095  0.5207 -0.7798 -0.3348
 7707TIP3    H244613   4.153   4.141  10.238  0.0196 -0.8598 -0.4699
 7708TIP3   OH244614   5.248   5.596  13.584  0.0289 -0.0869 -0.2937
 7708TIP3    H144615   5.271   5.569  13.673  1.8736  0.6052 -0.5423
 7708TIP3    H244616   5.202   5.520  13.547 -0.9586 -0.2849  1.3165
 7709TIP3   OH244617   6.637   6.162   4.099 -0.1468  0.1493 -0.6281
 7709TIP3    H144618   6.729   6.137   4.092 -0.5331 -1.0417 -1.8000
 7709TIP3    H244619   6.604   6.152   4.010 -1.8780 -1.3176  0.1561
 7710TIP3   OH244620   2.945   0.526   3.891  0.0208 -0.1560 -0.0110
 7710TIP3    H144621   2.904   0.554   3.973 -1.0336  0.0747 -0.5972
 7710TIP3    H244622   2.874   0.531   3.827  0.1770 -2.8046 -0.4189
 7711TIP3   OH244623   3.364   0.357  11.451  0.0839  0.0117 -0.3148
 7711TIP3    H144624   3.296   0.358  11.384 -0.5808 -0.2616  0.3436
 7711TIP3    H244625   3.446   0.371  11.403 -0.4204  0.1972 -1.1314
 7712TIP3   OH244626   5.878   2.173   1.864  0.1627  0.2028  0.2470
 7712TIP3    H144627   5.830   2.230   1.924  0.2873  1.6013 -0.9556
 7712TIP3    H244628   5.899   2.229   1.789  1.4290 -1.0837 -0.3797
 7713TIP3   OH244629   5.251   1.517  15.543  0.5245  0.0862 -0.7002
 7713TIP3    H144630   5.197   1.540  15.618  3.1978  0.7848  1.0792
 7713TIP3    H244631   5.265   1.422  15.552 -0.5705 -0.1515 -1.3281
 7714TIP3   OH244632   0.318   0.574   0.910 -0.0968  0.1792 -0.0018
 7714TIP3    H144633   0.301   0.480   0.917 -1.9480  0.5364  0.5699
 7714TIP3    H244634   0.411   0.580   0.888  0.2898 -1.7455  1.0253
 7715TIP3   OH244635   4.817   6.654  16.574 -0.7881 -0.4611  0.0550
 7715TIP3    H144636   4.829   6.626  16.483 -0.0158  0.6681 -0.1932
 7715TIP3    H244637   4.748   6.720  16.570 -1.4707 -1.1451  0.4321
 7716TIP3   OH244638   2.329   2.676  12.494 -0.4174  0.1636 -0.3661
 7716TIP3    H144639   2.407   2.621  12.492 -0.7614 -0.4183  1.1579
 7716TIP3    H244640   2.336   2.731  12.416  0.8055 -0.8412 -0.9800
 7717TIP3   OH244641   3.198   5.424  13.326 -0.1113 -0.8364  0.5946
 7717TIP3    H144642   3.224   5.400  13.415 -0.8475  1.0051  1.3481
 7717TIP3    H244643   3.260   5.493  13.301 -0.6030 -0.5567  0.1270
 7718TIP3   OH244644   4.065   6.115   1.868  0.6970  0.1432  0.1760
 7718TIP3    H144645   4.081   6.021   1.877  2.7021  0.3237 -1.1453
 7718TIP3    H244646   4.136   6.156   1.917 -0.2336  0.9837  0.8422
 7719TIP3   OH244647   6.083   2.484  14.953  0.2122 -0.8400 -0.5023
 7719TIP3    H144648   6.094   2.418  15.022 -0.1915  1.0705  1.4685
 7719TIP3    H244649   5.994   2.516  14.965  1.6288  2.8461  1.2410
 7720TIP3   OH244650   5.033   3.769   5.727  0.3126 -0.4602  0.0110
 7720TIP3    H144651   5.073   3.758   5.640  0.6819  0.5646  0.0461
 7720TIP3    H244652   4.985   3.687   5.741 -0.2682 -0.3902 -1.4335
 7721TIP3   OH244653   6.209   6.214  14.790 -0.1488  0.5579 -0.0540
 7721TIP3    H144654   6.156   6.148  14.834  0.7084  1.2554  2.0541
 7721TIP3    H244655   6.147   6.257  14.730 -1.3110 -0.4344  0.3979
 7722TIP3   OH244656   0.037   3.452   3.101  0.2074 -0.5090 -0.0647
 7722TIP3    H144657   0.091   3.511   3.048  1.3456  0.1328  1.7580
 7722TIP3    H244658   0.076   3.366   3.088 -0.4509 -0.5920 -1.4607
 7723TIP3   OH244659   6.069   5.465   5.520  0.5210  0.0558 -0.2621
 7723TIP3    H144660   6.089   5.460   5.426  1.1938 -0.6129 -0.0854
 7723TIP3    H244661   6.122   5.538   5.552 -1.9006  2.2302 -0.9377
 7724TIP3   OH244662   4.481   2.769   3.949  0.2162  0.5456 -0.3019
 7724TIP3    H144663   4.467   2.679   3.920 -0.5667  0.6636 -0.3214
 7724TIP3    H244664   4.393   2.808   3.946 -0.0530  0.3229  3.1101
 7725TIP3   OH244665   2.070   5.022   1.360  0.2982  0.0830  0.2759
 7725TIP3    H144666   1.997   5.018   1.299  0.3744  2.1512  0.0303
 7725TIP3    H244667   2.107   4.934   1.358  0.4237  0.1573 -2.8439
 7726TIP3   OH244668   3.556   1.303  15.188 -0.1210  0.9152 -0.3087
 7726TIP3    H144669   3.529   1.317  15.279  1.1232  0.8493  0.0726
 7726TIP3    H244670   3.584   1.212  15.185 -1.0128  0.6632 -0.9773
 7727TIP3   OH244671   5.958   6.289  17.079 -0.1673 -0.3255  0.3649
 7727TIP3    H144672   6.007   6.364  17.043 -0.7166 -0.8138 -1.4708
 7727TIP3    H244673   5.970   6.296  17.173  1.6546  0.8088  0.0901
 7728TIP3   OH244674   3.898   5.577   3.608  0.2268 -0.2150 -0.0372
 7728TIP3    H144675   3.968   5.528   3.565  0.5585 -1.0673  1.4385
 7728TIP3    H244676   3.818   5.547   3.565  0.5998 -0.6191 -0.4570
 7729TIP3   OH244677   5.703   0.686  17.109 -0.3074  0.2317  0.2710
 7729TIP3    H144678   5.742   0.635  17.180 -1.1987 -0.8553 -0.0074
 7729TIP3    H244679   5.644   0.747  17.153  0.6199  0.9043  0.5938
 7730TIP3   OH244680   5.503   2.301   0.856  0.2021 -0.3657 -0.2831
 7730TIP3    H144681   5.581   2.247   0.844 -1.7394 -3.0524 -1.2683
 7730TIP3    H244682   5.487   2.300   0.951  1.4553  0.3883 -0.0513
 7731TIP3   OH244683   3.453   6.328  11.235  0.1073 -0.0653 -0.3691
 7731TIP3    H144684   3.368   6.372  11.245 -0.8366 -1.7412 -0.9428
 7731TIP3    H244685   3.505   6.360  11.309 -0.9998  1.0202 -0.0455
 7732TIP3   OH244686   0.116   3.277  10.346  0.2956  0.0665  0.1159
 7732TIP3    H144687   0.066   3.358  10.350 -0.6108 -0.4704 -0.1034
 7732TIP3    H244688   0.050   3.208  10.358  1.0703 -0.6261  0.4065
 7733TIP3   OH244689   1.393   5.200  11.509  0.2587  0.2349  0.3516
 7733TIP3    H144690   1.451   5.274  11.524 -0.2760  0.9814 -1.1673
 7733TIP3    H244691   1.394   5.152  11.591  1.3263  1.4237  1.0523
 7734TIP3   OH244692   1.850   5.238  11.878  0.3529  0.2202 -0.0575
 7734TIP3    H144693   1.839   5.291  11.957 -2.6252  0.9887 -0.9256
 7734TIP3    H244694   1.945   5.233  11.865  0.8037  1.9943  2.2615
 7735TIP3   OH244695   3.478   6.779  14.687  0.6157  0.1556  0.1773
 7735TIP3    H144696   3.502   6.699  14.641  2.0049 -0.0301  1.1869
 7735TIP3    H244697   3.558   6.832  14.687  0.2820  0.6793  1.2798
 7736TIP3   OH244698   5.610   5.737   2.682  0.0499 -0.6680 -0.3910
 7736TIP3    H144699   5.705   5.735   2.692  0.0416  0.3996 -0.1096
 7736TIP3    H244700   5.594   5.789   2.603 -0.3902  1.1665  0.8861
 7737TIP3   OH244701   5.317   5.858  16.993  0.1402  0.3555  0.2172
 7737TIP3    H144702   5.359   5.790  16.941 -0.5427  1.2281 -1.5287
 7737TIP3    H244703   5.303   5.819  17.079  1.2682 -1.1273 -0.2693
 7738TIP3   OH244704   3.726   6.282  10.630  0.1189  0.0350  0.5142
 7738TIP3    H144705   3.783   6.338  10.684 -0.8151  2.7016 -1.1715
 7738TIP3    H244706   3.735   6.317  10.542 -3.4168 -0.0546  0.0655
 7739TIP3   OH244707   2.126   5.981   2.016  0.2765  0.0554  0.1933
 7739TIP3    H144708   2.094   6.055   1.964  0.9743 -0.1744 -0.5820
 7739TIP3    H244709   2.214   5.964   1.981 -0.3452 -1.9200 -0.4433
 7740TIP3   OH244710   5.841   4.213   1.135  0.1034 -0.3010  0.6418
 7740TIP3    H144711   5.812   4.269   1.063  1.2708 -0.1930  0.2463
 7740TIP3    H244712   5.891   4.270   1.193  2.9555 -1.2757 -0.7494
 7741TIP3   OH244713   4.739   4.942   4.259  0.1290 -0.0345  0.1235
 7741TIP3    H144714   4.779   4.889   4.327 -0.3357 -1.3708 -0.6408
 7741TIP3    H244715   4.805   5.008   4.238  1.5549 -1.6070 -0.4287
 7742TIP3   OH244716   4.767   5.361  13.622  0.5564 -0.7029 -0.1682
 7742TIP3    H144717   4.795   5.438  13.673  1.0785 -1.4707  0.7264
 7742TIP3    H244718   4.822   5.363  13.544  0.2299  0.1088 -0.3855
 7743TIP3   OH244719   5.808   0.349  12.525  0.6159 -0.0142  0.7845
 7743TIP3    H144720   5.756   0.295  12.464  1.7021  0.1285 -0.2998
 7743TIP3    H244721   5.863   0.286  12.571 -0.5384 -0.1714  1.9750
 7744TIP3   OH244722   1.338   4.340   1.905 -0.2512 -0.0195 -0.1310
 7744TIP3    H144723   1.330   4.260   1.958 -0.4605 -0.5355 -0.9312
 7744TIP3    H244724   1.304   4.409   1.961  0.5301 -0.3907  0.8131
 7745TIP3   OH244725   2.219   0.831   6.495 -0.2407 -0.4356  0.0321
 7745TIP3    H144726   2.133   0.816   6.533 -0.3005 -0.2661 -0.0392
 7745TIP3    H244727   2.277   0.772   6.544 -0.3219 -0.2315  0.3749
 7746TIP3   OH244728   4.777   0.395   4.671  0.7787 -0.5471 -0.1717
 7746TIP3    H144729   4.712   0.325   4.661  1.3799 -1.1712  0.2184
 7746TIP3    H244730   4.750   0.443   4.749  1.3899 -1.4689  0.6118
 7747TIP3   OH244731   3.469   0.569  11.250  0.5920  0.1443  0.1254
 7747TIP3    H144732   3.443   0.512  11.178  0.6754 -1.6959  1.5233
 7747TIP3    H244733   3.563   0.555  11.259  0.0799 -1.9408  2.5365
 7748TIP3   OH244734   1.741   6.399   5.277 -0.1415  0.2854  0.4657
 7748TIP3    H144735   1.727   6.489   5.308  1.5640  0.8575 -0.3856
 7748TIP3    H244736   1.817   6.368   5.325 -0.4380 -0.5359  0.4100
 7749TIP3   OH244737   5.528   2.670   0.098  0.5960 -0.3363 -0.0168
 7749TIP3    H144738   5.601   2.674   0.160 -0.0892 -0.8137  0.8297
 7749TIP3    H244739   5.569   2.682   0.012  1.4324  1.4562  0.5973
 7750TIP3   OH244740   0.628   6.342  14.058  0.0459  0.5563  0.0017
 7750TIP3    H144741   0.570   6.356  13.984 -0.0871 -1.3730 -0.2922
 7750TIP3    H244742   0.683   6.420  14.062  0.8300  0.1892 -2.8425
 7751TIP3   OH244743   2.189   6.464  14.215 -0.2547 -0.2291 -0.4660
 7751TIP3    H144744   2.103   6.421  14.220 -0.2551 -0.6188 -3.2106
 7751TIP3    H244745   2.170   6.551  14.180  0.4110 -0.1362 -0.5909
 7752TIP3   OH244746   5.488   0.099  11.362 -0.2088  0.5679  0.0857
 7752TIP3    H144747   5.550   0.170  11.344 -1.3387  1.1401 -1.7351
 7752TIP3    H244748   5.535   0.019  11.337  0.2077  0.8956 -0.1864
 7753TIP3   OH244749   3.800   5.784   4.431  0.2637 -0.2657 -0.2463
 7753TIP3    H144750   3.760   5.871   4.425  0.9734 -0.0192 -1.8118
 7753TIP3    H244751   3.729   5.724   4.410 -0.0572 -0.0109  0.1132
 7754TIP3   OH244752   0.781   5.947  16.338 -0.5278 -0.0957  0.1225
 7754TIP3    H144753   0.790   6.039  16.363  0.2763  0.3413 -1.6844
 7754TIP3    H244754   0.687   5.936  16.323 -0.5152  0.6931 -0.5855
 7755TIP3   OH244755   6.349   4.903   4.867 -0.3795  0.1009 -0.2389
 7755TIP3    H144756   6.259   4.895   4.899 -0.1352 -0.7485  0.2554
 7755TIP3    H244757   6.340   4.905   4.771 -0.8479 -1.1186 -0.2330
 7756TIP3   OH244758   5.239   0.578  15.523 -0.1600  0.2664  0.1203
 7756TIP3    H144759   5.312   0.631  15.492 -0.1131  0.1825  0.0871
 7756TIP3    H244760   5.164   0.638  15.522 -0.7123 -0.4128 -2.6596
 7757TIP3   OH244761   5.515   2.238   4.182  0.9754 -0.4566  0.4901
 7757TIP3    H144762   5.532   2.225   4.089 -0.0194 -0.4214  0.3009
 7757TIP3    H244763   5.557   2.164   4.225 -0.3156 -1.5700 -0.1528
 7758TIP3   OH244764   2.543   3.310  17.121 -0.1815  0.3583  0.5744
 7758TIP3    H144765   2.580   3.396  17.139  0.1859  0.2847  0.1811
 7758TIP3    H244766   2.576   3.287  17.034  0.4522 -0.5776  1.0550
 7759TIP3   OH244767   5.727   5.438   4.361  0.4639 -0.2223 -0.4696
 7759TIP3    H144768   5.754   5.530   4.362  0.9516 -0.3494 -1.3300
 7759TIP3    H244769   5.808   5.389   4.353  0.2600 -0.7648  0.6586
 7760TIP3   OH244770   6.447   3.314  14.198 -0.0544  0.1476 -0.2338
 7760TIP3    H144771   6.358   3.342  14.176 -0.0761  0.7425  0.6217
 7760TIP3    H244772   6.495   3.395  14.213  0.2707 -0.2123  0.7052
 7761TIP3   OH244773   0.360   0.478   4.030  0.5555 -0.8982 -0.0558
 7761TIP3    H144774   0.388   0.387   4.022 -1.7801 -1.7767  1.1216
 7761TIP3    H244775   0.264   0.474   4.026  0.3776  1.4139  0.8668
 7762TIP3   OH244776   1.849   6.809   2.858 -0.1553 -0.0325  0.6872
 7762TIP3    H144777   1.871   6.880   2.919  1.1500  0.1357  0.0371
 7762TIP3    H244778   1.755   6.820   2.841  0.2931  2.3477 -0.4154
 7763TIP3   OH244779   0.102   6.256  12.883 -0.0899 -0.3028 -0.0730
 7763TIP3    H144780   0.093   6.228  12.974  1.2251 -0.5450  0.0013
 7763TIP3    H244781   0.073   6.181  12.831  0.2260 -0.5725  0.1413
 7764TIP3   OH244782   0.857   3.517   2.974  0.0972 -0.4457  0.0292
 7764TIP3    H144783   0.943   3.479   2.992 -0.3374 -1.5641 -0.1491
 7764TIP3    H244784   0.824   3.466   2.900  0.0250  1.1736 -1.0723
 7765TIP3   OH244785   5.732   1.195  11.235 -0.1472  0.5881 -0.3384
 7765TIP3    H144786   5.816   1.233  11.209  0.2076  0.5313  0.7168
 7765TIP3    H244787   5.687   1.179  11.152  0.5495  1.3685 -0.8807
 7766TIP3   OH244788   0.554   0.173  15.198  0.5043 -0.2780 -0.6120
 7766TIP3    H144789   0.543   0.246  15.138  0.4295  0.5217  0.3534
 7766TIP3    H244790   0.586   0.213  15.279  1.2584 -1.4108 -0.3262
 7767TIP3   OH244791   1.884   4.706  11.601 -0.4211  0.4092 -0.5150
 7767TIP3    H144792   1.851   4.702  11.512  1.9358 -1.9970 -1.3433
 7767TIP3    H244793   1.979   4.701  11.592 -0.1374  0.2423  2.1028
 7768TIP3   OH244794   1.972   4.131   4.333  0.1898  0.3592 -0.1646
 7768TIP3    H144795   1.913   4.064   4.298 -1.1730  1.7218 -0.5748
 7768TIP3    H244796   2.058   4.108   4.301  0.1178 -2.4010  1.4591
 7769TIP3   OH244797   0.683   4.609  17.279 -0.1044  0.3013 -0.4101
 7769TIP3    H144798   0.654   4.582  17.366  1.1864  0.2881  0.0206
 7769TIP3    H244799   0.690   4.527  17.230 -0.7506  0.3013 -0.5136
 7770TIP3   OH244800   0.542   6.653   0.265  0.0976 -0.3943 -0.4286
 7770TIP3    H144801   0.556   6.747   0.252 -1.5262 -0.0780  0.0021
 7770TIP3    H244802   0.496   6.624   0.186 -1.6604 -0.3087  0.5534
 7771TIP3   OH244803   5.168   5.223  14.056  0.4674 -0.0125  0.5606
 7771TIP3    H144804   5.249   5.206  14.104  0.1637 -1.3498  0.6301
 7771TIP3    H244805   5.197   5.267  13.976  1.3676 -1.2257  0.1888
 7772TIP3   OH244806   1.358   4.925   4.596  0.3050 -0.3964 -0.1892
 7772TIP3    H144807   1.315   4.839   4.598 -0.1001 -0.3091 -3.0529
 7772TIP3    H244808   1.290   4.985   4.568  0.1952  1.2020  3.1787
 7773TIP3   OH244809   6.359   6.636  14.851 -0.1412 -0.2647  0.6173
 7773TIP3    H144810   6.344   6.729  14.835  2.0074 -0.1517 -0.9673
 7773TIP3    H244811   6.292   6.591  14.800 -1.6169  0.3939  1.9207
 7774TIP3   OH244812   0.355   1.890  10.942  0.1022  0.2843  0.0779
 7774TIP3    H144813   0.264   1.872  10.919 -0.4179  2.2516  0.5145
 7774TIP3    H244814   0.405   1.827  10.890 -1.3646  0.8677 -2.1329
 7775TIP3   OH244815   3.934   6.668   5.657 -0.9280  0.4237 -0.2823
 7775TIP3    H144816   3.984   6.703   5.583 -0.9058 -0.7796 -0.8417
 7775TIP3    H244817   3.967   6.580   5.669 -2.8353 -0.3706 -0.6076
 7776TIP3   OH244818   2.431   6.119   6.045 -0.1587  0.2154 -0.6312
 7776TIP3    H144819   2.378   6.140   5.968 -0.7633  0.2907 -0.2032
 7776TIP3    H244820   2.435   6.023   6.046 -1.6429  0.1296  0.2093
 7777TIP3   OH244821   3.577   0.185   4.210  0.2189 -0.1370  0.4086
 7777TIP3    H144822   3.544   0.174   4.299 -0.0048  1.3148  0.5058
 7777TIP3    H244823   3.645   0.253   4.218 -0.3962  0.6111 -0.6721
 7778TIP3   OH244824   1.859   4.653   1.304  0.1624  0.3370 -0.1631
 7778TIP3    H144825   1.852   4.722   1.238  1.6518 -1.8790 -2.7480
 7778TIP3    H244826   1.776   4.605   1.297  0.0821  0.4468  0.0188
 7779TIP3   OH244827   0.749   2.273  16.350 -0.1624  0.0485 -0.3935
 7779TIP3    H144828   0.784   2.358  16.376 -0.0951 -0.7891  2.3412
 7779TIP3    H244829   0.826   2.218  16.337 -0.3023 -0.5255  1.1601
 7780TIP3   OH244830   3.127   0.683   3.467 -0.1447 -0.3719 -0.0062
 7780TIP3    H144831   3.056   0.746   3.453  0.2866 -0.4164 -2.5949
 7780TIP3    H244832   3.202   0.737   3.493 -0.2116  0.0300 -0.6289
 7781TIP3   OH244833   3.111   5.234  15.262 -0.1168 -0.2973  0.4648
 7781TIP3    H144834   3.109   5.321  15.301 -1.0485 -0.7805  1.4932
 7781TIP3    H244835   3.090   5.174  15.333 -0.3693 -1.3063 -0.4355
 7782TIP3   OH244836   3.665   2.331  10.876  0.0192 -0.3647  0.7019
 7782TIP3    H144837   3.637   2.393  10.809 -0.7624 -1.1652  0.2694
 7782TIP3    H244838   3.599   2.262  10.873  0.4679 -0.8436  1.6899
 7783TIP3   OH244839   1.842   1.170  17.243 -0.5310  0.7006  0.0558
 7783TIP3    H144840   1.936   1.153  17.251 -0.7227 -0.5733 -0.2330
 7783TIP3    H244841   1.814   1.197  17.330  0.0597  0.8460  0.2011
 7784TIP3   OH244842   3.832   3.579   1.401 -0.7597  0.7894 -0.7226
 7784TIP3    H144843   3.757   3.519   1.401 -1.5101  1.7159 -0.1861
 7784TIP3    H244844   3.901   3.530   1.358 -1.0294 -0.8969  0.6955
 7785TIP3   OH244845   4.846   6.817  16.836  0.2002 -0.2138 -0.1333
 7785TIP3    H144846   4.776   6.848  16.893  0.6248 -1.0109  0.8345
 7785TIP3    H244847   4.802   6.756  16.776  0.0004 -0.4813  0.2803
 7786TIP3   OH244848   3.624   2.518  17.003  0.2566 -0.4765 -0.4793
 7786TIP3    H144849   3.546   2.468  17.029  0.2875 -0.1809  0.2079
 7786TIP3    H244850   3.596   2.609  17.007 -0.0668 -0.4514 -2.6150
 7787TIP3   OH244851   5.069   3.648  12.906  0.3400  0.2757  0.5280
 7787TIP3    H144852   5.020   3.659  12.824 -0.4232  0.2425  0.9795
 7787TIP3    H244853   5.002   3.635  12.973  0.8792  2.0378  1.4457
 7788TIP3   OH244854   2.339   5.060   4.787 -0.5752  0.5016 -0.2963
 7788TIP3    H144855   2.374   4.982   4.745  1.1640  1.3165 -0.3848
 7788TIP3    H244856   2.244   5.045   4.790  0.0288 -3.3614  3.2540
 7789TIP3   OH244857   4.959   1.010  13.105 -0.3567 -0.0723  0.3788
 7789TIP3    H144858   4.958   1.091  13.054  0.8058 -0.7455 -0.7368
 7789TIP3    H244859   4.898   1.027  13.177 -0.8122  1.4665 -0.3366
 7790TIP3   OH244860   4.688   0.286  10.888  0.3718  0.6398  0.3552
 7790TIP3    H144861   4.610   0.244  10.850 -0.4139  1.4320  1.0615
 7790TIP3    H244862   4.740   0.313  10.813  0.9482 -1.6899 -0.1221
 7791TIP3   OH244863   0.855   5.726   2.676 -0.3516 -0.2588 -0.7082
 7791TIP3    H144864   0.925   5.747   2.738 -0.9881 -0.2369 -0.0058
 7791TIP3    H244865   0.901   5.681   2.604  0.1505 -1.7507  0.5247
 7792TIP3   OH244866   3.717   2.163   2.541 -0.4516  0.4284  0.4071
 7792TIP3    H144867   3.731   2.217   2.619 -0.8192  0.8064  0.2153
 7792TIP3    H244868   3.735   2.223   2.468  0.3539 -0.0514  0.2029
 7793TIP3   OH244869   1.085   6.402   4.081 -0.7629 -0.2626 -0.3549
 7793TIP3    H144870   1.010   6.392   4.139 -0.9798 -2.6464 -0.9702
 7793TIP3    H244871   1.158   6.422   4.139 -1.4807 -0.0074  0.4747
 7794TIP3   OH244872   0.016   3.277   1.901  0.0512 -0.1226  0.3023
 7794TIP3    H144873  -0.034   3.247   1.977  1.8343 -0.4826  1.3502
 7794TIP3    H244874   0.056   3.359   1.929  1.2707 -0.6031  0.0019
 7795TIP3   OH244875   4.566   6.132   3.038 -0.1975 -0.1367 -1.0441
 7795TIP3    H144876   4.553   6.057   3.096  2.3865 -1.5019 -2.1607
 7795TIP3    H244877   4.572   6.207   3.098 -2.6953 -0.7673  0.0834
 7796TIP3   OH244878   3.967   0.238   2.577 -0.7287 -0.6479  0.3556
 7796TIP3    H144879   3.962   0.146   2.605 -0.1176 -0.6166  0.5738
 7796TIP3    H244880   3.918   0.286   2.644  1.0926 -0.5204  1.6483
 7797TIP3   OH244881   6.749   1.703  14.013 -0.1675 -0.0094 -0.2926
 7797TIP3    H144882   6.821   1.668  14.066  0.1295 -3.5515 -2.7932
 7797TIP3    H244883   6.792   1.762  13.951  0.0251  1.0259  0.8199
 7798TIP3   OH244884   1.732   3.446  15.842 -0.3285 -0.3828  0.1255
 7798TIP3    H144885   1.786   3.368  15.846 -0.8370 -0.7755 -0.5265
 7798TIP3    H244886   1.643   3.414  15.855 -0.3726  0.3179  1.6941
 7799TIP3   OH244887   0.040   6.763  13.076  0.5724  0.0478 -0.6388
 7799TIP3    H144888  -0.009   6.756  13.157  0.0422  0.9174 -0.8843
 7799TIP3    H244889   0.127   6.794  13.102  0.2539  0.7902 -0.4497
 7800TIP3   OH244890   2.458   1.127   5.584 -0.2319 -0.1716  0.2710
 7800TIP3    H144891   2.395   1.186   5.540  0.0109 -0.0260  0.1159
 7800TIP3    H244892   2.416   1.106   5.667 -0.5807 -0.2395  0.0829
 7801TIP3   OH244893   2.456   5.989  12.367 -0.6642 -0.6707 -0.9064
 7801TIP3    H144894   2.430   6.061  12.311  2.0776  1.3329  0.2909
 7801TIP3    H244895   2.528   5.947  12.320 -0.6151 -1.0950 -0.4545
 7802TIP3   OH244896   2.401   3.010   5.377 -0.1795  0.0485 -0.3593
 7802TIP3    H144897   2.376   2.921   5.352 -0.0962 -0.1002  0.0690
 7802TIP3    H244898   2.475   3.031   5.320  1.2605 -1.0235  1.0734
 7803TIP3   OH244899   5.650   6.537   4.811 -0.5880  0.0458 -0.3682
 7803TIP3    H144900   5.640   6.531   4.716  1.9047 -0.5805 -0.6398
 7803TIP3    H244901   5.636   6.629   4.832  1.5636  0.7061 -1.7299
 7804TIP3   OH244902   1.529   2.829  11.177 -0.2255 -0.0516 -0.1174
 7804TIP3    H144903   1.441   2.805  11.148  0.3310  1.2146 -3.0149
 7804TIP3    H244904   1.588   2.786  11.115  1.0950  1.3867  0.1020
 7805TIP3   OH244905   4.067   1.777   4.632 -0.0818  0.4790 -0.1264
 7805TIP3    H144906   4.054   1.856   4.579  0.0512 -0.1483 -1.1272
 7805TIP3    H244907   3.981   1.736   4.635 -0.0521  0.4266 -0.0017
 7806TIP3   OH244908   3.236   6.666  15.531 -0.4156 -0.0886  0.2818
 7806TIP3    H144909   3.321   6.643  15.494  0.0468  0.8515  0.7331
 7806TIP3    H244910   3.225   6.608  15.606 -0.3870 -0.5456 -0.0711
 7807TIP3   OH244911   3.734   1.441   3.200 -0.0061 -0.1334  0.3309
 7807TIP3    H144912   3.819   1.434   3.156  0.3661 -1.9541  1.3021
 7807TIP3    H244913   3.675   1.391   3.144 -0.4261  0.9792 -0.2453
 7808TIP3   OH244914   0.340   3.561   2.389  0.0675  0.2493  0.7004
 7808TIP3    H144915   0.246   3.567   2.407 -0.2342  0.6891 -0.8823
 7808TIP3    H244916   0.345   3.524   2.301  1.3215  1.8605  0.0491
 7809TIP3   OH244917   2.816   2.671  11.669 -0.3120 -0.1515 -0.4637
 7809TIP3    H144918   2.852   2.583  11.682 -2.3221 -0.9592 -0.0624
 7809TIP3    H244919   2.891   2.725  11.647  0.8253 -2.2035 -1.8129
 7810TIP3   OH244920   3.223   4.768   1.899 -0.1978 -0.3723 -0.1246
 7810TIP3    H144921   3.162   4.728   1.836 -1.0726  0.9619 -0.1347
 7810TIP3    H244922   3.231   4.859   1.870  1.1067 -0.3151  0.4131
 7811TIP3   OH244923   2.189   4.905  13.701 -0.4434 -0.8236 -0.5016
 7811TIP3    H144924   2.242   4.977  13.735 -0.7074 -0.8463 -0.0382
 7811TIP3    H244925   2.216   4.829  13.752 -0.4848 -0.9602 -0.6857
 7812TIP3   OH244926   6.549   3.627   5.405 -0.0437 -0.3287  0.3977
 7812TIP3    H144927   6.508   3.610   5.320 -0.4297 -0.3865  0.5916
 7812TIP3    H244928   6.475   3.649   5.462  0.2422 -0.0287  0.6509
 7813TIP3   OH244929   2.257   3.584   2.550 -0.2879  0.2989 -0.0080
 7813TIP3    H144930   2.241   3.618   2.638  0.7127  0.9345 -0.0570
 7813TIP3    H244931   2.302   3.655   2.505 -0.7931 -0.0264 -1.0358
 7814TIP3   OH244932   4.187   4.894   1.848 -0.3910  0.5907 -0.0882
 7814TIP3    H144933   4.200   4.836   1.773 -1.2808 -2.0756  1.7393
 7814TIP3    H244934   4.101   4.869   1.883 -1.3176  3.8009  0.1163
 7815TIP3   OH244935   3.870   4.948   3.814 -0.4409 -0.2673 -0.0386
 7815TIP3    H144936   3.960   4.935   3.784 -0.4505  0.7999 -0.5645
 7815TIP3    H244937   3.816   4.901   3.751 -0.3774  0.8956 -0.9861
 7816TIP3   OH244938   1.856   6.032   1.661 -0.1202 -0.5645  0.1196
 7816TIP3    H144939   1.764   6.047   1.640 -0.4432  0.7191  2.2346
 7816TIP3    H244940   1.904   6.066   1.585 -1.3455 -0.0947 -0.4596
 7817TIP3   OH244941   3.661   3.795  16.314  0.3168 -0.0885 -0.6978
 7817TIP3    H144942   3.595   3.848  16.270  1.6813  1.9098 -0.4060
 7817TIP3    H244943   3.698   3.739  16.245 -0.0022  0.4993 -1.3437
 7818TIP3   OH244944   3.217   0.073   2.562 -0.4739  0.3896 -0.8426
 7818TIP3    H144945   3.170   0.020   2.626  1.9394 -3.8133 -2.3862
 7818TIP3    H244946   3.291   0.111   2.610 -0.6442  0.1373 -0.3813
 7819TIP3   OH244947   3.589   0.778  11.446 -0.0527  0.2958  0.3838
 7819TIP3    H144948   3.532   0.707  11.416 -0.5877 -0.4699  3.0858
 7819TIP3    H244949   3.535   0.856  11.438  0.2201  0.3168 -1.6991
 7820TIP3   OH244950   0.103   6.541   3.637 -0.1610 -0.2747 -0.7076
 7820TIP3    H144951   0.120   6.630   3.667 -0.2749 -0.7946  0.9491
 7820TIP3    H244952   0.093   6.549   3.542 -1.4281  1.6803 -0.4362
 7821TIP3   OH244953   0.789   4.424  15.998 -0.5081  0.4309  0.0649
 7821TIP3    H144954   0.786   4.446  15.905 -0.0605  0.7577  0.1291
 7821TIP3    H244955   0.765   4.505  16.043 -0.0118  0.4708  0.2584
 7822TIP3   OH244956   4.554   4.051  13.503  0.3935 -0.3938 -0.0656
 7822TIP3    H144957   4.472   4.097  13.483 -0.4762 -1.8989 -0.0959
 7822TIP3    H244958   4.547   4.028  13.595  0.8596 -0.3875 -0.0288
 7823TIP3   OH244959   6.166   6.514  17.136 -0.6553 -0.2007 -0.0447
 7823TIP3    H144960   6.124   6.560  17.063 -1.6109 -0.9309  0.0459
 7823TIP3    H244961   6.138   6.561  17.214 -1.2556 -0.6416  0.0090
 7824TIP3   OH244962   6.484   5.611  12.834  0.5361  0.1539 -0.2777
 7824TIP3    H144963   6.509   5.575  12.749 -0.6058 -0.4707 -0.3602
 7824TIP3    H244964   6.552   5.580  12.894 -1.3127 -3.6389 -0.0069
 7825TIP3   OH244965   1.613   4.506   1.334 -0.2233 -0.3328  0.0762
 7825TIP3    H144966   1.555   4.430   1.337 -0.3661 -0.2826 -1.3927
 7825TIP3    H244967   1.569   4.572   1.388 -0.3254 -1.1252  0.9672
 7826TIP3   OH244968   1.003   4.161  13.163 -0.4762 -0.1658  0.1771
 7826TIP3    H144969   0.929   4.173  13.222 -1.4005  0.1432 -1.0268
 7826TIP3    H244970   0.979   4.087  13.108  0.7444 -0.9886  0.7228
 7827TIP3   OH244971   3.872   6.217   0.213 -0.6457  0.2752  0.0581
 7827TIP3    H144972   3.864   6.192   0.305 -3.1908 -1.5132 -0.5893
 7827TIP3    H244973   3.954   6.177   0.184 -1.4126 -1.8609  0.7521
 7828TIP3   OH244974   1.590   6.446   3.569  0.2046  0.3622 -0.4071
 7828TIP3    H144975   1.502   6.425   3.538  1.0098 -0.8892 -1.8926
 7828TIP3    H244976   1.601   6.539   3.548 -0.7826  0.5382 -0.1595
 7829TIP3   OH244977   1.453   2.913  13.960  0.0590  0.3146  0.2200
 7829TIP3    H144978   1.420   3.004  13.959  2.2270  1.1415  1.3178
 7829TIP3    H244979   1.493   2.903  14.046  0.8561 -1.3281 -0.3266
 7830TIP3   OH244980   2.998   2.920  13.479 -0.3627  0.6498  0.3750
 7830TIP3    H144981   2.968   3.010  13.472 -1.6254  0.2376  0.4468
 7830TIP3    H244982   2.987   2.884  13.391 -0.6442  0.3217  0.5434
 7831TIP3   OH244983   4.484   3.182   0.596  0.3799  0.2143 -0.0023
 7831TIP3    H144984   4.400   3.145   0.570  0.5927 -1.9776  2.2370
 7831TIP3    H244985   4.474   3.199   0.690  2.2803  0.3402  0.1992
 7832TIP3   OH244986   0.275   4.779   2.961  0.8206  0.3693  0.2826
 7832TIP3    H144987   0.348   4.751   3.015  1.2068 -1.1219 -0.9892
 7832TIP3    H244988   0.213   4.707   2.964  0.2742  0.8065 -0.2392
 7833TIP3   OH244989   5.905   1.300  10.876  0.2182  0.0290  0.1605
 7833TIP3    H144990   5.865   1.363  10.936 -1.5726 -1.6599  0.7631
 7833TIP3    H244991   5.860   1.314  10.793  0.6792  0.3611 -0.0387
 7834TIP3   OH244992   2.977   2.849   0.458  0.6627 -0.4595 -0.2396
 7834TIP3    H144993   2.961   2.803   0.541  0.9578 -0.7269 -0.3286
 7834TIP3    H244994   2.890   2.866   0.422  0.5425 -0.5896 -0.0100
 7835TIP3   OH244995   2.228   5.240  13.539 -0.3493  0.4436 -0.6398
 7835TIP3    H144996   2.163   5.171  13.525  0.5891 -0.0635 -2.7923
 7835TIP3    H244997   2.208   5.305  13.471 -0.9953  2.1324  1.1332
 7836TIP3   OH244998   2.236   3.601  13.954  0.0131  0.2190 -0.0522
 7836TIP3    H144999   2.308   3.547  13.985 -0.4891 -0.2461  0.3121
 7836TIP3    H245000   2.185   3.621  14.032 -0.6516 -0.0521 -0.4076
 7837TIP3   OH245001   4.007   5.350   3.433  0.2787 -0.4782 -0.0533
 7837TIP3    H145002   4.053   5.352   3.349 -0.2389 -0.7155 -0.3466
 7837TIP3    H245003   4.076   5.337   3.498  0.4565 -2.4640 -0.6244
 7838TIP3   OH245004   2.990   5.360  11.566  0.0383  0.1144  0.1631
 7838TIP3    H145005   2.913   5.394  11.613 -0.3704 -0.0243 -0.4039
 7838TIP3    H245006   2.954   5.318  11.488  0.7303  0.5082 -0.3754
 7839TIP3   OH245007   5.342   4.310  15.261  0.2772  0.1630  0.4906
 7839TIP3    H145008   5.335   4.215  15.253  0.1056  0.1588  0.6909
 7839TIP3    H245009   5.421   4.332  15.211 -0.7136  0.1328 -1.1243
 7840TIP3   OH245010   1.641   0.768   1.111  0.2192  0.0341 -0.4737
 7840TIP3    H145011   1.648   0.764   1.207 -1.6437  1.1877 -0.2495
 7840TIP3    H245012   1.597   0.687   1.087  0.1401  0.0155 -0.2703
 7841TIP3   OH245013   0.974   4.392  12.889  0.0319 -0.3659 -0.0377
 7841TIP3    H145014   0.895   4.447  12.888 -0.2451 -0.7774 -0.7037
 7841TIP3    H245015   0.968   4.343  12.971  0.4358  0.8200  0.7157
 7842TIP3   OH245016   4.616   4.555   0.121 -0.2257  0.5653 -0.5586
 7842TIP3    H145017   4.656   4.489   0.065 -0.9337  0.9927 -1.5731
 7842TIP3    H245018   4.543   4.589   0.070  0.0529  2.0445  0.0181
 7843TIP3   OH245019   5.373   2.930  16.219 -0.0312  0.4549  0.2203
 7843TIP3    H145020   5.458   2.887  16.209 -1.5833 -2.2525 -1.9090
 7843TIP3    H245021   5.309   2.859  16.218 -2.3800  2.4493  1.6575
 7844TIP3   OH245022   5.575   2.261   1.453 -0.1274  0.3733 -0.1078
 7844TIP3    H145023   5.611   2.343   1.420 -1.8967  0.7881 -1.0459
 7844TIP3    H245024   5.541   2.284   1.540 -0.4819  0.5939 -0.3047
 7845TIP3   OH245025   0.392   3.505   3.997  0.4869 -0.4363  0.1702
 7845TIP3    H145026   0.438   3.578   3.956  0.8473 -1.3119 -1.0113
 7845TIP3    H245027   0.426   3.502   4.087  3.0009 -1.2580 -0.7634
 7846TIP3   OH245028   6.023   1.806   2.137  0.4248 -0.5997  0.4826
 7846TIP3    H145029   6.044   1.717   2.111 -1.9991 -0.6279 -1.5837
 7846TIP3    H245030   6.052   1.860   2.064 -1.1814 -0.0655  0.2115
 7847TIP3   OH245031   4.655   2.759  11.516  0.4018 -0.5668  0.4190
 7847TIP3    H145032   4.671   2.665  11.529 -0.2556 -0.9214 -1.1312
 7847TIP3    H245033   4.582   2.762  11.454  2.8859  0.9407 -2.5508
 7848TIP3   OH245034   4.388   4.285   3.058  0.2683  0.4532 -0.2169
 7848TIP3    H145035   4.459   4.267   2.996 -2.3101 -0.6740 -2.9622
 7848TIP3    H245036   4.372   4.200   3.100  1.1696  0.9365  1.1474
 7849TIP3   OH245037   4.739   6.150  12.434 -0.1165 -0.4584 -0.5631
 7849TIP3    H145038   4.650   6.133  12.405 -0.1275 -1.0633 -0.1872
 7849TIP3    H245039   4.792   6.084  12.389  0.0900 -0.3200 -0.5214
 7850TIP3   OH245040   0.276   0.295   3.667  0.1964 -0.2368 -0.0649
 7850TIP3    H145041   0.225   0.296   3.747  2.2615  1.6499  1.2805
 7850TIP3    H245042   0.276   0.203   3.640 -0.4321 -0.9129  2.1405
 7851TIP3   OH245043   6.147   0.163   3.740 -0.8396  0.2126 -0.2809
 7851TIP3    H145044   6.084   0.196   3.677  0.3119  2.5792 -0.2439
 7851TIP3    H245045   6.227   0.147   3.689 -1.1101 -1.7040 -0.1351
 7852TIP3   OH245046   3.051   3.706  13.872  0.1038  0.1022  0.5392
 7852TIP3    H145047   3.033   3.612  13.870 -1.1912  0.3556 -0.4469
 7852TIP3    H245048   2.994   3.739  13.942  0.6242  0.1401  0.9433
 7853TIP3   OH245049   0.203   2.296   2.456  0.0263  0.3850  0.2123
 7853TIP3    H145050   0.269   2.361   2.477 -0.0741  0.7141 -0.4836
 7853TIP3    H245051   0.121   2.344   2.451  0.0245  0.3077 -0.7944
 7854TIP3   OH245052   3.580   3.683   4.192 -0.3250  0.0364  0.0429
 7854TIP3    H145053   3.510   3.727   4.144 -0.1245  0.0333 -0.2531
 7854TIP3    H245054   3.579   3.724   4.278  1.1355  1.9914 -0.8418
 7855TIP3   OH245055   1.352   5.963   0.915  0.7821 -0.0297  0.2060
 7855TIP3    H145056   1.366   5.984   0.823 -1.4097  0.5386 -0.0283
 7855TIP3    H245057   1.345   6.048   0.958  1.9078 -0.2911  0.9190
 7856TIP3   OH245058   2.819   4.278  11.061 -0.5821  0.5644  0.3761
 7856TIP3    H145059   2.827   4.193  11.019 -0.1093  0.7096  0.1742
 7856TIP3    H245060   2.763   4.329  11.003  1.6028  1.3877 -1.0501
 7857TIP3   OH245061   0.505   4.942   0.767  0.0225  0.0886  0.0980
 7857TIP3    H145062   0.460   4.929   0.683 -0.3878  0.3320  0.2808
 7857TIP3    H245063   0.485   5.033   0.791 -3.6955 -1.3405  2.7334
 7858TIP3   OH245064   1.907   2.664  13.615  1.0269 -0.7044 -0.5153
 7858TIP3    H145065   1.981   2.723  13.621  1.6375 -1.5867  0.7101
 7858TIP3    H245066   1.922   2.615  13.534  1.7639 -0.8640 -0.2782
 7859TIP3   OH245067   4.963   0.735   5.508 -0.2555 -0.0835 -0.2989
 7859TIP3    H145068   4.922   0.679   5.574 -1.2609 -0.3391 -1.1101
 7859TIP3    H245069   4.896   0.800   5.487  0.3141  0.4304 -0.5505
 7860TIP3   OH245070   5.599   0.522  15.353  0.4362 -0.1237 -0.2225
 7860TIP3    H145071   5.670   0.498  15.412 -0.1025 -0.6329  0.2292
 7860TIP3    H245072   5.582   0.443  15.302 -1.7161 -0.9382  1.6591
 7861TIP3   OH245073   5.044   5.614   4.976  0.3271 -0.3210 -0.3833
 7861TIP3    H145074   5.092   5.696   4.988 -0.3159  0.1075 -0.6998
 7861TIP3    H245075   4.956   5.632   5.010  0.4999 -1.2196  0.5444
 7862TIP3   OH245076   6.223   4.280  17.023 -0.4085  0.4374 -0.5769
 7862TIP3    H145077   6.226   4.185  17.036 -0.6699  0.3562 -1.1151
 7862TIP3    H245078   6.214   4.316  17.112  0.4234 -0.0055 -0.3169
 7863TIP3   OH245079   1.750   4.337   5.317  0.2629  0.2332  0.1951
 7863TIP3    H145080   1.790   4.376   5.394 -1.1160 -0.9345  1.5404
 7863TIP3    H245081   1.725   4.411   5.262  1.5568  1.0555  0.7080
 7864TIP3   OH245082   2.756   1.311  12.637  0.3025  0.5421  0.2146
 7864TIP3    H145083   2.822   1.287  12.573  1.9653  0.1322  2.0472
 7864TIP3    H245084   2.711   1.229  12.657 -0.4089  0.7215 -0.6175
 7865TIP3   OH245085   1.500   4.077  13.430  0.0606 -0.6772 -0.1315
 7865TIP3    H145086   1.496   3.988  13.464 -1.9828  0.0087  1.4800
 7865TIP3    H245087   1.413   4.093  13.394  0.7854  0.2647 -1.5133
 7866TIP3   OH245088   3.013   6.641   3.046 -0.5187  0.7021  0.3397
 7866TIP3    H145089   3.067   6.630   2.967 -0.8142 -1.8320  0.4719
 7866TIP3    H245090   2.960   6.718   3.027  0.7487  1.2459 -1.1707
 7867TIP3   OH245091   3.593   0.672  16.084  0.2034  0.6680  0.0072
 7867TIP3    H145092   3.618   0.622  16.162  0.3120  0.3868 -0.2049
 7867TIP3    H245093   3.528   0.735  16.116  0.2886  0.5906  0.3373
 7868TIP3   OH245094   6.596   6.255  15.890  0.3020 -0.4364  0.4818
 7868TIP3    H145095   6.532   6.210  15.945  1.0084 -0.6953  1.1200
 7868TIP3    H245096   6.648   6.184  15.852  0.0022 -0.2443 -0.2865
 7869TIP3   OH245097   2.140   4.492   4.774 -0.0888  0.1702  0.0300
 7869TIP3    H145098   2.172   4.448   4.695 -0.4661  0.1758 -0.1277
 7869TIP3    H245099   2.104   4.575   4.742 -0.8141 -0.1068  0.1291
 7870TIP3   OH245100   6.778   0.042  12.086  0.1341  0.6601  0.2873
 7870TIP3    H145101   6.760  -0.030  12.145  3.0832  1.4831  2.2790
 7870TIP3    H245102   6.767   0.121  12.139  1.9440  1.4446 -0.4260
 7871TIP3   OH245103   5.491   4.374   4.515 -0.2430 -0.1829  0.6328
 7871TIP3    H145104   5.581   4.344   4.525  0.7442  2.3888 -0.0828
 7871TIP3    H245105   5.471   4.415   4.600 -0.0822  0.8421  0.1847
 7872TIP3   OH245106   1.060   6.094   0.105 -0.1894  0.3787  0.0480
 7872TIP3    H145107   1.076   6.187   0.121  0.9803  0.2107 -0.1015
 7872TIP3    H245108   1.140   6.063   0.063 -0.7539 -0.5985 -0.3119
 7873TIP3   OH245109   5.468   5.949  15.539  0.3511  0.7266 -0.1677
 7873TIP3    H145110   5.495   5.909  15.622 -1.0776  0.5001  0.2036
 7873TIP3    H245111   5.546   5.944  15.483  0.0415 -3.2922 -0.3904
 7874TIP3   OH245112   2.223   5.086  11.589  0.5623  0.0827  0.9511
 7874TIP3    H145113   2.183   5.075  11.503  0.2681  0.9408  0.9753
 7874TIP3    H245114   2.266   5.002  11.606 -1.1146 -0.8027  0.8857
 7875TIP3   OH245115   1.207   4.134  13.412  0.3233 -0.9231  0.1734
 7875TIP3    H145116   1.123   4.100  13.380 -1.0415  1.3737  1.1975
 7875TIP3    H245117   1.205   4.119  13.507 -0.2172  1.7087  0.6208
 7876TIP3   OH245118   4.596   4.416  14.813 -0.3762 -0.4475 -0.5021
 7876TIP3    H145119   4.513   4.406  14.860 -1.6828  3.5372 -1.7876
 7876TIP3    H245120   4.588   4.356  14.739 -0.8606 -2.2632  0.9853
 7877TIP3   OH245121   6.181   5.273   5.705  0.0849 -0.0632  0.4329
 7877TIP3    H145122   6.117   5.296   5.638 -1.2670 -2.9398  0.6738
 7877TIP3    H245123   6.140   5.298   5.788 -0.5096 -1.4119  0.5497
 7878TIP3   OH245124   5.804   4.453  17.075  0.2499 -0.1184 -0.2067
 7878TIP3    H145125   5.843   4.402  17.146  0.8238 -0.7114 -0.9404
 7878TIP3    H245126   5.855   4.428  16.998  2.1264  3.3265 -0.1627
 7879TIP3   OH245127   6.745   6.523   1.852 -0.2409  0.3971  0.3055
 7879TIP3    H145128   6.747   6.487   1.941  0.5934 -2.2254 -0.7312
 7879TIP3    H245129   6.800   6.464   1.801 -2.1730  0.8068 -2.3605
 7880TIP3   OH245130   0.554   3.749  14.420  0.5198 -0.4505  0.1363
 7880TIP3    H145131   0.538   3.727  14.512 -0.2500  0.2471  0.1714
 7880TIP3    H245132   0.583   3.667  14.380  0.1403 -0.9283  0.8360
 7881TIP3   OH245133   5.869   6.631   1.457  0.0045 -1.1933 -0.3220
 7881TIP3    H145134   5.964   6.642   1.466  0.0835  0.4927 -2.7980
 7881TIP3    H245135   5.856   6.610   1.364 -2.0061 -1.8922  0.0931
 7882TIP3   OH245136   4.789   3.840   2.853 -0.6246 -0.0659 -0.1146
 7882TIP3    H145137   4.806   3.928   2.885 -0.1927 -0.7063  1.4799
 7882TIP3    H245138   4.856   3.786   2.895 -1.3084 -1.2658 -0.5462
 7883TIP3   OH245139   5.047   1.573   0.957 -0.2941 -0.5282  0.6601
 7883TIP3    H145140   5.061   1.652   1.009 -0.1267 -1.5874  2.2400
 7883TIP3    H245141   5.125   1.568   0.901 -0.7674  0.9442 -0.1877
 7884TIP3   OH245142   0.616   4.117   1.514  0.5129 -0.2627  0.1129
 7884TIP3    H145143   0.563   4.045   1.482 -1.0462  1.3355 -1.0277
 7884TIP3    H245144   0.566   4.153   1.588  0.3055  0.8242 -0.5366
 7885TIP3   OH245145   6.278   2.781  10.736  0.1664  0.3945  0.5906
 7885TIP3    H145146   6.252   2.689  10.741  1.4037  0.0296  0.5615
 7885TIP3    H245147   6.272   2.812  10.827  0.8772 -0.0425  0.7928
 7886TIP3   OH245148   1.104   6.289  12.338 -0.2017 -0.2042  0.5384
 7886TIP3    H145149   1.016   6.256  12.354 -0.3837 -1.9075 -3.3857
 7886TIP3    H245150   1.161   6.215  12.360 -0.0350 -0.3748 -0.4463
 7887TIP3   OH245151   6.219   1.061   5.535  0.3168  1.0405  0.5401
 7887TIP3    H145152   6.128   1.067   5.504  0.2071  0.9973  0.8507
 7887TIP3    H245153   6.228   1.134   5.597  0.4749  1.0102  0.5535
 7888TIP3   OH245154   5.699   2.052  10.742  0.1219  0.0013 -0.3418
 7888TIP3    H145155   5.637   2.083  10.808  0.5694  0.8206 -0.3065
 7888TIP3    H245156   5.659   2.075  10.658 -0.6383 -1.3958 -0.3814
 7889TIP3   OH245157   4.615   0.202   3.006 -0.0903 -0.7010  0.8562
 7889TIP3    H145158   4.670   0.275   3.035  1.0228 -0.5302 -1.5529
 7889TIP3    H245159   4.529   0.241   2.990  1.3973  1.0032 -3.9790
 7890TIP3   OH245160   4.617   4.234   4.795 -0.3713  0.1210 -0.2302
 7890TIP3    H145161   4.622   4.257   4.887  0.9131  0.3852 -0.3553
 7890TIP3    H245162   4.693   4.178   4.780 -1.2509 -0.9230 -0.8490
 7891TIP3   OH245163   3.021   5.193  11.820 -0.4506 -0.1372 -0.1972
 7891TIP3    H145164   2.991   5.244  11.744 -1.4981 -0.3139  0.0866
 7891TIP3    H245165   3.105   5.156  11.793  0.2978  1.6982 -0.4289
 7892TIP3   OH245166   0.979   0.678   6.856 -0.3158 -0.0861  0.8152
 7892TIP3    H145167   0.978   0.766   6.893  1.1249  0.2285  0.1265
 7892TIP3    H245168   0.896   0.670   6.809 -0.9472  0.4879  1.8315
 7893TIP3   OH245169   0.307   5.772   2.273  0.4014 -0.0938 -0.1881
 7893TIP3    H145170   0.296   5.849   2.328  1.1523  0.5624 -0.9340
 7893TIP3    H245171   0.219   5.751   2.242  0.0600 -0.1054  0.7573
 7894TIP3   OH245172   1.328   5.666  16.875 -0.1733 -0.3947 -0.2868
 7894TIP3    H145173   1.302   5.581  16.909 -0.7598 -0.1466 -0.1134
 7894TIP3    H245174   1.300   5.728  16.942  1.9748 -0.2226  0.5082
 7895TIP3   OH245175   6.760   4.376   2.668 -0.2706 -0.0902 -0.4417
 7895TIP3    H145176   6.829   4.338   2.723  1.7079  1.1086 -2.0455
 7895TIP3    H245177   6.779   4.470   2.667 -0.5536 -0.0254 -2.7594
 7896TIP3   OH245178   0.534   1.041  14.776 -0.1617  0.1760  0.0355
 7896TIP3    H145179   0.524   0.946  14.787 -2.9245  0.7759  3.4475
 7896TIP3    H245180   0.626   1.052  14.751  0.1387 -3.3905 -0.7963
 7897TIP3   OH245181   2.510   2.464  17.098  0.1520 -0.0690 -0.1634
 7897TIP3    H145182   2.506   2.377  17.059  0.2569  0.4569 -1.3708
 7897TIP3    H245183   2.443   2.462  17.168 -0.1151 -0.9827 -0.4377
 7898TIP3   OH245184   3.469   4.614  13.499 -0.5344 -0.0683  0.3414
 7898TIP3    H145185   3.492   4.698  13.461 -1.6768 -0.2155 -0.7073
 7898TIP3    H245186   3.421   4.568  13.430 -4.6456  0.5046  2.6445
 7899TIP3   OH245187   2.428   2.005  14.848 -0.0294  0.0494 -0.1021
 7899TIP3    H145188   2.408   1.919  14.813  0.8370  0.4998 -1.7383
 7899TIP3    H245189   2.363   2.019  14.916 -1.3887 -1.0667 -1.1538
 7900TIP3   OH245190   3.525   3.507  13.218 -0.8798  0.2459  0.2112
 7900TIP3    H145191   3.486   3.450  13.151 -1.0085 -0.5387  0.9469
 7900TIP3    H245192   3.618   3.482  13.218 -1.0346 -0.3616  0.9133
 7901TIP3   OH245193   4.860   6.538  16.319  0.0664  0.0812  0.1301
 7901TIP3    H145194   4.851   6.500  16.231  1.1375  0.7758 -0.2891
 7901TIP3    H245195   4.944   6.505  16.350 -0.0847  0.2334  0.6946
 7902TIP3   OH245196   2.499   3.769  15.220 -0.0317 -0.4426 -0.3615
 7902TIP3    H145197   2.517   3.820  15.142 -1.1462 -0.5047 -0.6557
 7902TIP3    H245198   2.586   3.751  15.257  0.2810  3.4932  0.9706
 7903TIP3   OH245199   4.464   5.474   0.205  0.0661  0.2298  0.1870
 7903TIP3    H145200   4.516   5.411   0.155  2.7084  1.6149  1.0567
 7903TIP3    H245201   4.470   5.444   0.295  0.1210  0.8897  0.4099
 7904TIP3   OH245202   1.071   2.763   1.123  0.1556  0.1716  0.4147
 7904TIP3    H145203   0.975   2.764   1.122  0.1644  2.0306 -0.4667
 7904TIP3    H245204   1.095   2.740   1.033  0.5414  0.6422  0.3986
 7905TIP3   OH245205   4.514   5.188  17.132  0.2753 -0.4555 -0.2640
 7905TIP3    H145206   4.580   5.158  17.069  0.5762 -0.4579  0.0542
 7905TIP3    H245207   4.457   5.245  17.081  1.2693  0.5767 -0.2422
 7906TIP3   OH245208   1.403   4.434  15.550 -0.5130  0.1717 -0.2259
 7906TIP3    H145209   1.310   4.441  15.570 -0.4188  1.6529 -0.2099
 7906TIP3    H245210   1.422   4.513  15.500  0.8885  0.2604  0.4169
 7907TIP3   OH245211   3.088   0.189  11.963 -0.1441 -0.5901 -0.6736
 7907TIP3    H145212   3.016   0.128  11.948 -0.3814 -0.1867 -1.1995
 7907TIP3    H245213   3.051   0.275  11.944  0.2482 -0.3011 -0.1554
 7908TIP3   OH245214   3.548   5.548  11.774 -0.2558  0.5147  0.3556
 7908TIP3    H145215   3.511   5.636  11.773 -2.3840 -0.3392 -1.4805
 7908TIP3    H245216   3.474   5.491  11.752  1.4339 -1.5891 -0.0525
 7909TIP3   OH245217   0.151   0.168  11.926  0.5001 -0.2416 -0.2643
 7909TIP3    H145218   0.188   0.219  11.998  0.0222  0.9224 -0.8330
 7909TIP3    H245219   0.068   0.135  11.960  0.4473  0.0045 -0.1536
 7910TIP3   OH245220   1.254   0.220  13.647  0.0254  0.4769 -0.3403
 7910TIP3    H145221   1.210   0.268  13.717 -0.0199  1.0247 -0.7396
 7910TIP3    H245222   1.284   0.139  13.689 -0.2268  0.6807  0.2465
 7911TIP3   OH245223   0.649   4.512   6.027  0.5532 -0.2326  0.1679
 7911TIP3    H145224   0.600   4.526   5.946 -0.2908 -0.8779  0.5501
 7911TIP3    H245225   0.740   4.503   5.999  0.3426  0.1143 -0.6493
 7912TIP3   OH245226   0.886   2.117  14.228 -0.1560 -0.2240 -0.2604
 7912TIP3    H145227   0.884   2.095  14.321  0.5818 -1.6011 -0.5687
 7912TIP3    H245228   0.951   2.187  14.221 -1.0885  0.7304  0.4236
 7913TIP3   OH245229   2.716   5.419   3.343  0.4480  0.2899 -0.6825
 7913TIP3    H145230   2.775   5.350   3.375  0.7459 -0.0530 -1.9463
 7913TIP3    H245231   2.746   5.437   3.254 -1.3890  0.0903 -1.3634
 7914TIP3   OH245232   2.930   3.117   5.010 -0.7283 -0.5705  0.1376
 7914TIP3    H145233   2.898   3.035   4.974  2.9402 -1.1891 -1.9997
 7914TIP3    H245234   2.910   3.183   4.943 -1.2782 -0.1957  0.6627
 7915TIP3   OH245235   2.983   1.238   4.184  0.3410  0.0654 -0.1245
 7915TIP3    H145236   2.958   1.320   4.140  0.1468 -0.5439 -1.1512
 7915TIP3    H245237   3.011   1.266   4.271 -1.4837  1.0366  0.1672
 7916TIP3   OH245238   3.338   3.872   5.406 -0.5022  0.6723  0.1586
 7916TIP3    H145239   3.294   3.819   5.472 -0.8632  2.7744  1.6550
 7916TIP3    H245240   3.286   3.952   5.401  1.2924  1.8289 -0.4292
 7917TIP3   OH245241   4.994   1.377  15.420 -0.5420  0.0003  0.3789
 7917TIP3    H145242   5.071   1.329  15.392 -1.0840 -0.8340  0.3167
 7917TIP3    H245243   5.019   1.415  15.505 -0.1414 -0.4304  0.4533
 7918TIP3   OH245244   0.776   6.417  16.947 -0.5838 -0.1042  0.1386
 7918TIP3    H145245   0.720   6.487  16.914 -0.0746 -0.0628 -0.6258
 7918TIP3    H245246   0.859   6.460  16.966 -0.8264 -0.1503  1.3555
 7919TIP3   OH245247   2.459   1.786   3.474  0.2283  0.5252 -0.2462
 7919TIP3    H145248   2.540   1.741   3.452 -0.2626  0.1419 -1.2819
 7919TIP3    H245249   2.393   1.716   3.477  0.0187  0.7613  1.0672
 7920TIP3   OH245250   5.894   3.112   0.589  0.1364  0.0979 -0.1881
 7920TIP3    H145251   5.807   3.144   0.614 -0.4770 -0.9051 -1.0144
 7920TIP3    H245252   5.892   3.111   0.493  0.8116 -0.6206 -0.1938
 7921TIP3   OH245253   4.578   2.169   5.802  0.7593 -0.8127 -0.3298
 7921TIP3    H145254   4.588   2.260   5.830  0.0606 -1.2186  1.2635
 7921TIP3    H245255   4.623   2.166   5.717  0.1919  1.1691 -0.7402
 7922TIP3   OH245256   6.611   0.538   5.704  0.1973  0.4192 -0.7059
 7922TIP3    H145257   6.626   0.483   5.780  2.8447  1.0292 -0.7184
 7922TIP3    H245258   6.565   0.615   5.738 -1.5846 -0.7927 -0.3279
 7923TIP3   OH245259   2.044   2.380  13.359  0.4760 -0.0354 -0.1120
 7923TIP3    H145260   2.112   2.313  13.354  0.4498  0.0094 -1.0942
 7923TIP3    H245261   2.077   2.442  13.424  0.6986 -0.7694  0.4882
 7924TIP3   OH245262   6.256   2.890   2.353 -0.0930 -0.5903  0.4086
 7924TIP3    H145263   6.268   2.887   2.448  1.0767  0.3598  0.2978
 7924TIP3    H245264   6.317   2.957   2.323 -0.9830 -0.3543 -0.9365
 7925TIP3   OH245265   5.804   0.993   4.101 -0.1006 -0.3628  0.0825
 7925TIP3    H145266   5.857   0.985   4.022 -1.0945 -0.6307 -0.5618
 7925TIP3    H245267   5.857   0.951   4.169  1.0373  0.4396 -0.2990
 7926TIP3   OH245268   5.431   0.615  16.967  0.3626  0.5565 -0.3269
 7926TIP3    H145269   5.460   0.670  17.040 -2.0285 -0.5152  1.4991
 7926TIP3    H245270   5.475   0.531  16.980 -0.2262  0.2973  0.0285
 7927TIP3   OH245271   5.316   2.470  14.934 -0.2284 -0.2132  0.3081
 7927TIP3    H145272   5.238   2.439  14.982  1.3776  0.0306  3.2084
 7927TIP3    H245273   5.313   2.565  14.943  1.1235 -0.2784  1.6960
 7928TIP3   OH245274   5.059   1.703  11.872  0.9559  0.2923  0.2348
 7928TIP3    H145275   5.045   1.720  11.965  1.9083  0.3805  0.3646
 7928TIP3    H245276   5.148   1.732  11.855  0.2553  1.7332 -1.0665
 7929TIP3   OH245277   0.093   1.128  12.860 -0.1150 -0.2064 -0.2862
 7929TIP3    H145278   0.175   1.099  12.900 -0.0905 -0.2101 -0.3395
 7929TIP3    H245279   0.076   1.065  12.790 -0.2946 -0.3524 -0.1119
 7930TIP3   OH245280   6.729   6.275   2.530 -0.4139 -0.7598  0.1212
 7930TIP3    H145281   6.738   6.187   2.494 -2.4017 -1.1630  0.5277
 7930TIP3    H245282   6.679   6.323   2.464 -1.4489 -0.6422  0.9739
 7931TIP3   OH245283   4.144   2.629   0.325 -0.0367  0.1570  0.0555
 7931TIP3    H145284   4.101   2.713   0.309 -0.2790  0.1323  0.5644
 7931TIP3    H245285   4.092   2.566   0.277 -1.0327  0.0173  1.2803
 7932TIP3   OH245286   3.858   0.957  16.278 -0.0028 -0.1252  0.5382
 7932TIP3    H145287   3.801   0.964  16.354 -1.5757  0.3149 -0.6674
 7932TIP3    H245288   3.837   1.033  16.224  0.8768 -0.5875 -0.4808
 7933TIP3   OH245289   0.129   3.993  11.039 -0.4543 -0.4859  0.5706
 7933TIP3    H145290   0.190   4.064  11.062 -0.1907 -0.7358  0.6485
 7933TIP3    H245291   0.069   4.033  10.976 -0.1019 -0.2865  0.3599
 7934TIP3   OH245292   0.476   3.737   0.118 -0.2775 -0.1257  0.3662
 7934TIP3    H145293   0.420   3.800   0.163 -2.0975 -1.3719 -0.0816
 7934TIP3    H245294   0.514   3.685   0.188  1.0256  1.2776  0.7229
 7935TIP3   OH245295   2.180   3.006   0.404 -0.0600 -0.3121  0.2635
 7935TIP3    H145296   2.175   3.053   0.486  3.5165 -0.8827  0.9017
 7935TIP3    H245297   2.099   3.028   0.358 -1.9657  0.2469  3.7710
 7936TIP3   OH245298   2.036   3.517   2.387  0.0046  0.4184  0.7711
 7936TIP3    H145299   2.059   3.428   2.359 -1.2488  0.4705 -0.5085
 7936TIP3    H245300   2.097   3.536   2.458  1.8047 -0.5885 -0.4578
 7937TIP3   OH245301   1.039   3.745  14.090  0.2132  0.2309 -0.0592
 7937TIP3    H145302   1.036   3.755  14.185 -1.2193 -2.8733  0.2829
 7937TIP3    H245303   0.960   3.789  14.059 -0.9952 -1.4713  0.5171
 7938TIP3   OH245304   2.703   1.027  17.185 -0.8693  0.0061  0.4534
 7938TIP3    H145305   2.740   1.032  17.273 -3.5448  2.8580  1.4935
 7938TIP3    H245306   2.716   1.115  17.149  1.1466 -1.3994 -2.4590
 7939TIP3   OH245307   0.557   3.929  11.935  0.1757  0.6083 -0.6807
 7939TIP3    H145308   0.563   4.016  11.974  0.4453  0.7745 -1.0921
 7939TIP3    H245309   0.472   3.896  11.964  0.4544  0.6444  0.2085
 7940TIP3   OH245310   4.769   4.760   2.675  0.8106 -0.3542  0.0020
 7940TIP3    H145311   4.693   4.708   2.649  0.5170  0.2999 -0.4463
 7940TIP3    H245312   4.821   4.768   2.595  0.1997  1.1544 -0.2565
 7941TIP3   OH245313   2.273   3.433  14.279  0.1268 -0.6072 -0.3330
 7941TIP3    H145314   2.265   3.390  14.364 -0.2694 -0.1288 -0.1269
 7941TIP3    H245315   2.325   3.372  14.226 -1.3991 -1.8778 -0.4031
 7942TIP3   OH245316   6.001   6.563   3.343 -0.4894  0.0979 -0.4372
 7942TIP3    H145317   6.091   6.566   3.310 -0.6054  0.3648 -0.7437
 7942TIP3    H245318   5.988   6.648   3.386  0.5474 -1.3014  2.7370
 7943TIP3   OH245319   3.264   0.611   3.231  0.0538 -0.8328 -0.3644
 7943TIP3    H145320   3.244   0.654   3.314 -0.2768  1.5553 -1.6474
 7943TIP3    H245321   3.184   0.562   3.210 -0.0657 -0.9887  0.4256
 7944TIP3   OH245322   6.177   1.762   3.569  0.5322 -0.5726 -0.1185
 7944TIP3    H145323   6.109   1.705   3.607  1.2292 -0.9734  0.5349
 7944TIP3    H245324   6.149   1.774   3.478 -0.6815 -0.3242  0.2745
 7945TIP3   OH245325   2.428   6.303  16.082  1.1379  0.3182  0.0162
 7945TIP3    H145326   2.464   6.216  16.100 -0.3744 -0.7594 -1.9295
 7945TIP3    H245327   2.333   6.291  16.087  0.9173  1.8809 -0.1527
 7946TIP3   OH245328   2.302   2.723   5.883  0.2421 -0.3716  0.0903
 7946TIP3    H145329   2.391   2.720   5.916  0.4486  2.2672 -0.1320
 7946TIP3    H245330   2.293   2.810   5.845 -2.7646 -0.2067  1.0644
 7947TIP3   OH245331   1.255   0.705  12.999 -0.3327  0.5517 -0.0477
 7947TIP3    H145332   1.236   0.718  13.092 -0.0359  0.5341  0.0139
 7947TIP3    H245333   1.168   0.699  12.958 -0.4660 -0.4423  0.3674
 7948TIP3   OH245334   1.830   1.932  15.345  0.6942  0.1447  0.9106
 7948TIP3    H145335   1.862   1.921  15.435  1.6851  0.6497  0.6225
 7948TIP3    H245336   1.893   1.992  15.304 -0.0738  0.3709  0.0469
 7949TIP3   OH245337   4.347   1.518   5.819  0.4641 -0.9893 -0.5469
 7949TIP3    H145338   4.376   1.469   5.896  0.2028  1.4484  1.1532
 7949TIP3    H245339   4.264   1.478   5.795  0.2614 -1.3930  0.8031
 7950TIP3   OH245340   6.636   2.865  11.443 -0.2102 -0.0458  0.0913
 7950TIP3    H145341   6.635   2.954  11.408  0.1081  0.2197  0.7595
 7950TIP3    H245342   6.728   2.840  11.445 -0.3857 -0.8467 -1.2286
 7951TIP3   OH245343   0.948   3.418  16.318  0.2956 -0.1765  0.3549
 7951TIP3    H145344   0.896   3.475  16.375  0.0115 -0.4987  0.4184
 7951TIP3    H245345   1.036   3.456  16.319  0.2407 -0.0630  0.8427
 7952TIP3   OH245346   6.742   4.914  14.609 -0.2127 -0.5798  0.2702
 7952TIP3    H145347   6.801   4.911  14.684 -0.7542 -0.7013  0.6955
 7952TIP3    H245348   6.723   5.007  14.596 -0.1950 -0.5662  0.3468
 7953TIP3   OH245349   0.403   1.737  13.262 -0.5376  0.4576 -0.2877
 7953TIP3    H145350   0.420   1.824  13.298 -0.5013  0.7019 -0.9031
 7953TIP3    H245351   0.344   1.696  13.326  0.4757  0.4520  0.6515
 7954TIP3   OH245352   0.986   3.445  12.433 -0.0532 -0.4244  0.1125
 7954TIP3    H145353   0.981   3.361  12.387 -0.2232  0.8521 -2.2974
 7954TIP3    H245354   1.062   3.436  12.490  0.9242 -1.6550 -1.3231
 7955TIP3   OH245355   2.182   5.094   1.117  0.0716 -0.8906  0.4142
 7955TIP3    H145356   2.272   5.066   1.132  0.3205  0.2836  1.1709
 7955TIP3    H245357   2.130   5.036   1.172  0.3902 -1.3790  0.2020
 7956TIP3   OH245358   0.247   3.848   0.232 -0.1860 -0.0211  0.1861
 7956TIP3    H145359   0.280   3.882   0.315  0.8521  0.4518 -0.4064
 7956TIP3    H245360   0.156   3.877   0.228 -0.3696 -0.3897  1.3327
 7957TIP3   OH245361   2.638   6.215   2.943  0.2708 -0.0309 -0.3487
 7957TIP3    H145362   2.605   6.126   2.956  0.9502  0.1204  2.9401
 7957TIP3    H245363   2.564   6.263   2.905 -0.5207 -1.6784 -0.9187
 7958TIP3   OH245364   5.569   5.389   6.047 -0.0460  0.0196 -0.0874
 7958TIP3    H145365   5.542   5.327   6.114 -0.6605  1.6673  1.2198
 7958TIP3    H245366   5.643   5.436   6.086 -0.2829  0.8578 -0.6233
 7959TIP3   OH245367   0.530   5.773   5.360  0.3909  0.5597  0.1762
 7959TIP3    H145368   0.524   5.766   5.456 -1.3582  0.4967  0.0672
 7959TIP3    H245369   0.474   5.847   5.338  1.8150  1.4033 -0.6993
 7960TIP3   OH245370   2.279   4.519   0.918 -0.4891 -1.0066 -0.1238
 7960TIP3    H145371   2.307   4.572   0.992  1.9125  0.6669 -2.1257
 7960TIP3    H245372   2.266   4.431   0.954 -0.0851 -0.0718  2.3840
 7961TIP3   OH245373   1.598   4.149   4.326  0.5342  0.4484 -0.0148
 7961TIP3    H145374   1.663   4.099   4.278  0.4206 -0.4476  0.7638
 7961TIP3    H245375   1.645   4.226   4.358  0.5771  1.1405 -1.6700
 7962TIP3   OH245376   5.191   2.572   1.234  0.2053  0.4859 -0.0735
 7962TIP3    H145377   5.146   2.570   1.149 -2.5315 -0.9490  1.3427
 7962TIP3    H245378   5.153   2.647   1.279  0.6315  0.4045  0.4188
 7963TIP3   OH245379   0.285   4.289  16.263 -0.4901  0.3303  0.3552
 7963TIP3    H145380   0.262   4.337  16.183 -2.3892  0.1995  0.8101
 7963TIP3    H245381   0.262   4.348  16.334  0.7739  0.2571  0.8458
 7964TIP3   OH245382   0.955   6.667   0.390 -0.5686 -0.3323 -0.4160
 7964TIP3    H145383   0.869   6.627   0.374 -0.9656  0.3877 -0.0861
 7964TIP3    H245384   1.003   6.600   0.439 -1.6906  0.1078  1.3182
 7965TIP3   OH245385   6.001   2.547  17.196  0.1828  0.0485  1.1577
 7965TIP3    H145386   6.029   2.465  17.156  0.0785  0.6596 -0.2017
 7965TIP3    H245387   6.079   2.578  17.244  1.1960  0.6489 -0.8113
 7966TIP3   OH245388   5.036   2.176   4.847 -0.4226 -0.9270 -0.3488
 7966TIP3    H145389   5.117   2.182   4.897 -0.8520  0.0504  0.2307
 7966TIP3    H245390   5.058   2.118   4.774  1.4078  1.0143 -1.3833
 7967TIP3   OH245391   4.212   4.313   5.780 -0.2702  0.0120  0.5580
 7967TIP3    H145392   4.185   4.350   5.864 -2.8847 -0.7413  0.0750
 7967TIP3    H245393   4.302   4.283   5.795  0.0532  1.7834  2.4473
 7968TIP3   OH245394   4.545   6.351  16.191  0.3013 -0.8686  0.4185
 7968TIP3    H145395   4.625   6.299  16.186  1.0453  0.3508 -0.5519
 7968TIP3    H245396   4.477   6.294  16.154  1.3127 -0.7616 -1.6315
 7969TIP3   OH245397   3.401   3.082  16.547  0.4147  0.0353  0.1207
 7969TIP3    H145398   3.449   3.101  16.466 -0.0317  1.4465  0.1742
 7969TIP3    H245399   3.387   2.987  16.545  0.1051  0.1055 -1.6287
 7970TIP3   OH245400   4.633   4.563   1.794  0.3687 -0.1599  0.1025
 7970TIP3    H145401   4.599   4.625   1.730 -1.5136  1.3715  2.4758
 7970TIP3    H245402   4.557   4.540   1.847  2.0362 -0.6448  2.3550
 7971TIP3   OH245403   0.707   1.921  11.056  0.1464 -0.2043  0.4836
 7971TIP3    H145404   0.668   1.984  11.117  0.4901  0.3072  0.1748
 7971TIP3    H245405   0.726   1.972  10.977  1.1673 -0.5103  0.5234
 7972TIP3   OH245406   6.486   1.537  16.574 -0.0218  0.2846 -0.1769
 7972TIP3    H145407   6.410   1.481  16.557 -0.7186  0.6678  1.6178
 7972TIP3    H245408   6.562   1.478  16.566 -0.7216 -0.8432  1.4019
 7973TIP3   OH245409   5.539   1.525  12.606 -0.1347  0.7300  0.3229
 7973TIP3    H145410   5.559   1.597  12.665  0.5904  1.0739 -0.3346
 7973TIP3    H245411   5.552   1.446  12.659  1.7099  0.9930  0.2905
 7974TIP3   OH245412   3.230   5.377   0.862  0.4417  0.6857 -0.3515
 7974TIP3    H145413   3.168   5.329   0.918 -1.9042  0.3583 -3.1341
 7974TIP3    H245414   3.315   5.363   0.904 -0.9930 -0.9652  2.1769
 7975TIP3   OH245415   4.442   0.959   2.246  0.0150 -0.3098  0.8215
 7975TIP3    H145416   4.419   0.899   2.317 -0.1719  0.8836  1.7853
 7975TIP3    H245417   4.532   0.986   2.265  0.0419 -0.1569  0.4874
 7976TIP3   OH245418   1.626   3.686  14.663  0.0965 -0.3530 -0.3600
 7976TIP3    H145419   1.578   3.664  14.743  1.3602  0.7539  0.7258
 7976TIP3    H245420   1.559   3.683  14.594 -1.3995  0.4831  1.0065
 7977TIP3   OH245421   3.024   3.233   2.050 -0.3774 -0.3273 -0.1334
 7977TIP3    H145422   2.972   3.190   2.117  0.2155 -3.0814 -1.3832
 7977TIP3    H245423   3.115   3.211   2.071  0.0052  1.0418 -0.3015
 7978TIP3   OH245424   4.159   4.516  12.531  0.3256  0.4605  0.4477
 7978TIP3    H145425   4.137   4.608  12.517 -1.9671  0.4472  3.3442
 7978TIP3    H245426   4.237   4.518  12.585  0.4541  0.6850  0.2572
 7979TIP3   OH245427   4.419   5.015   0.865 -0.2583 -0.3215 -0.1781
 7979TIP3    H145428   4.496   4.970   0.831  0.0940 -0.7791  1.1897
 7979TIP3    H245429   4.375   5.049   0.787 -0.0377 -2.2384 -1.1570
 7980TIP3   OH245430   6.096   2.643  15.335  0.3446  0.3682 -0.7098
 7980TIP3    H145431   6.043   2.563  15.329 -2.0561  1.8059  0.5396
 7980TIP3    H245432   6.177   2.621  15.289 -0.0310 -2.9576  0.0610
 7981TIP3   OH245433   4.287   4.678   0.785 -0.1380  0.2586 -0.2928
 7981TIP3    H145434   4.299   4.749   0.722  2.0939 -1.0658 -1.4432
 7981TIP3    H245435   4.342   4.702   0.860  0.4790 -0.1282 -0.6096
 7982TIP3   OH245436   3.574   1.673  16.553  0.2004  0.5078  0.6253
 7982TIP3    H145437   3.650   1.730  16.571  0.7601 -0.5313  1.6234
 7982TIP3    H245438   3.612   1.598  16.508 -0.4797  0.7140 -0.2927
 7983TIP3   OH245439   4.643   6.547   0.382  0.0020 -0.4864  0.1527
 7983TIP3    H145440   4.650   6.512   0.293 -1.3030  0.0991 -0.1838
 7983TIP3    H245441   4.550   6.565   0.393  0.4830  1.6960  0.7771
 7984TIP3   OH245442   3.956   5.699   3.858 -0.4100 -0.2838 -0.0745
 7984TIP3    H145443   3.947   5.643   3.780 -0.8332 -1.2345  0.6453
 7984TIP3    H245444   3.867   5.731   3.874  0.0963  1.8403 -1.3799
 7985TIP3   OH245445   3.668   0.390  13.925 -0.7171  0.2904 -0.2312
 7985TIP3    H145446   3.753   0.414  13.963  0.1967 -1.6638 -0.9691
 7985TIP3    H245447   3.604   0.419  13.990  0.7164 -1.2435  1.9615
 7986TIP3   OH245448   4.812   6.610  11.477 -0.1790  0.0791 -0.1373
 7986TIP3    H145449   4.886   6.619  11.416 -0.2692 -0.2876 -0.3082
 7986TIP3    H245450   4.800   6.515  11.483 -0.0891  0.1145  0.5548
 7987TIP3   OH245451   3.625   5.237  12.676 -0.3374  0.0380 -0.1957
 7987TIP3    H145452   3.679   5.172  12.721 -0.4419  0.8021  1.0858
 7987TIP3    H245453   3.667   5.321  12.696  0.2837  0.3106 -2.5261
 7988TIP3   OH245454   2.756   0.917  16.938  0.1088  0.4420  0.8952
 7988TIP3    H145455   2.851   0.906  16.938  0.0321 -0.3255  2.1215
 7988TIP3    H245456   2.734   0.941  17.028 -1.0486 -1.2255  1.0770
 7989TIP3   OH245457   2.086   0.948  11.339 -0.6795 -0.0211  0.1408
 7989TIP3    H145458   2.044   1.008  11.278 -2.1616  0.5271  1.6570
 7989TIP3    H245459   2.015   0.891  11.370 -0.0332 -0.0554  1.6095
 7990TIP3   OH245460   6.323   6.239   2.864 -0.4966 -0.6237  0.2395
 7990TIP3    H145461   6.414   6.222   2.891 -1.1477 -1.7689  1.7868
 7990TIP3    H245462   6.273   6.231   2.945 -1.9236  0.5107 -0.5204
 7991TIP3   OH245463   5.150   5.861  11.361 -0.0003  0.2705 -0.6722
 7991TIP3    H145464   5.074   5.804  11.374 -0.9331  1.2776 -1.5833
 7991TIP3    H245465   5.225   5.803  11.373 -0.9201 -0.9859 -0.7981
 7992TIP3   OH245466   6.253   4.161   0.006 -0.0860 -0.3471  0.0461
 7992TIP3    H145467   6.344   4.133   0.020 -0.2579 -1.9625 -1.8687
 7992TIP3    H245468   6.200   4.089   0.039 -0.7438  1.1015  2.2586
 7993TIP3   OH245469   0.882   5.474   4.009 -0.5807  0.0754 -0.3332
 7993TIP3    H145470   0.849   5.561   3.987  2.7088  1.8586  1.4702
 7993TIP3    H245471   0.844   5.456   4.095 -1.0418 -0.1549 -0.5845
 7994TIP3   OH245472   1.363   0.258   3.990 -0.2595  0.4136  0.0158
 7994TIP3    H145473   1.431   0.219   4.046 -0.6963  0.7885  0.8165
 7994TIP3    H245474   1.309   0.310   4.050 -2.1812 -1.1200 -0.3153
 7995TIP3   OH245475   4.259   5.141   0.637  0.3688  0.2096 -0.0204
 7995TIP3    H145476   4.211   5.172   0.560 -0.0330  0.7007  0.4150
 7995TIP3    H245477   4.199   5.158   0.710  1.4283  1.3538  0.6084
 7996TIP3   OH245478   2.601   4.362   4.971 -0.5119 -0.0020  0.3549
 7996TIP3    H145479   2.576   4.270   4.966 -0.9636  0.0695  1.2165
 7996TIP3    H245480   2.561   4.393   5.052 -1.6908  1.3512 -0.7291
 7997TIP3   OH245481   3.824   6.751  13.680 -0.0783  0.0731  0.1918
 7997TIP3    H145482   3.881   6.812  13.728  0.4826  1.0659 -1.6634
 7997TIP3    H245483   3.743   6.800  13.667  0.1490  0.2042 -0.7596
 7998TIP3   OH245484   2.824   6.551  14.138 -0.6168  0.3633 -0.1084
 7998TIP3    H145485   2.828   6.459  14.113 -0.6182 -0.0219  1.2692
 7998TIP3    H245486   2.912   6.570  14.173 -0.5977  0.9010 -0.4385
 7999TIP3   OH245487   4.107   4.622  16.392  0.4941  0.5469 -0.5036
 7999TIP3    H145488   4.041   4.662  16.450 -1.7424 -0.5909 -2.1819
 7999TIP3    H245489   4.153   4.559  16.448 -0.3619  0.8072  0.5186
 8000TIP3   OH245490   3.216   4.815   2.748  0.0670  0.2790 -0.6568
 8000TIP3    H145491   3.182   4.729   2.722  1.0245  0.1345 -1.4619
 8000TIP3    H245492   3.180   4.829   2.836  0.3332 -1.1986 -0.2927
 8001TIP3   OH245493   0.041   6.198   2.824 -0.1774  0.5138  0.4206
 8001TIP3    H145494   0.012   6.226   2.737  1.2249  2.3519  0.5096
 8001TIP3    H245495   0.033   6.103   2.823  2.4032  0.2511 -2.7174
 8002TIP3   OH245496   4.320   1.353  15.017  0.7520 -0.1342 -0.1520
 8002TIP3    H145497   4.381   1.327  15.086  0.3557  0.0422  0.2735
 8002TIP3    H245498   4.253   1.285  15.017 -0.6036  1.1419  1.3651
 8003TIP3   OH245499   1.043   5.355  11.902  0.3024 -0.0849 -0.2020
 8003TIP3    H145500   0.995   5.317  11.829 -0.2233 -0.1159  0.1528
 8003TIP3    H245501   1.080   5.280  11.949  1.8116  0.0144 -1.2282
 8004TIP3   OH245502   5.447   2.339  11.673  0.0639 -0.0542  0.7479
 8004TIP3    H145503   5.487   2.405  11.616 -0.4516 -0.4839 -0.1244
 8004TIP3    H245504   5.512   2.269  11.677  0.1181 -0.0057  0.7203
 8005TIP3   OH245505   2.222   2.403  16.710 -0.2359  0.2441 -0.3355
 8005TIP3    H145506   2.198   2.318  16.747 -1.4478  0.6112 -0.2366
 8005TIP3    H245507   2.281   2.382  16.638 -1.3772 -0.7609 -1.0026
 8006TIP3   OH245508   2.184   0.852  10.269  0.4602  0.0938  0.2005
 8006TIP3    H145509   2.217   0.881  10.355  1.3990 -0.4509  0.0273
 8006TIP3    H245510   2.235   0.774  10.249  0.4147  0.3630 -0.9799
 8007TIP3   OH245511   0.622   6.709   4.545  0.7583  0.3659  0.7720
 8007TIP3    H145512   0.618   6.623   4.586 -2.0314  0.0437 -0.0619
 8007TIP3    H245513   0.648   6.691   4.455 -3.7871 -0.1665 -0.5929
 8008TIP3   OH245514   4.935   3.944  12.488 -0.2973 -0.5610  0.0543
 8008TIP3    H145515   4.993   4.009  12.449 -0.6756  0.1451  0.6607
 8008TIP3    H245516   4.949   3.865  12.436  0.1064  0.0248 -0.7382
 8009TIP3   OH245517   6.401   6.484  12.932 -0.6024  0.1444  0.3964
 8009TIP3    H145518   6.425   6.394  12.953 -2.4123 -1.3850 -3.6442
 8009TIP3    H245519   6.478   6.519  12.886 -0.5019  0.1332  0.5564
 8010TIP3   OH245520   6.477   3.408  15.191  0.5272 -0.2513 -0.8858
 8010TIP3    H145521   6.381   3.411  15.196  0.5746 -0.5539  0.5762
 8010TIP3    H245522   6.495   3.363  15.109 -0.5829  0.2560 -1.4141
 8011TIP3   OH245523   4.290   2.493  15.994  0.1954  0.5558  0.5635
 8011TIP3    H145524   4.211   2.535  15.961  0.0558  2.3227  3.0057
 8011TIP3    H245525   4.327   2.448  15.918 -3.1610 -0.3570 -0.6026
 8012TIP3   OH245526   1.453   6.734   0.304  0.7420  0.0524 -0.3004
 8012TIP3    H145527   1.409   6.681   0.370  1.6351 -0.2487  0.0662
 8012TIP3    H245528   1.424   6.823   0.321  1.1356  0.0071  0.6432
 8013TIP3   OH245529   3.924   6.292  12.831  0.0486 -0.9422  0.1415
 8013TIP3    H145530   3.974   6.216  12.861  0.7533 -1.0182 -1.2149
 8013TIP3    H245531   3.955   6.308  12.742  0.1293  1.1193  0.5091
 8014TIP3   OH245532   5.282   0.374  15.341 -0.1817 -0.0457  0.4078
 8014TIP3    H145533   5.212   0.365  15.277  0.0304 -0.8823  0.2892
 8014TIP3    H245534   5.277   0.465  15.369 -0.5237  0.2258 -0.5109
 8015TIP3   OH245535   0.977   3.064   5.576  0.1588  0.1460  0.4334
 8015TIP3    H145536   0.937   3.039   5.660  1.2603  0.8276  1.1721
 8015TIP3    H245537   0.918   3.131   5.541 -0.0033  0.2643  0.9287
 8016TIP3   OH245538   4.245   4.707   5.939 -0.2673  0.2975  0.3122
 8016TIP3    H145539   4.318   4.654   5.971 -0.4143 -0.3104 -0.3553
 8016TIP3    H245540   4.257   4.711   5.845 -0.4868  1.1179  0.3156
 8017TIP3   OH245541   3.387   3.845  15.319 -0.5436  0.1238 -0.0010
 8017TIP3    H145542   3.405   3.753  15.299 -1.9302  0.1322 -1.3686
 8017TIP3    H245543   3.326   3.842  15.392  1.0533  0.0183  1.3663
 8018TIP3   OH245544   6.527   0.381  16.018  0.0539  0.0215  0.1824
 8018TIP3    H145545   6.513   0.475  16.026  0.8803  0.3519 -2.0594
 8018TIP3    H245546   6.618   0.372  15.990 -0.6662 -1.3301 -1.8762
 8019TIP3   OH245547   3.189   4.015   4.190  0.3521  0.2177  0.6833
 8019TIP3    H145548   3.169   3.922   4.187 -1.0954  0.5560 -0.1173
 8019TIP3    H245549   3.104   4.059   4.186  0.9573  1.5578  1.9704
 8020TIP3   OH245550   2.348   0.133  15.781 -0.3335 -1.0267  0.0058
 8020TIP3    H145551   2.288   0.207  15.788 -0.4712 -1.0095 -1.1766
 8020TIP3    H245552   2.314   0.068  15.843 -0.2137 -0.1053  1.0332
 8021TIP3   OH245553   1.240   3.406   1.289  0.0056  0.5130  0.2566
 8021TIP3    H145554   1.270   3.491   1.258  1.0011 -0.1400 -0.6032
 8021TIP3    H245555   1.277   3.398   1.377  0.8386  0.5046 -0.0906
 8022TIP3   OH245556   1.223   4.456   1.018  0.1960 -0.1103 -0.2949
 8022TIP3    H145557   1.271   4.522   1.067  0.2914 -1.6072  1.7123
 8022TIP3    H245558   1.150   4.504   0.978  0.2823  1.2285  1.0915
 8023TIP3   OH245559   2.921   0.097   2.903 -0.2387  0.1331  0.2355
 8023TIP3    H145560   2.847   0.130   2.854 -0.3166 -0.5832 -0.1421
 8023TIP3    H245561   2.961   0.174   2.943 -2.0297  0.3600  1.6284
 8024TIP3   OH245562   2.167   3.321   3.186  0.2047 -0.2277  0.8312
 8024TIP3    H145563   2.151   3.412   3.211  1.9145  0.4893 -0.6065
 8024TIP3    H245564   2.155   3.272   3.267 -1.8620  1.1119  1.4026
 8025TIP3   OH245565   5.393   5.837   5.435  0.3091 -0.5729  0.2835
 8025TIP3    H145566   5.462   5.903   5.441 -0.8790  0.7770 -0.7137
 8025TIP3    H245567   5.397   5.790   5.519  0.7923  1.1240  1.2284
 8026TIP3   OH245568   6.286   0.446   2.960  0.1591  0.0235 -0.1636
 8026TIP3    H145569   6.303   0.378   3.025 -0.0147 -1.1671 -1.3298
 8026TIP3    H245570   6.330   0.524   2.994  1.9492 -1.1552  0.2917
 8027TIP3   OH245571   1.725   6.204   4.221 -0.1667 -0.1750  0.2162
 8027TIP3    H145572   1.638   6.164   4.226 -0.9403  1.7581  3.1244
 8027TIP3    H245573   1.712   6.282   4.166  0.2572 -1.1172 -1.2514
 8028TIP3   OH245574   2.691   4.026  12.084  0.5860  0.5559  0.1363
 8028TIP3    H145575   2.768   4.056  12.037  0.9919 -0.4772  0.1384
 8028TIP3    H245576   2.715   4.030  12.176 -0.3552  2.9936  0.3179
 8029TIP3   OH245577   5.058   6.653  12.180 -0.0586 -0.3639  0.0831
 8029TIP3    H145578   5.123   6.715  12.214 -2.3450  1.5813  1.0837
 8029TIP3    H245579   5.000   6.707  12.125 -0.1655 -2.2662 -1.7438
 8030TIP3   OH245580   2.979   2.450  11.744  0.1194 -0.9116  0.4140
 8030TIP3    H145581   3.047   2.468  11.809 -0.6965  0.6852  0.8477
 8030TIP3    H245582   3.027   2.437  11.662  0.9539  0.0812  0.7344
 8031TIP3   OH245583   0.199   1.831  17.064  0.1331 -0.4227 -0.4063
 8031TIP3    H145584   0.185   1.773  17.139 -0.2372 -1.1596 -1.0433
 8031TIP3    H245585   0.132   1.806  17.001  0.8614 -0.2647 -1.2633
 8032TIP3   OH245586   5.977   0.299   3.588 -0.1318  0.2002  0.0600
 8032TIP3    H145587   5.896   0.318   3.634 -0.3844 -0.0613 -0.2732
 8032TIP3    H245588   5.958   0.321   3.496 -1.0914 -3.5463 -0.7136
 8033TIP3   OH245589   6.382   1.410   5.643  0.7111  0.1555  0.0813
 8033TIP3    H145590   6.304   1.464   5.627  0.1914 -0.7316 -0.4499
 8033TIP3    H245591   6.441   1.430   5.570 -0.1469 -1.1561 -1.0209
 8034TIP3   OH245592   4.936   2.230   1.501  0.0875  0.4835 -0.2201
 8034TIP3    H145593   4.936   2.236   1.596 -0.7765 -0.8930 -0.1154
 8034TIP3    H245594   4.933   2.321   1.471  0.7597  0.9359  1.0524
 8035TIP3   OH245595   6.570   4.710  16.004 -0.2378  0.7746  0.0496
 8035TIP3    H145596   6.559   4.774  15.934 -0.6298  0.1257 -0.4844
 8035TIP3    H245597   6.664   4.689  16.003 -0.4727 -0.2547 -1.1862
 8036TIP3   OH245598   1.551   2.121  14.157 -0.0018  0.4122  0.0421
 8036TIP3    H145599   1.513   2.121  14.245  1.2010  0.1356  0.5735
 8036TIP3    H245600   1.500   2.055  14.109 -1.2572  1.2137  0.2516
 8037TIP3   OH245601   2.650   0.998   1.967  0.4472 -0.4692  0.3468
 8037TIP3    H145602   2.607   0.913   1.976  2.4468 -1.7348 -1.5198
 8037TIP3    H245603   2.614   1.051   2.038 -1.1353 -2.7401  1.2970
 8038TIP3   OH245604   4.657   1.003   5.195 -0.3875  0.1991  0.0530
 8038TIP3    H145605   4.651   0.926   5.138 -0.2281  0.1693  0.0756
 8038TIP3    H245606   4.566   1.023   5.217 -0.5280  0.9424 -1.1740
 8039TIP3   OH245607   0.266   5.320  12.214  0.0785 -0.1247  0.0626
 8039TIP3    H145608   0.312   5.255  12.161 -1.4937 -0.0281 -1.4506
 8039TIP3    H245609   0.302   5.404  12.184 -0.6783 -0.0806 -0.7282
 8040TIP3   OH245610   6.066   3.941   0.041  0.9533 -0.3718  0.6675
 8040TIP3    H145611   6.006   3.893  -0.015  1.1843 -0.3715  0.4150
 8040TIP3    H245612   6.011   3.978   0.110  0.5970  0.0376  0.1636
 8041TIP3   OH245613   1.021   1.238  15.638 -0.3093 -0.0449  0.4077
 8041TIP3    H145614   1.028   1.323  15.594 -1.0097  0.1349  0.6408
 8041TIP3    H245615   0.943   1.197  15.599  0.5806 -0.9918 -0.4012
 8042TIP3   OH245616   4.446   3.297  13.700  0.5642  0.0568  0.2954
 8042TIP3    H145617   4.485   3.384  13.689 -0.2355  0.0809 -2.9584
 8042TIP3    H245618   4.504   3.239  13.651 -2.8565 -0.0232 -4.0123
 8043TIP3   OH245619   4.873   2.237  12.569  0.1544  0.1590 -0.8124
 8043TIP3    H145620   4.835   2.312  12.614  0.6363 -0.2595  0.3089
 8043TIP3    H245621   4.811   2.218  12.498 -0.1200  1.4196 -0.9116
 8044TIP3   OH245622   1.278   2.020  17.016 -0.4812 -0.3235 -0.0276
 8044TIP3    H145623   1.197   2.033  17.067 -0.6686 -0.0367 -0.3961
 8044TIP3    H245624   1.341   2.081  17.055  0.6562 -3.0888  2.6281
 8045TIP3   OH245625   6.791   1.019  13.930  0.3228 -0.3198  0.0613
 8045TIP3    H145626   6.801   0.965  14.009 -2.0956  0.5505  1.0291
 8045TIP3    H245627   6.697   1.033  13.923  0.7786  2.6311 -0.9402
 8046TIP3   OH245628   1.721   5.183  11.639 -0.0532 -0.1492 -0.1987
 8046TIP3    H145629   1.721   5.088  11.650  1.3891 -0.3017 -1.5041
 8046TIP3    H245630   1.760   5.217  11.720 -0.5676 -0.6425  0.2663
 8047TIP3   OH245631   2.666   1.935  13.258  0.1029 -0.0488 -0.5437
 8047TIP3    H145632   2.697   1.984  13.181 -0.8301 -0.9375 -1.5030
 8047TIP3    H245633   2.662   2.000  13.328 -1.4221  1.3608 -1.8876
 8048TIP3   OH245634   1.486   3.271  17.129 -0.3871 -0.4553 -0.1053
 8048TIP3    H145635   1.454   3.344  17.182  1.2240 -0.4140  0.8291
 8048TIP3    H245636   1.406   3.233  17.092 -1.3894  0.6852  0.8150
 8049TIP3   OH245637   0.397   4.467   3.262  0.0084 -0.1477  0.4813
 8049TIP3    H145638   0.320   4.479   3.317 -0.3836 -0.9880  0.1100
 8049TIP3    H245639   0.427   4.378   3.281  2.0787  0.8502  2.1503
 8050TIP3   OH245640   6.039   5.274  15.958  0.7691  0.1616  0.3271
 8050TIP3    H145641   5.962   5.329  15.943  0.8581 -0.4271 -2.6290
 8050TIP3    H245642   6.003   5.191  15.988  0.2607  0.1375 -0.3204
 8051TIP3   OH245643   5.795   2.432  12.922  0.5061 -0.2934 -0.2449
 8051TIP3    H145644   5.742   2.382  12.860  0.4744 -0.0441 -0.4229
 8051TIP3    H245645   5.739   2.505  12.949  0.7099 -0.1015 -0.3363
 8052TIP3   OH245646   1.029   0.181  11.097 -0.6551  0.2269 -0.3861
 8052TIP3    H145647   1.045   0.087  11.089 -0.4732  0.1330  0.9292
 8052TIP3    H245648   1.108   0.222  11.061  0.2935 -0.1661  1.1972
 8053TIP3   OH245649   2.109   1.871  12.516 -0.1483 -0.3279 -0.4902
 8053TIP3    H145650   2.114   1.776  12.506 -0.9424 -0.2255 -1.9969
 8053TIP3    H245651   2.144   1.906  12.434  1.4801  0.7113  0.6168
 8054TIP3   OH245652   3.128   2.848   5.543  0.0152 -0.3818 -0.3014
 8054TIP3    H145653   3.035   2.868   5.555  0.7284  2.0157  1.6544
 8054TIP3    H245654   3.148   2.788   5.615 -0.2300 -1.7351 -1.3404
 8055TIP3   OH245655   2.049   3.189   3.530 -0.5015  0.2566  0.1345
 8055TIP3    H145656   2.002   3.268   3.503 -1.6528  0.6186  3.0485
 8055TIP3    H245657   1.981   3.133   3.568  1.2898  0.5278  3.8921
 8056TIP3   OH245658   1.678   3.378   4.109 -0.4007 -0.5131 -0.0136
 8056TIP3    H145659   1.668   3.331   4.192  0.8180 -2.3373 -0.8798
 8056TIP3    H245660   1.706   3.466   4.134  1.6899 -1.5749  1.4266
 8057TIP3   OH245661   2.610   6.185  11.827 -0.3761  0.0562 -0.0287
 8057TIP3    H145662   2.536   6.124  11.824 -0.0939 -0.2382 -1.5542
 8057TIP3    H245663   2.627   6.205  11.735  1.1216  0.5142  0.3481
 8058TIP3   OH245664   3.605   2.819   0.166 -0.3864 -0.5215  0.4343
 8058TIP3    H145665   3.522   2.817   0.214 -0.5545 -1.3435  0.1221
 8058TIP3    H245666   3.619   2.729   0.139 -1.7205  0.3354 -3.4958
 8059TIP3   OH245667   4.281   2.117   5.789  0.1552  0.1919 -0.3471
 8059TIP3    H145668   4.287   2.055   5.716 -0.7614 -0.6419  0.2850
 8059TIP3    H245669   4.371   2.149   5.801  0.1697  1.0415 -2.4515
 8060TIP3   OH245670   5.665   1.054  12.238 -0.1440 -0.6151  0.2197
 8060TIP3    H145671   5.699   1.117  12.302 -0.5827  0.5096 -0.6238
 8060TIP3    H245672   5.723   1.063  12.162 -0.4278 -0.9693 -0.0411
 8061TIP3   OH245673   6.336   1.996  10.248 -0.1755 -0.3312  0.4534
 8061TIP3    H145674   6.424   2.031  10.236 -0.6874  0.6017 -0.6544
 8061TIP3    H245675   6.347   1.901  10.239  0.5650 -0.1538 -0.6326
 8062TIP3   OH245676   6.798   3.599  11.968  0.4617 -0.4066  0.2682
 8062TIP3    H145677   6.799   3.648  12.050 -0.0479  0.6469 -0.3453
 8062TIP3    H245678   6.882   3.553  11.967  1.2283  0.9455  0.5695
 8063TIP3   OH245679   0.873   3.835  16.598  0.7456  0.0767  0.0522
 8063TIP3    H145680   0.950   3.780  16.606  0.0976 -1.0015 -1.0903
 8063TIP3    H245681   0.890   3.889  16.521  0.4364 -0.0106 -0.0756
 8064TIP3   OH245682   5.860   2.834  15.782  0.1042 -0.3822  0.0489
 8064TIP3    H145683   5.815   2.908  15.742  0.6165 -0.4531 -0.6715
 8064TIP3    H245684   5.953   2.852  15.769  0.2523 -0.8083  0.4906
 8065TIP3   OH245685   5.555   0.355  15.002 -0.3929  0.0441 -0.2107
 8065TIP3    H145686   5.465   0.343  14.971 -0.7826  1.5596  0.2921
 8065TIP3    H245687   5.555   0.321  15.091 -1.0764  2.1157  0.6169
 8066TIP3   OH245688   3.167   1.574   1.299  0.3481  0.0325 -0.8781
 8066TIP3    H145689   3.251   1.618   1.285  0.9362 -1.5230 -2.4248
 8066TIP3    H245690   3.117   1.592   1.219 -0.5210  0.3260 -0.2778
 8067TIP3   OH245691   6.313   3.809   1.684 -0.0306  0.1499 -0.2287
 8067TIP3    H145692   6.386   3.754   1.656 -1.1086 -0.8487 -1.1371
 8067TIP3    H245693   6.320   3.812   1.779  0.6906 -0.6478 -0.2595
 8068TIP3   OH245694   4.616   4.269   5.088 -0.0317  0.2417  0.2895
 8068TIP3    H145695   4.699   4.296   5.128  0.8543 -1.3667 -0.3970
 8068TIP3    H245696   4.551   4.280   5.158  0.5765  2.4212  0.5528
 8069TIP3   OH245697   5.639   4.412   2.054 -0.4537  0.4066  0.7188
 8069TIP3    H145698   5.641   4.404   1.958  1.4720 -1.3450  0.8746
 8069TIP3    H245699   5.627   4.506   2.070  1.6621  1.0599 -1.2431
 8070TIP3   OH245700   2.248   1.132   5.349  0.1554  0.3865  0.0033
 8070TIP3    H145701   2.233   1.210   5.295  2.9268  1.3607  0.5700
 8070TIP3    H245702   2.164   1.116   5.391 -0.6174  2.7555 -0.5484
 8071TIP3   OH245703   0.651   2.232   0.020  0.8120 -0.3936 -0.2882
 8071TIP3    H145704   0.674   2.215  -0.071 -0.2804  1.4109 -0.9158
 8071TIP3    H245705   0.579   2.172   0.039 -0.8603  1.2181 -1.4897
 8072TIP3   OH245706   3.888   5.944  13.157 -0.2433  0.6010 -0.0409
 8072TIP3    H145707   3.944   5.869  13.139 -0.5021  0.9331 -2.4553
 8072TIP3    H245708   3.920   6.013  13.099 -0.1961  2.3030  1.9143
 8073TIP3   OH245709   6.570   1.896   1.408 -0.5547 -0.1263 -0.0481
 8073TIP3    H145710   6.639   1.829   1.419 -0.1097  0.1026 -1.3584
 8073TIP3    H245711   6.492   1.846   1.385 -0.6715 -0.3358  0.7871
 8074TIP3   OH245712   3.675   6.459   4.829  0.4333 -0.5049 -0.0334
 8074TIP3    H145713   3.612   6.523   4.796 -0.1530 -0.9404  0.2305
 8074TIP3    H245714   3.637   6.374   4.807  0.8082 -0.7742  0.3437
 8075TIP3   OH245715   5.352   6.572   0.180  0.0558  0.0213 -0.1618
 8075TIP3    H145716   5.398   6.548   0.099  0.1891  0.9624 -0.3690
 8075TIP3    H245717   5.320   6.660   0.165  0.7271  0.5002  1.0877
 8076TIP3   OH245718   2.801   2.599  12.821  0.5002 -0.6629  0.5768
 8076TIP3    H145719   2.707   2.587  12.838  0.4681 -0.4687  0.5390
 8076TIP3    H245720   2.838   2.511  12.829  0.1149 -0.9490 -0.6556
 8077TIP3   OH245721   1.687   0.786  13.018  0.4696  0.0847 -0.0150
 8077TIP3    H145722   1.702   0.768  13.111 -0.5558  0.0185  0.1505
 8077TIP3    H245723   1.663   0.879  13.015 -0.1553 -0.0751 -0.1258
 8078TIP3   OH245724   5.946   5.613  15.818 -0.1055 -0.0471 -0.5472
 8078TIP3    H145725   5.888   5.637  15.746 -0.0704  0.0450 -0.5450
 8078TIP3    H245726   5.892   5.620  15.897 -0.4658 -1.2527 -0.6721
 8079TIP3   OH245727   0.508   1.558  16.706 -0.2127  0.0874  0.5114
 8079TIP3    H145728   0.495   1.512  16.623 -0.2260 -2.2641  1.7660
 8079TIP3    H245729   0.420   1.580  16.736 -0.3614 -1.0405  0.9444
 8080TIP3   OH245730   5.985   5.627  17.188 -0.0531 -0.6855 -0.1051
 8080TIP3    H145731   5.909   5.679  17.161  1.9677  1.8307 -1.0577
 8080TIP3    H245732   6.009   5.577  17.110  0.2045 -0.3449 -0.2397
 8081TIP3   OH245733   5.029   2.893   4.962 -0.5371  0.1083  0.0470
 8081TIP3    H145734   4.959   2.954   4.940  1.8472  2.6494 -0.7636
 8081TIP3    H245735   5.099   2.914   4.901  1.1479 -1.9839  1.2041
 8082TIP3   OH245736   1.355   0.186   3.388  0.2033  0.0773  0.3772
 8082TIP3    H145737   1.299   0.112   3.412  0.0477  0.1282  0.1713
 8082TIP3    H245738   1.400   0.157   3.309 -0.2551  0.4019 -0.0106
 8083TIP3   OH245739   4.868   2.718  12.037 -0.3053  0.1685  0.0528
 8083TIP3    H145740   4.817   2.798  12.048 -1.4204 -0.4479 -0.5308
 8083TIP3    H245741   4.855   2.670  12.118 -1.2325 -0.3013 -0.3651
 8084TIP3   OH245742   5.275   1.440  14.431 -0.0721  0.3053 -0.2316
 8084TIP3    H145743   5.272   1.527  14.392 -0.2332 -0.2827 -1.5700
 8084TIP3    H245744   5.247   1.453  14.521  1.2941  1.8568 -0.0067
 8085TIP3   OH245745   4.320   4.296   0.010  0.6530  0.0456  0.8617
 8085TIP3    H145746   4.407   4.268   0.038  0.7450  1.3458  1.9498
 8085TIP3    H245747   4.259   4.238   0.057  0.9041 -0.2518  0.8219
 8086TIP3   OH245748   2.540   2.268   3.642 -0.8955 -0.2293 -0.1061
 8086TIP3    H145749   2.467   2.211   3.619 -1.2189  0.6280 -1.2486
 8086TIP3    H245750   2.600   2.261   3.568 -0.6943  0.5064 -0.0177
 8087TIP3   OH245751   6.679   1.595  12.989  0.2686  0.1186  0.2630
 8087TIP3    H145752   6.762   1.640  13.004  1.0181 -1.0631 -0.2777
 8087TIP3    H245753   6.704   1.505  12.967 -1.1154 -0.0501 -0.6985
 8088TIP3   OH245754   4.979   5.163   3.012  0.1262 -0.0188 -0.2042
 8088TIP3    H145755   4.934   5.080   3.029  0.1150  0.3014  1.4710
 8088TIP3    H245756   4.961   5.216   3.090  2.5494  0.5124  0.0149
 8089TIP3   OH245757   6.112   6.624  11.469  0.1559 -0.0270 -0.4996
 8089TIP3    H145758   6.057   6.654  11.541  1.1079  1.4628 -0.3748
 8089TIP3    H245759   6.070   6.543  11.439 -0.0164 -0.9072  1.9800
 8090TIP3   OH245760   4.892   4.373  15.691  0.4154 -0.3743 -0.2011
 8090TIP3    H145761   4.841   4.435  15.639  0.7738  0.0577 -0.0438
 8090TIP3    H245762   4.911   4.300  15.631 -1.2116 -0.9933  0.0218
 8091TIP3   OH245763   5.555   6.693  14.272 -0.2950  0.3846  0.0302
 8091TIP3    H145764   5.522   6.708  14.183  0.6700 -0.4307 -0.4744
 8091TIP3    H245765   5.611   6.769  14.289 -1.4764  1.1859  0.4452
 8092TIP3   OH245766   1.072   6.308  13.816  0.4603 -0.2781 -0.4531
 8092TIP3    H145767   1.050   6.227  13.863 -1.2275  0.0673 -0.6081
 8092TIP3    H245768   1.022   6.376  13.862  0.4544  0.3924 -1.4472
 8093TIP3   OH245769   3.069   4.541   1.408 -0.3158  0.0444  0.2994
 8093TIP3    H145770   3.084   4.594   1.330 -0.5791 -1.1975 -0.6228
 8093TIP3    H245771   2.974   4.542   1.421 -0.3834 -0.6983 -0.0947
 8094TIP3   OH245772   6.480   5.067   0.248  0.1485 -0.0031 -0.0742
 8094TIP3    H145773   6.501   5.065   0.155 -2.1296 -0.9369 -0.6091
 8094TIP3    H245774   6.400   5.120   0.254  0.8563  0.9326  1.4858
 8095TIP3   OH245775   1.337   2.193  15.000 -0.2654  0.3783 -0.4128
 8095TIP3    H145776   1.335   2.284  14.970 -2.1459 -0.2669 -2.3716
 8095TIP3    H245777   1.274   2.190  15.071 -0.3428  0.5659 -0.4724
 8096TIP3   OH245778   0.262   2.115  12.249 -0.4851 -0.1602  0.2272
 8096TIP3    H145779   0.191   2.157  12.200  0.0764 -1.1982 -1.5349
 8096TIP3    H245780   0.280   2.034  12.201  1.1253 -0.4602  1.2790
 8097TIP3   OH245781   4.704   2.937  11.798  0.3711  0.0946 -0.3184
 8097TIP3    H145782   4.608   2.944  11.798  0.3098 -0.6938  0.6315
 8097TIP3    H245783   4.734   3.024  11.826 -0.0816  0.1355  0.0601
 8098TIP3   OH245784   4.422   0.159   4.912  0.0971  0.1734  1.0285
 8098TIP3    H145785   4.412   0.064   4.914 -0.4754  0.2373  1.3798
 8098TIP3    H245786   4.513   0.174   4.884 -0.7482 -0.4204 -2.2108
 8099TIP3   OH245787   6.327   6.773   5.918  0.0625 -0.3568  0.6687
 8099TIP3    H145788   6.362   6.861   5.902  0.1721 -0.2879  1.2687
 8099TIP3    H245789   6.376   6.716   5.858  0.1858 -0.0524  0.4797
 8100TIP3   OH245790   6.466   4.614   4.208 -0.4356  0.1746 -0.2348
 8100TIP3    H145791   6.430   4.676   4.144 -1.3146 -1.2520 -1.1530
 8100TIP3    H245792   6.502   4.543   4.155  1.9928  0.6161  0.7542
 8101TIP3   OH245793   1.292   1.070   2.623  0.2513  0.2789 -0.3297
 8101TIP3    H145794   1.348   1.012   2.572 -0.8497 -0.7138 -0.4206
 8101TIP3    H245795   1.235   1.011   2.672 -1.5788  1.2826 -1.2057
 8102TIP3   OH245796   2.470   1.679   1.314 -0.4940  0.3327 -1.0079
 8102TIP3    H145797   2.385   1.672   1.358 -1.0981 -0.8437 -2.3031
 8102TIP3    H245798   2.533   1.647   1.379 -1.1718  0.1502 -0.4282
 8103TIP3   OH245799   0.759   3.908  14.405  0.3447  0.0166 -0.0203
 8103TIP3    H145800   0.713   3.827  14.385  0.1306  0.0364  0.4081
 8103TIP3    H245801   0.789   3.898  14.495 -0.3498  0.7275  0.2913
 8104TIP3   OH245802   2.754   6.775   4.591 -0.2251  0.7829 -0.0426
 8104TIP3    H145803   2.696   6.841   4.554 -0.1973  1.0572  0.3999
 8104TIP3    H245804   2.770   6.714   4.519 -4.0355 -1.3797  0.8366
 8105TIP3   OH245805   2.585   5.281  10.720 -0.0047  0.3052  0.2538
 8105TIP3    H145806   2.677   5.307  10.724  0.1900 -0.4886  1.1339
 8105TIP3    H245807   2.581   5.217  10.649  0.4314 -0.8610  1.2715
 8106TIP3   OH245808   6.361   6.170  12.416 -0.3715 -0.3494 -0.0543
 8106TIP3    H145809   6.406   6.089  12.393 -1.9866 -1.3983  0.3532
 8106TIP3    H245810   6.365   6.223  12.337 -2.3003 -2.2520 -1.4990
 8107TIP3   OH245811   2.251   2.808   0.965  0.1154 -0.4996 -1.0224
 8107TIP3    H145812   2.161   2.814   0.997  0.2216  0.9703 -0.9627
 8107TIP3    H245813   2.276   2.717   0.981 -0.9048 -0.5903  0.1563
 8108TIP3   OH245814   4.267   2.932  12.156  0.2631 -0.3861 -0.4052
 8108TIP3    H145815   4.359   2.952  12.139 -0.7242  3.0324 -1.9970
 8108TIP3    H245816   4.237   2.887  12.077  0.6516 -1.9662  0.3213
 8109TIP3   OH245817   0.951   0.252   6.184  0.0728 -0.5373 -0.5876
 8109TIP3    H145818   0.900   0.304   6.246 -1.6214 -2.3599 -0.3771
 8109TIP3    H245819   0.995   0.316   6.128 -0.0741  1.1092  1.1384
 8110TIP3   OH245820   2.923   0.484  11.902  0.2488  0.2232  0.2992
 8110TIP3    H145821   2.867   0.519  11.972  0.7673  2.6768 -0.4563
 8110TIP3    H245822   2.999   0.542  11.901  0.6176 -0.2494 -1.7595
 8111TIP3   OH245823   3.513   5.373  16.731 -0.7117  0.4933 -0.1748
 8111TIP3    H145824   3.607   5.355  16.726 -1.0622 -1.0496 -1.4872
 8111TIP3    H245825   3.496   5.430  16.656 -0.7705  1.0345  0.2471
 8112TIP3   OH245826   2.349   1.723   5.763  0.4427 -0.4140  0.0464
 8112TIP3    H145827   2.358   1.697   5.671  0.0604 -0.1669 -0.0635
 8112TIP3    H245828   2.339   1.640   5.810 -0.6859 -0.4900 -0.2950
 8113TIP3   OH245829   2.252   0.343  12.353 -0.4137 -0.5068 -0.1263
 8113TIP3    H145830   2.337   0.375  12.384 -1.9664  0.7541  3.0205
 8113TIP3    H245831   2.243   0.257  12.392 -0.1652 -1.0694 -1.2926
 8114TIP3   OH245832   2.877   2.327  16.123 -0.1878  0.5554 -0.0556
 8114TIP3    H145833   2.830   2.374  16.191  0.3434  1.2063 -0.1299
 8114TIP3    H245834   2.910   2.395  16.065  1.4080  0.1768  0.3587
 8115TIP3   OH245835   0.461   2.344  16.247 -0.0734  0.7914  0.3071
 8115TIP3    H145836   0.552   2.333  16.277  0.4810  0.2483 -1.4976
 8115TIP3    H245837   0.431   2.424  16.290  0.5983 -0.0540  2.4516
 8116TIP3   OH245838   4.126   6.720   3.279 -0.2432 -0.4002 -0.1651
 8116TIP3    H145839   4.161   6.651   3.223  1.2761 -1.0358  1.4980
 8116TIP3    H245840   4.158   6.801   3.241 -0.4957 -0.7258 -1.0731
 8117TIP3   OH245841   5.257   1.164   3.002 -0.3622 -0.3229 -0.5087
 8117TIP3    H145842   5.227   1.229   3.066 -2.0968  0.2847 -1.9012
 8117TIP3    H245843   5.340   1.199   2.970  0.1037 -0.2118  0.7847
 8118TIP3   OH245844   5.187   1.483   0.138 -0.2019  0.5490  0.7877
 8118TIP3    H145845   5.222   1.436   0.063 -0.7013 -2.7846  2.5635
 8118TIP3    H245846   5.133   1.553   0.100 -1.5413 -1.8820 -1.9795
 8119TIP3   OH245847   6.206   1.822   3.848 -0.5962 -0.4952 -0.0324
 8119TIP3    H145848   6.299   1.802   3.860  0.1883  1.5506 -2.3525
 8119TIP3    H245849   6.196   1.834   3.754 -2.8404  1.2164  0.3774
 8120TIP3   OH245850   5.018   0.852   6.428 -0.0388 -0.5771 -0.3591
 8120TIP3    H145851   5.057   0.916   6.487 -0.5153  0.6571 -1.3450
 8120TIP3    H245852   5.074   0.775   6.435 -0.3845 -0.6528  2.0780
 8121TIP3   OH245853   0.563   2.292   4.655  0.2008  0.1523 -0.0227
 8121TIP3    H145854   0.497   2.346   4.611 -0.9152 -0.0611  1.3224
 8121TIP3    H245855   0.634   2.283   4.592 -1.3634 -0.1745 -1.7784
 8122TIP3   OH245856   2.998   3.767   6.387  0.0741 -0.2308  0.4752
 8122TIP3    H145857   3.048   3.812   6.319 -2.1552 -0.3162 -1.2801
 8122TIP3    H245858   2.968   3.686   6.346 -2.2052  0.2165  1.1941
 8123TIP3   OH245859   1.567   0.167   4.182 -0.6943  0.0676 -0.1190
 8123TIP3    H145860   1.649   0.214   4.201 -0.8586  0.7332 -1.0424
 8123TIP3    H245861   1.593   0.075   4.179 -0.5551 -0.0540  2.7901
 8124TIP3   OH245862   1.920   4.621   4.411 -0.7209 -0.1725  0.5387
 8124TIP3    H145863   1.829   4.636   4.387 -0.6761  1.2584  1.2652
 8124TIP3    H245864   1.970   4.647   4.334 -0.8520  0.1416  0.5609
 8125TIP3   OH245865   5.659   2.412  12.273 -0.0660 -0.3131 -0.4902
 8125TIP3    H145866   5.673   2.321  12.298 -1.2229 -1.3397 -3.3318
 8125TIP3    H245867   5.736   2.435  12.220  0.1426  0.3150  0.0704
 8126TIP3   OH245868   3.557   5.061   3.771 -0.7212 -0.0445 -0.1382
 8126TIP3    H145869   3.617   5.121   3.728 -0.0544 -1.9197 -1.8882
 8126TIP3    H245870   3.548   4.988   3.711 -1.8374 -1.5401  1.7644
 8127TIP3   OH245871   1.877   3.213   4.703 -0.4545 -0.1042  0.2755
 8127TIP3    H145872   1.865   3.249   4.790 -0.1215 -0.3422  0.4249
 8127TIP3    H245873   1.925   3.131   4.717  1.7004  1.0008 -0.2910
 8128TIP3   OH245874   0.174   4.067  14.514  0.0173 -0.2904  0.5831
 8128TIP3    H145875   0.152   4.160  14.523 -0.2826 -0.3840  0.8014
 8128TIP3    H245876   0.237   4.051  14.584  0.9450  0.0275 -0.1687
 8129TIP3   OH245877   0.685   6.184  14.730 -0.2847 -0.4336 -0.4441
 8129TIP3    H145878   0.632   6.205  14.807  0.2024  0.5234 -0.3643
 8129TIP3    H245879   0.649   6.239  14.661  0.5297  0.1460 -0.4139
 8130TIP3   OH245880   5.515   0.885  14.959 -0.7328 -0.2196 -0.2308
 8130TIP3    H145881   5.542   0.871  14.868 -3.4241 -1.3212 -0.9279
 8130TIP3    H245882   5.556   0.813  15.007 -0.0424 -0.1639 -0.7332
 8131TIP3   OH245883   2.529   6.068   4.964  0.3084 -0.3613  0.9078
 8131TIP3    H145884   2.447   6.042   5.006  1.3500 -0.6788  2.8266
 8131TIP3    H245885   2.576   5.986   4.949  1.0195 -0.0575  1.4383
 8132TIP3   OH245886   2.366   0.543  11.361  0.0782  0.0460 -0.1120
 8132TIP3    H145887   2.347   0.562  11.269 -0.1947 -0.0942 -0.0864
 8132TIP3    H245888   2.319   0.611  11.410  0.6191  0.4117 -0.0941
 8133TIP3   OH245889   5.930   3.214  11.315  0.2594  0.5819  0.1479
 8133TIP3    H145890   5.938   3.154  11.241 -3.4664 -2.0182  1.6331
 8133TIP3    H245891   6.001   3.189  11.374  1.1809  0.3728 -1.0374
 8134TIP3   OH245892   2.221   3.172   0.958  0.4653  0.4339 -0.1747
 8134TIP3    H145893   2.184   3.253   0.992 -0.3840 -0.7562  1.8599
 8134TIP3    H245894   2.154   3.106   0.976  1.9555 -1.0653  0.0052
 8135TIP3   OH245895   2.586   1.668  14.862  0.0736  0.3905  0.0720
 8135TIP3    H145896   2.547   1.610  14.927 -1.1316  0.3006 -0.7240
 8135TIP3    H245897   2.680   1.664  14.880 -0.1228 -0.7579  0.8817
 8136TIP3   OH245898   3.778   1.432   4.049 -0.3001  0.2415  0.3948
 8136TIP3    H145899   3.689   1.461   4.064 -0.2996 -0.5704  2.1593
 8136TIP3    H245900   3.803   1.470   3.965 -2.3177  0.4227 -0.1329
 8137TIP3   OH245901   5.215   4.815  14.364 -0.3466  0.2486  0.1196
 8137TIP3    H145902   5.230   4.764  14.284 -0.3481  0.4843 -0.0326
 8137TIP3    H245903   5.202   4.750  14.432 -0.3592  0.0450 -0.0773
 8138TIP3   OH245904   1.256   0.347   0.649 -0.6154  0.0786 -0.2901
 8138TIP3    H145905   1.183   0.368   0.591  0.5502 -0.0067 -1.8067
 8138TIP3    H245906   1.227   0.379   0.735 -1.3782  2.4518 -1.3594
 8139TIP3   OH245907   1.716   1.567   5.218  0.3992 -0.2347 -0.1533
 8139TIP3    H145908   1.622   1.551   5.220  0.1316  1.2518  0.2724
 8139TIP3    H245909   1.754   1.486   5.184 -0.9671 -1.0975  0.3266
 8140TIP3   OH245910   0.493   2.006  13.349  0.5744  0.4314 -0.4302
 8140TIP3    H145911   0.562   2.072  13.354  0.1493  0.7456  1.5392
 8140TIP3    H245912   0.445   2.014  13.431 -0.3740 -1.3680 -0.7669
 8141TIP3   OH245913   6.042   1.525   5.978 -0.1212  0.1419  0.0908
 8141TIP3    H145914   6.111   1.536   6.043  0.3177 -0.2234 -0.3140
 8141TIP3    H245915   6.038   1.430   5.963  1.8626  0.4255 -2.6722
 8142TIP3   OH245916   0.308   4.899   0.556 -0.0816 -0.5970 -0.1682
 8142TIP3    H145917   0.215   4.876   0.560 -0.3970  0.6920  0.0103
 8142TIP3    H245918   0.348   4.826   0.510 -0.7275 -2.5557  2.2708
 8143TIP3   OH245919   6.091   4.350  12.555 -0.3522 -0.0419  0.3642
 8143TIP3    H145920   6.179   4.381  12.533 -0.9677 -0.2965 -2.7120
 8143TIP3    H245921   6.038   4.430  12.557 -0.9859 -0.3309 -2.7491
 8144TIP3   OH245922   3.261   0.189   1.705 -0.2106  0.2550  0.2035
 8144TIP3    H145923   3.288   0.103   1.738 -0.1687  1.3428  3.2216
 8144TIP3    H245924   3.174   0.203   1.742 -1.0876  0.6530 -1.9658
 8145TIP3   OH245925   6.800   0.239   1.554 -0.0983 -0.0745  0.1801
 8145TIP3    H145926   6.850   0.207   1.629 -2.2947 -1.1001  1.2606
 8145TIP3    H245927   6.821   0.178   1.483  0.9592  0.1207  0.3128
 8146TIP3   OH245928   3.081   4.639   5.490 -0.1934 -0.1135 -0.5268
 8146TIP3    H145929   3.000   4.640   5.540 -0.1330  2.1359 -0.4258
 8146TIP3    H245930   3.150   4.635   5.555 -0.1735 -0.5145 -0.5673
 8147TIP3   OH245931   1.355   5.805  16.064  0.4030 -0.2322 -0.0620
 8147TIP3    H145932   1.322   5.769  15.982 -0.3583  2.6433 -1.0661
 8147TIP3    H245933   1.449   5.791  16.060  0.3050 -0.6451 -1.1440
 8148TIP3   OH245934   6.487   2.231   1.350 -0.6633  0.8039 -0.0824
 8148TIP3    H145935   6.434   2.291   1.296  0.5321  1.3435 -0.6697
 8148TIP3    H245936   6.536   2.179   1.286  0.7796  1.4517  0.4707
 8149TIP3   OH245937   5.016   0.286  13.251 -0.3689  0.0188  0.2319
 8149TIP3    H145938   5.097   0.293  13.302 -0.3376 -0.5042  0.2572
 8149TIP3    H245939   4.974   0.207  13.284  0.8331 -1.7081 -2.1945
 8150TIP3   OH245940   0.243   3.673   5.886 -0.3381  0.3292 -0.0208
 8150TIP3    H145941   0.182   3.694   5.815  0.9869  3.2256 -0.3961
 8150TIP3    H245942   0.330   3.681   5.846  0.3652 -1.4848  1.0728
 8151TIP3   OH245943   5.313   2.948   5.988  0.1383 -0.6765  0.3438
 8151TIP3    H145944   5.358   2.874   6.027  1.7673 -0.3006 -0.7683
 8151TIP3    H245945   5.346   3.025   6.035 -0.0319 -0.4839  0.1549
 8152TIP3   OH245946   3.669   4.659  15.234  0.3435 -0.3902  0.1729
 8152TIP3    H145947   3.711   4.587  15.281  0.2885  0.4344  1.5093
 8152TIP3    H245948   3.624   4.709  15.302 -0.1812  0.5205 -0.8346
 8153TIP3   OH245949   3.053   2.334   2.253 -0.5639 -0.3400 -0.4685
 8153TIP3    H145950   2.962   2.345   2.280 -0.5554  0.7792 -0.8642
 8153TIP3    H245951   3.060   2.382   2.170  1.0399  1.8523  0.8841
 8154TIP3   OH245952   2.125   6.535   6.674  0.6336  0.4820  0.1886
 8154TIP3    H145953   2.057   6.596   6.701  0.0123 -0.1775  0.1408
 8154TIP3    H245954   2.077   6.461   6.635  1.4913  1.8179 -3.6520
 8155TIP3   OH245955   3.040   0.828  14.991  0.2646  0.1989 -0.0668
 8155TIP3    H145956   3.008   0.764  14.927  0.6760 -0.2014  0.1241
 8155TIP3    H245957   3.136   0.819  14.988  0.2800  0.0472  0.7352
 8156TIP3   OH245958   1.835   5.714  12.715 -0.3229 -0.5569 -0.0528
 8156TIP3    H145959   1.901   5.662  12.669 -1.6733 -2.3362 -0.0732
 8156TIP3    H245960   1.761   5.717  12.655  0.3466  3.0078 -0.8104
 8157TIP3   OH245961   5.293   5.689  15.074 -0.2237 -0.4094  0.2564
 8157TIP3    H145962   5.210   5.712  15.115 -0.6495 -0.4773 -0.5620
 8157TIP3    H245963   5.337   5.773  15.061 -0.4052 -0.3244  0.1894
 8158TIP3   OH245964   0.693   6.429  14.920  0.3068  0.4101 -0.1230
 8158TIP3    H145965   0.776   6.461  14.884  1.1809 -1.6895 -0.0315
 8158TIP3    H245966   0.719   6.369  14.990 -1.3027  0.1085  0.2316
 8159TIP3   OH245967   0.088   5.670  12.053 -0.0869 -0.2615  0.0227
 8159TIP3    H145968   0.044   5.704  12.131  0.8717 -0.5434  0.7049
 8159TIP3    H245969   0.069   5.577  12.052 -0.6063 -0.1481 -0.4190
 8160TIP3   OH245970   4.644   0.771  11.735  0.1224 -0.2988  0.1565
 8160TIP3    H145971   4.611   0.803  11.651  1.6194  1.1991  0.1243
 8160TIP3    H245972   4.713   0.832  11.759  1.4659 -2.1880  1.2423
 8161TIP3   OH245973   5.239   0.626  13.390  0.0210  0.0170  0.0407
 8161TIP3    H145974   5.304   0.568  13.352 -1.1555 -0.8108 -0.7459
 8161TIP3    H245975   5.243   0.610  13.484  0.9952  0.0373  0.0072
 8162TIP3   OH245976   5.570   3.669  14.452 -0.5110  0.3391 -0.0202
 8162TIP3    H145977   5.646   3.719  14.483  0.1783 -0.6206 -0.1514
 8162TIP3    H245978   5.605   3.614  14.381 -1.5796  0.7743 -0.8890
 8163TIP3   OH245979   3.097   2.052  13.548  0.0834  0.6682  0.0129
 8163TIP3    H145980   3.135   2.077  13.465 -1.7221 -1.4107 -1.5043
 8163TIP3    H245981   3.063   2.134  13.585  0.6725  1.5646 -1.4043
 8164TIP3   OH245982   3.654   5.179   1.576 -0.3708 -0.1226  0.8471
 8164TIP3    H145983   3.681   5.255   1.526 -2.0206  0.4035  0.7401
 8164TIP3    H245984   3.733   5.152   1.624  0.9314  0.0276 -1.1508
 8165TIP3   OH245985   6.555   0.786  16.525  0.5411  0.2062  0.6749
 8165TIP3    H145986   6.646   0.772  16.500  0.4553  0.5954  0.1048
 8165TIP3    H245987   6.559   0.838  16.605  0.8332 -1.7483  1.9465
 8166TIP3   OH245988   1.320   5.356  14.370 -0.0081 -0.2889 -0.0902
 8166TIP3    H145989   1.332   5.404  14.289 -0.2285 -0.7990 -0.4281
 8166TIP3    H245990   1.232   5.320  14.364 -0.7083  1.1739  1.1765
 8167TIP3   OH245991   3.447   2.961  14.320 -0.0498  0.0710 -0.4960
 8167TIP3    H145992   3.438   2.969  14.225  1.3114  1.4260 -0.5230
 8167TIP3    H245993   3.431   3.049  14.353  0.7137 -0.1344  0.4318
 8168TIP3   OH245994   4.034   0.077  16.189  0.0560 -0.0081  0.4251
 8168TIP3    H145995   4.046  -0.005  16.236  0.8254  0.3863  0.9173
 8168TIP3    H245996   4.067   0.059  16.101  2.3187  0.4204  1.1579
 8169TIP3   OH245997   2.669   1.379   2.195 -0.3204  0.1966  0.1959
 8169TIP3    H145998   2.763   1.398   2.198 -0.5844  1.6584 -0.2728
 8169TIP3    H245999   2.630   1.445   2.252 -1.0446 -0.5801  0.6058
 8170TIP3   OH246000   1.690   2.652  11.474 -0.0161  0.1063  0.5793
 8170TIP3    H146001   1.701   2.591  11.402 -1.1043  0.4388  0.1255
 8170TIP3    H246002   1.596   2.652  11.492 -0.0351  1.6691  0.5479
 8171TIP3   OH246003   0.033   3.291   5.314 -0.1321  0.5468 -0.1598
 8171TIP3    H146004  -0.058   3.273   5.335  0.1828  0.4415  1.2029
 8171TIP3    H246005   0.042   3.386   5.321  0.2219  0.4144  1.2709
 8172TIP3   OH246006   3.299   4.385  15.776  0.0447  0.8816  0.8091
 8172TIP3    H146007   3.221   4.331  15.773  1.9490 -1.9225 -0.8138
 8172TIP3    H246008   3.284   4.453  15.709 -0.3016 -0.7049 -0.7653
 8173TIP3   OH246009   6.768   6.624  11.209  0.1886  0.7346  0.2670
 8173TIP3    H146010   6.826   6.558  11.171  1.9906  1.7891  1.1729
 8173TIP3    H246011   6.680   6.592  11.188  1.0718 -0.7181 -1.3780
 8174TIP3   OH246012   5.384   2.270   2.985 -0.3491 -0.1353  0.2612
 8174TIP3    H146013   5.345   2.198   3.033 -0.4680 -0.6507 -0.5928
 8174TIP3    H246014   5.473   2.241   2.966 -0.1839  0.2198  0.4972
 8175TIP3   OH246015   5.297   0.796   2.383  0.2650 -0.2375  0.1087
 8175TIP3    H146016   5.339   0.770   2.465  0.5275  0.6834  0.2745
 8175TIP3    H246017   5.244   0.721   2.358  0.1762 -0.5187  1.1315
 8176TIP3   OH246018   6.012   1.710  14.411  0.2068 -0.3918  0.0278
 8176TIP3    H146019   5.930   1.661  14.423 -0.3801  0.7464  0.7704
 8176TIP3    H246020   5.984   1.793  14.372  0.9364  0.2387  0.8246
 8177TIP3   OH246021   5.899   0.249   2.719  0.5822  0.5273  0.0716
 8177TIP3    H146022   5.890   0.240   2.624 -0.0307  0.8005  0.1018
 8177TIP3    H246023   5.853   0.330   2.740 -2.5348 -1.3830  1.0668
 8178TIP3   OH246024   1.339   2.604   3.339  0.0108 -0.0846 -0.1228
 8178TIP3    H146025   1.405   2.657   3.294  0.4815 -0.4920  0.0835
 8178TIP3    H246026   1.264   2.606   3.280  1.0970 -1.7618 -1.6029
 8179TIP3   OH246027   2.924   0.611   5.320  0.0865  0.4061  0.3987
 8179TIP3    H146028   2.878   0.533   5.290  0.5826 -0.3568  1.6205
 8179TIP3    H246029   3.016   0.585   5.326  0.3885  1.3345 -0.0188
 8180TIP3   OH246030   4.496   1.268   3.933 -0.1894 -0.1310  0.7114
 8180TIP3    H146031   4.445   1.294   4.010  0.5737  3.2494  0.1664
 8180TIP3    H246032   4.438   1.286   3.859 -0.6123 -2.5968  0.4011
 8181TIP3   OH246033   4.209   0.110  12.995 -0.8874  0.2466  0.0458
 8181TIP3    H146034   4.222   0.181  13.058 -0.3021  0.0748  0.1246
 8181TIP3    H246035   4.280   0.122  12.931 -2.1662  1.1182 -1.2410
 8182TIP3   OH246036   3.371   6.307   0.830  0.5636  0.1246 -0.7876
 8182TIP3    H146037   3.292   6.361   0.830  0.2805 -0.2781 -1.9358
 8182TIP3    H246038   3.343   6.221   0.861  0.2448 -0.4344 -2.5803
 8183TIP3   OH246039   6.711   3.816  12.183 -0.5584 -0.1637  0.1707
 8183TIP3    H146040   6.693   3.813  12.276  0.7898 -0.7412  0.4339
 8183TIP3    H246041   6.625   3.827  12.141 -1.2057 -0.3381  1.4480
 8184TIP3   OH246042   6.673   4.284  10.520  0.0891  0.3328 -0.8624
 8184TIP3    H146043   6.602   4.301  10.457 -0.0405  0.4031 -0.6962
 8184TIP3    H246044   6.751   4.277  10.465  0.3127  2.3911 -0.8685
 8185TIP3   OH246045   5.785   4.808   6.733  0.7004  0.3105 -0.2753
 8185TIP3    H146046   5.719   4.806   6.663  0.5193 -0.9476 -0.0835
 8185TIP3    H246047   5.735   4.801   6.814  0.8592  2.5265  0.0296
 8186TIP3   OH246048   1.409   5.738  13.312 -0.2049 -0.0359  0.1040
 8186TIP3    H146049   1.352   5.746  13.235 -2.5858 -0.7966  1.7180
 8186TIP3    H246050   1.450   5.652  13.302 -1.5092 -0.6979  0.3190
 8187TIP3   OH246051   4.864   2.339   2.172  0.2224  0.1485 -0.1140
 8187TIP3    H146052   4.788   2.383   2.212 -0.7229  0.0699 -1.7678
 8187TIP3    H246053   4.894   2.401   2.105  0.8072 -0.3995 -0.3581
 8188TIP3   OH246054   2.776   0.060  14.349  0.2251  0.3325  0.5246
 8188TIP3    H146055   2.756  -0.002  14.278  0.9208 -1.9931  2.2927
 8188TIP3    H246056   2.733   0.141  14.322 -0.3712 -0.7731 -2.0737
 8189TIP3   OH246057   5.666   4.021  11.267 -0.3444  0.0186 -0.1559
 8189TIP3    H146058   5.628   4.088  11.325  0.7790  2.5168 -2.1861
 8189TIP3    H246059   5.601   4.011  11.197  0.2459  0.2874 -0.7526
 8190TIP3   OH246060   5.082   1.672  14.575 -0.1899  0.2161 -0.4264
 8190TIP3    H146061   5.049   1.724  14.501 -0.6549  0.4744 -0.0386
 8190TIP3    H246062   5.076   1.731  14.650  0.7946  0.1346 -0.2723
 8191TIP3   OH246063   0.325   4.632  12.892 -0.0635  0.5325 -0.2696
 8191TIP3    H146064   0.294   4.709  12.940 -3.3518 -0.6556 -0.3725
 8191TIP3    H246065   0.249   4.602  12.843  2.1741 -0.6084 -3.2001
 8192TIP3   OH246066   4.473   4.120   3.632 -0.3461  0.3683 -0.4964
 8192TIP3    H146067   4.387   4.110   3.592  0.2422  1.0583 -1.9723
 8192TIP3    H246068   4.526   4.164   3.565  1.0807  0.1884  0.4841
 8193TIP3   OH246069   6.533   1.203   3.502 -0.6415  0.2436 -0.1775
 8193TIP3    H146070   6.616   1.238   3.468 -1.2695  1.5493 -0.3947
 8193TIP3    H246071   6.504   1.141   3.434 -0.0795  0.1263 -0.3160
 8194TIP3   OH246072   3.169   2.621   0.779 -0.4099  0.2596  0.6924
 8194TIP3    H146073   3.243   2.577   0.821 -0.6914 -1.6719 -0.7755
 8194TIP3    H246074   3.209   2.680   0.715 -0.0668  1.0234  1.6128
 8195TIP3   OH246075   3.314   0.350   5.387  0.4250  0.1400 -0.0362
 8195TIP3    H146076   3.237   0.292   5.383  1.3729 -1.1311 -0.1224
 8195TIP3    H246077   3.335   0.356   5.480 -0.3125  1.2214  0.0705
 8196TIP3   OH246078   2.927   0.197  12.924 -0.4727  0.3303 -0.2492
 8196TIP3    H146079   2.994   0.151  12.873 -0.4905 -0.0946  0.0976
 8196TIP3    H246080   2.859   0.219  12.861  0.0213  0.8170 -0.6135
 8197TIP3   OH246081   4.515   2.356   4.865  0.4458 -0.2864 -0.0223
 8197TIP3    H146082   4.493   2.267   4.890  0.3057 -0.5709 -1.1165
 8197TIP3    H246083   4.576   2.346   4.792 -2.2234  0.4691 -2.4795
 8198TIP3   OH246084   0.628   0.942  15.440 -0.0683  0.0883  0.7073
 8198TIP3    H146085   0.634   0.849  15.415  0.9836  0.3475 -0.0284
 8198TIP3    H246086   0.659   0.989  15.363 -0.0995  1.0404  1.2765
 8199TIP3   OH246087   3.006   5.969   1.747  0.0235  0.2632  0.3480
 8199TIP3    H146088   3.047   6.054   1.731  0.9258 -0.3562 -0.7692
 8199TIP3    H246089   3.054   5.909   1.690 -2.7915 -0.4180 -1.4075
 8200TIP3   OH246090   0.933   0.869  16.771 -0.4009  0.1774 -0.0390
 8200TIP3    H146091   1.014   0.824  16.747 -0.5206 -0.3733  0.5561
 8200TIP3    H246092   0.864   0.809  16.744 -0.5500 -0.1814  1.1221
 8201TIP3   OH246093   0.338   6.656  16.882 -0.5433 -0.5677  0.7494
 8201TIP3    H146094   0.257   6.687  16.842 -0.5409  0.7430  1.7297
 8201TIP3    H246095   0.324   6.562  16.896 -1.9653 -0.3169  1.0830
 8202TIP3   OH246096   5.915   5.332  11.743  0.1801 -0.5730  0.2821
 8202TIP3    H146097   5.883   5.334  11.833  0.5354  0.0161  0.3957
 8202TIP3    H246098   5.849   5.379  11.693  0.2277 -0.4773  0.3101
 8203TIP3   OH246099   4.857   2.689   2.222 -0.1028  0.3138  0.0142
 8203TIP3    H146100   4.799   2.742   2.277 -2.2263  1.4861 -3.2377
 8203TIP3    H246101   4.935   2.743   2.210 -0.2042  0.6246  0.7454
 8204TIP3   OH246102   0.945   6.542   2.174 -0.2637 -0.4830 -0.1254
 8204TIP3    H146103   1.031   6.584   2.169  0.3768 -1.8810 -1.2332
 8204TIP3    H246104   0.888   6.596   2.119 -0.4148  1.1312  1.5582
 8205TIP3   OH246105   2.094   4.994   6.422 -0.6622 -0.5400 -0.4055
 8205TIP3    H146106   2.158   4.997   6.493 -0.4120  0.9557 -0.6686
 8205TIP3    H246107   2.127   4.928   6.362  0.8276  0.4905 -0.7223
 8206TIP3   OH246108   6.148   2.787  15.701  0.6861 -0.3450 -0.4390
 8206TIP3    H146109   6.185   2.837  15.774  1.6082 -0.4781 -0.8134
 8206TIP3    H246110   6.224   2.744  15.660  0.0799 -0.8821 -1.0086
 8207TIP3   OH246111   4.701   6.367   0.627 -0.1961  0.2510  0.6359
 8207TIP3    H146112   4.700   6.331   0.539 -3.4528  0.1226  0.6572
 8207TIP3    H246113   4.693   6.291   0.684  0.4955  0.4476  1.0065
 8208TIP3   OH246114   0.195   4.233  10.865  0.0471 -0.0758 -0.1281
 8208TIP3    H146115   0.220   4.314  10.910  1.9799  0.2019 -1.6584
 8208TIP3    H246116   0.100   4.242  10.852  0.1241  1.6177  0.3397
 8209TIP3   OH246117   6.803   4.352   3.221  0.0160 -0.3104 -0.5744
 8209TIP3    H146118   6.813   4.322   3.311 -1.5480  0.6707 -0.0708
 8209TIP3    H246119   6.734   4.297   3.184  2.1402 -2.1932 -1.8669
 8210TIP3   OH246120   1.522   6.689   2.957 -0.0274  0.0114  0.1392
 8210TIP3    H146121   1.441   6.720   2.915 -1.7208 -0.3722  2.9843
 8210TIP3    H246122   1.545   6.610   2.909  0.1828  1.5494 -2.4009
 8211TIP3   OH246123   0.605   0.580  11.662  0.5190  0.8645  0.3463
 8211TIP3    H146124   0.637   0.656  11.612 -0.3906  0.2100 -1.2733
 8211TIP3    H246125   0.680   0.520  11.665  0.3845  0.6333 -0.8055
 8212TIP3   OH246126   2.142   3.040  16.173  0.2360 -0.0138 -0.1767
 8212TIP3    H146127   2.209   3.101  16.204  0.7716  0.2535 -1.7900
 8212TIP3    H246128   2.101   3.084  16.099 -2.6091  0.3388  1.5250
 8213TIP3   OH246129   2.860   6.013   2.361 -0.4697  0.4810  0.2720
 8213TIP3    H146130   2.767   6.021   2.340  0.0991  1.5621 -1.9131
 8213TIP3    H246131   2.879   6.088   2.417 -0.8033  0.4808  0.3854
 8214TIP3   OH246132   5.072   2.144   4.065 -0.2488 -0.0899 -0.3624
 8214TIP3    H146133   5.117   2.221   4.031  2.3960 -2.2399 -1.9796
 8214TIP3    H246134   4.985   2.147   4.024 -0.4481  2.3984  0.2080
 8215TIP3   OH246135   6.499   5.943  12.307 -0.0249  0.6148  0.3050
 8215TIP3    H146136   6.579   5.990  12.286  0.9875 -0.5870  1.3314
 8215TIP3    H246137   6.521   5.850  12.294 -1.1240  0.2387  0.9635
 8216TIP3   OH246138   4.607   4.928  13.872 -0.3061 -0.0899  0.2662
 8216TIP3    H146139   4.555   5.005  13.895  0.5893  0.5276  0.2157
 8216TIP3    H246140   4.695   4.961  13.856  0.0770 -1.1143  0.1858
 8217TIP3   OH246141   2.529   5.947  13.915  0.4883  0.9934  0.4550
 8217TIP3    H146142   2.472   5.961  13.990  1.1511  0.6826  1.0169
 8217TIP3    H246143   2.547   5.853  13.915  1.3378  1.1517  0.5240
 8218TIP3   OH246144   1.349   1.937  14.762  0.6795  0.0446  0.8173
 8218TIP3    H146145   1.363   1.861  14.818  0.4730  0.9023  2.0819
 8218TIP3    H246146   1.395   2.008  14.807  2.2945  0.3139 -1.2235
 8219TIP3   OH246147   2.370   0.824   0.218  0.1313  0.5107  0.6635
 8219TIP3    H146148   2.465   0.825   0.233  0.4591  1.0310 -1.2532
 8219TIP3    H246149   2.347   0.915   0.204 -0.9954  0.5975  2.8840
 8220TIP3   OH246150   2.766   2.294   0.408 -0.7208 -0.4852  0.7288
 8220TIP3    H146151   2.775   2.293   0.503 -0.2753 -1.3255  0.6813
 8220TIP3    H246152   2.826   2.227   0.377 -0.3623  0.2431 -0.1953
 8221TIP3   OH246153   2.762   1.883  11.048  0.7219 -0.6460  0.7112
 8221TIP3    H146154   2.698   1.850  10.985  1.3195  1.6772 -1.1881
 8221TIP3    H246155   2.842   1.836  11.028  0.1745 -2.0141  1.6815
 8222TIP3   OH246156   2.209   2.332   0.720 -0.2189 -0.2676  0.4372
 8222TIP3    H146157   2.168   2.317   0.805 -0.1868 -0.5138  0.4073
 8222TIP3    H246158   2.237   2.246   0.691 -0.4415 -0.2126  0.0674
 8223TIP3   OH246159   1.360   1.139  16.526  0.1838  0.6862 -0.4148
 8223TIP3    H146160   1.312   1.059  16.504  1.2594  0.5709 -2.4017
 8223TIP3    H246161   1.293   1.197  16.564 -1.0953 -0.2399 -1.2245
 8224TIP3   OH246162   1.843   6.272  16.808  0.3519  0.1145 -0.1545
 8224TIP3    H146163   1.886   6.190  16.833 -0.2147 -0.2984 -0.5228
 8224TIP3    H246164   1.752   6.261  16.836  0.7045  1.4106  1.6061
 8225TIP3   OH246165   1.012   3.546  14.424  0.2631  0.3436  0.2755
 8225TIP3    H146166   1.023   3.502  14.340 -0.1904  1.2483 -0.2745
 8225TIP3    H246167   0.983   3.478  14.484  0.1582 -0.2218 -0.4131
 8226TIP3   OH246168   1.263   4.568  15.919  0.3973 -0.5217 -0.1943
 8226TIP3    H146169   1.292   4.488  15.963  2.3544  0.9039  1.1632
 8226TIP3    H246170   1.304   4.639  15.967 -3.9638  1.5678  0.6760
 8227TIP3   OH246171   1.585   5.100  13.958  0.1269  0.0236  0.9108
 8227TIP3    H146172   1.582   5.081  13.864  3.0300  0.1793  0.7668
 8227TIP3    H246173   1.564   5.193  13.964  3.1313  0.8128  0.0781
 8228TIP3   OH246174   5.662   1.470   0.961  0.5171  0.3966 -0.6608
 8228TIP3    H146175   5.691   1.405   1.025 -0.3776 -0.3315 -0.9774
 8228TIP3    H246176   5.583   1.508   0.999 -0.1716 -0.2283 -1.4302
 8229TIP3   OH246177   4.902   5.339  13.388 -0.0378  0.2789  0.1811
 8229TIP3    H146178   4.946   5.268  13.341 -0.8115  0.7882 -1.3223
 8229TIP3    H246179   4.947   5.418  13.361  1.5701  0.2832  2.7363
 8230TIP3   OH246180   4.173   5.011  12.775 -0.1310 -0.2862  0.5777
 8230TIP3    H146181   4.200   5.082  12.716 -0.4780 -0.6112  0.0147
 8230TIP3    H246182   4.251   4.957  12.785 -0.3402 -0.7734 -0.3818
 8231TIP3   OH246183   1.612   5.070  14.602 -0.0452 -0.4466  0.4577
 8231TIP3    H146184   1.531   5.019  14.594  0.0771 -0.7454  1.0494
 8231TIP3    H246185   1.594   5.132  14.673  0.4002 -0.8303  0.9152
 8232TIP3   OH246186   4.486   3.372  10.374 -0.4663  0.3215  0.5558
 8232TIP3    H146187   4.396   3.340  10.376 -0.3687  0.0325  0.3991
 8232TIP3    H246188   4.482   3.459  10.414 -0.8509  0.4013  0.3415
 8233TIP3   OH246189   3.921   2.865  16.503 -0.5017  0.6977 -0.8693
 8233TIP3    H146190   3.931   2.852  16.409 -0.6485  1.0371 -0.9317
 8233TIP3    H246191   3.829   2.888  16.514 -1.3237 -2.5767 -0.2915
 8234TIP3   OH246192   5.864   2.950   2.457 -0.4031 -0.2045  0.0366
 8234TIP3    H146193   5.947   2.981   2.420  0.1529 -0.3644  1.1259
 8234TIP3    H246194   5.865   2.982   2.547 -0.8002 -1.5631  0.5370
 8235TIP3   OH246195   1.171   1.151  12.402  0.3493  0.1798 -0.0711
 8235TIP3    H146196   1.228   1.117  12.333 -0.3660  0.4424 -0.8048
 8235TIP3    H246197   1.150   1.075  12.456  0.4769 -0.1391 -0.4676
 8236TIP3   OH246198   3.797   2.651  10.473 -0.4391  0.4994  0.5026
 8236TIP3    H146199   3.802   2.719  10.540  0.4408 -0.0705  1.0265
 8236TIP3    H246200   3.847   2.578  10.509 -1.2939 -0.3946 -0.0948
 8237TIP3   OH246201   1.398   3.963  16.266 -0.0355  0.0376 -0.0805
 8237TIP3    H146202   1.330   4.012  16.312 -1.3987 -1.2239 -0.6822
 8237TIP3    H246203   1.350   3.899  16.213  1.6836 -2.8404  1.6964
 8238TIP3   OH246204   3.930   0.952   4.443  0.2220  0.0461 -0.2176
 8238TIP3    H146205   3.982   0.919   4.516  1.7672  1.8045 -0.4873
 8238TIP3    H246206   3.839   0.942   4.471  0.7612 -1.0449  1.1604
 8239TIP3   OH246207   0.258   3.762   4.445  0.0998  0.4150 -0.0813
 8239TIP3    H146208   0.285   3.815   4.520 -0.1475  0.4205  0.0062
 8239TIP3    H246209   0.241   3.675   4.482 -1.2874  0.7522  0.1009
 8240TIP3   OH246210   4.429   1.960   4.442  0.0402  0.2526 -0.1820
 8240TIP3    H146211   4.453   1.937   4.532 -1.0023 -1.2708 -0.2828
 8240TIP3    H246212   4.394   1.879   4.404 -0.7705  1.2103 -1.5408
 8241TIP3   OH246213   6.527   1.548   2.766 -0.0231 -0.4136  0.2785
 8241TIP3    H146214   6.542   1.631   2.722 -0.5812 -0.2182  0.4501
 8241TIP3    H246215   6.545   1.482   2.699  1.4628 -0.1932  0.4433
 8242TIP3   OH246216   2.020   1.010  15.851  0.2418 -0.1296  0.2970
 8242TIP3    H146217   1.956   0.980  15.916  1.9305 -0.7100  1.7362
 8242TIP3    H246218   2.063   0.931  15.821  0.4093  0.2735 -0.5406
 8243TIP3   OH246219   5.959   2.521  15.926  0.7762  0.2664 -0.0219
 8243TIP3    H146220   5.927   2.506  15.837  2.0636  0.6712 -0.5689
 8243TIP3    H246221   6.052   2.499  15.922  1.1700  1.6816  0.8602
 8244TIP3   OH246222   4.363   3.682   1.763 -0.2486 -0.0641  0.3380
 8244TIP3    H146223   4.335   3.601   1.807  0.0305  0.8230  2.2032
 8244TIP3    H246224   4.426   3.721   1.824  0.2099  1.1564 -0.9177
 8245TIP3   OH246225   2.040   4.140   5.450 -0.5034  0.2478 -0.4406
 8245TIP3    H146226   1.965   4.199   5.443  0.4272  1.4919 -0.1196
 8245TIP3    H246227   2.031   4.099   5.536  0.5379  2.3207  0.6994
 8246TIP3   OH246228   6.611   4.418   5.053  0.2378 -0.1573 -0.4388
 8246TIP3    H146229   6.560   4.469   5.116 -0.6542 -0.7285 -0.6820
 8246TIP3    H246230   6.576   4.329   5.060  0.9182 -0.4696 -0.9183
 8247TIP3   OH246231   0.603   6.592  16.815  0.5382  0.0814  0.3195
 8247TIP3    H146232   0.515   6.627  16.831 -0.2366 -1.1692 -1.1858
 8247TIP3    H246233   0.661   6.660  16.849 -0.9873  1.2182  0.7345
 8248TIP3   OH246234   5.619   4.947  17.038 -0.4832 -0.2028 -0.2928
 8248TIP3    H146235   5.591   5.037  17.023 -1.9399 -0.5853  0.1032
 8248TIP3    H246236   5.550   4.909  17.092  0.6565 -1.2425  0.4472
 8249TIP3   OH246237   2.299   5.423  12.378  0.2563  0.1574  0.5528
 8249TIP3    H146238   2.296   5.509  12.419 -0.1074  0.0262  0.8019
 8249TIP3    H246239   2.373   5.428  12.317 -1.0297  1.3322 -0.9442
 8250TIP3   OH246240   4.127   2.347   4.116  0.3407  0.0123 -0.2016
 8250TIP3    H146241   4.162   2.392   4.193 -1.1565 -1.2736  1.2762
 8250TIP3    H246242   4.174   2.264   4.113  0.5449  0.1492 -0.8066
 8251TIP3   OH246243   2.801   4.307   5.302  0.1124 -0.1307  0.3169
 8251TIP3    H146244   2.883   4.314   5.351 -0.2399  0.0745  0.8843
 8251TIP3    H246245   2.733   4.323   5.367 -0.3188  1.2627 -0.4574
 8252TIP3   OH246246   2.433   4.043  12.213 -0.3885 -0.4032 -0.6380
 8252TIP3    H146247   2.504   4.019  12.153 -0.7046  0.8098 -1.5188
 8252TIP3    H246248   2.474   4.045  12.299  0.6293  0.1667 -1.1254
 8253TIP3   OH246249   5.941   4.468   2.706  0.0765 -0.3685  0.0150
 8253TIP3    H146250   5.943   4.373   2.714 -1.1517 -0.3012  1.3055
 8253TIP3    H246251   6.023   4.490   2.663 -0.2087 -2.1150 -1.4695
 8254TIP3   OH246252   5.454   6.618  14.788  0.0959 -0.4129 -0.1512
 8254TIP3    H146253   5.470   6.656  14.874  1.0256 -0.3696 -0.3419
 8254TIP3    H246254   5.436   6.693  14.732  0.3276 -0.3788 -0.1791
 8255TIP3   OH246255   4.412   5.954   0.851  0.2122 -0.4518 -0.6287
 8255TIP3    H146256   4.321   5.960   0.881  0.0810 -1.0129 -0.9122
 8255TIP3    H246257   4.464   5.947   0.931  0.0311  0.1709 -0.4527
 8256TIP3   OH246258   4.081   2.728  11.738 -0.1685  0.0262 -0.0574
 8256TIP3    H146259   4.001   2.697  11.695 -0.9603 -0.6564  1.8472
 8256TIP3    H246260   4.151   2.673  11.701 -0.6814  0.1550 -1.2163
 8257TIP3   OH246261   0.538   3.172  14.798 -0.2095  0.6541  0.4353
 8257TIP3    H146262   0.467   3.168  14.734  1.2791  0.7881 -1.2713
 8257TIP3    H246263   0.538   3.086  14.840  0.3965 -0.3258 -1.5317
 8258TIP3   OH246264   3.795   0.960  12.671 -0.7593 -0.2537  0.8750
 8258TIP3    H146265   3.868   1.019  12.652 -1.1399 -0.2865 -0.7250
 8258TIP3    H246266   3.824   0.875  12.638 -0.8386 -0.6460  1.7866
 8259TIP3   OH246267   0.570   3.215  16.436  0.4150 -0.1876 -0.7454
 8259TIP3    H146268   0.621   3.223  16.356  0.3884 -1.6427 -0.9332
 8259TIP3    H246269   0.486   3.179  16.406  0.2045 -0.1972 -0.1386
 8260TIP3   OH246270   3.233   0.926  15.668 -0.0884 -0.2469  0.3352
 8260TIP3    H146271   3.268   0.882  15.745  2.4721  0.4686 -0.3722
 8260TIP3    H246272   3.248   1.019  15.684  1.3724 -0.1535 -1.4097
 8261TIP3   OH246273   3.334   2.197  13.668  1.0565  0.3095  0.3331
 8261TIP3    H146274   3.384   2.121  13.639  1.5889  1.2820 -1.3543
 8261TIP3    H246275   3.382   2.272  13.635  0.6967  1.4133  2.2456
 8262TIP3   OH246276   6.130   5.509  14.668  0.3527  0.2994 -0.6312
 8262TIP3    H146277   6.056   5.476  14.721  1.6852 -1.7794  0.0024
 8262TIP3    H246278   6.098   5.591  14.631 -0.9797  1.3382  2.6372
 8263TIP3   OH246279   1.543   2.420   1.759 -0.4337  0.2243  0.3618
 8263TIP3    H146280   1.577   2.510   1.763 -0.6739  0.4144 -1.3895
 8263TIP3    H246281   1.562   2.391   1.670 -0.3908 -1.4665  0.8918
 8264TIP3   OH246282   2.564   6.774  16.231  0.0587 -0.5152 -0.3183
 8264TIP3    H146283   2.572   6.684  16.199 -2.0082 -0.0027 -2.3611
 8264TIP3    H246284   2.654   6.799  16.252  1.1551 -1.8172 -3.2278
 8265TIP3   OH246285   2.042   0.330   3.230 -0.4609  0.0623  0.2128
 8265TIP3    H146286   2.033   0.321   3.325  1.0410 -1.0470  0.2717
 8265TIP3    H246287   2.094   0.254   3.204 -1.6470 -0.1345 -1.6382
 8266TIP3   OH246288   5.014   0.599  15.299 -0.3936  0.0937 -0.2928
 8266TIP3    H146289   4.944   0.594  15.365 -0.6568 -0.6403 -0.6141
 8266TIP3    H246290   5.016   0.511  15.261  0.8669  0.0555 -0.1299
 8267TIP3   OH246291   4.057   5.963   3.830  0.0750  0.8067 -0.1994
 8267TIP3    H146292   4.040   5.869   3.841 -2.4048  1.3683  1.2232
 8267TIP3    H246293   4.014   6.003   3.906  0.7370  3.1338 -1.0388
 8268TIP3   OH246294   1.057   5.299  15.416  0.3271 -0.0157  0.3129
 8268TIP3    H146295   1.081   5.323  15.326 -0.3319 -1.1301 -0.1700
 8268TIP3    H246296   0.961   5.299  15.416  0.2837 -3.0387  0.1688
 8269TIP3   OH246297   3.673   6.648  13.050  0.1463 -0.0219 -0.0558
 8269TIP3    H146298   3.599   6.666  13.109 -0.2978  0.0834 -0.6314
 8269TIP3    H246299   3.713   6.569  13.085 -0.3044 -0.1376  0.2087
 8270TIP3   OH246300   6.316   0.681  16.655 -0.4433 -0.0608 -0.6349
 8270TIP3    H146301   6.247   0.743  16.677 -0.5929 -0.8207  1.1323
 8270TIP3    H246302   6.386   0.734  16.617 -1.1067  0.9984 -0.3765
 8271TIP3   OH246303   2.131   2.071  17.029 -0.5751  0.0826 -0.3623
 8271TIP3    H146304   2.203   2.046  17.087 -0.5400  0.3966 -0.2686
 8271TIP3    H246305   2.130   2.004  16.961  0.7822  0.9054 -1.2209
 8272TIP3   OH246306   5.504   0.203  12.040  0.2065 -0.7492  0.0612
 8272TIP3    H146307   5.578   0.264  12.035 -0.0457 -0.4757 -0.3575
 8272TIP3    H246308   5.470   0.199  11.951 -1.1730  0.2446  0.5302
 8273TIP3   OH246309   5.904   4.560   1.762 -0.0685 -0.4484 -0.2119
 8273TIP3    H146310   5.895   4.466   1.779 -1.3560 -0.4997 -1.0828
 8273TIP3    H246311   5.910   4.599   1.849  0.0781 -1.3084  0.1704
 8274TIP3   OH246312   0.074   2.747  11.458 -0.2273  0.0301  0.2378
 8274TIP3    H146313   0.156   2.768  11.501  0.5656  0.4084 -1.4377
 8274TIP3    H246314   0.081   2.654  11.436 -0.2122  0.0788  0.0335
 8275TIP3   OH246315   0.870   4.798   0.717  0.0916 -0.3636  0.0264
 8275TIP3    H146316   0.811   4.735   0.758 -0.8709  0.7463  0.3631
 8275TIP3    H246317   0.861   4.877   0.769  2.2821 -0.3324  0.4020
 8276TIP3   OH246318   3.679   2.929   6.644 -0.5089  0.9730  0.4472
 8276TIP3    H146319   3.739   2.856   6.630  0.2736  1.8964 -1.1075
 8276TIP3    H246320   3.592   2.888   6.651  0.1861 -0.2969  2.0429
 8277TIP3   OH246321   5.619   5.343  14.771  0.9730  0.2920  0.3975
 8277TIP3    H146322   5.629   5.411  14.837  0.0177  1.4293 -0.6160
 8277TIP3    H246323   5.555   5.283  14.808 -1.2707  2.1219 -0.4096
 8278TIP3   OH246324   4.838   6.605   1.841  0.1405 -0.0320 -0.6359
 8278TIP3    H146325   4.792   6.649   1.913 -0.9142 -0.3565 -1.1112
 8278TIP3    H246326   4.807   6.515   1.844 -0.3167  0.0781 -1.8392
 8279TIP3   OH246327   0.556   4.439   1.593  0.4831 -0.0532  0.0870
 8279TIP3    H146328   0.558   4.493   1.515 -1.1225  0.0725  0.1210
 8279TIP3    H246329   0.487   4.477   1.647  0.0514 -1.4971  0.5725
 8280TIP3   OH246330   6.212   4.582  11.910  0.1465  0.1203  0.1771
 8280TIP3    H146331   6.282   4.638  11.945 -2.6601  3.6425  0.4118
 8280TIP3    H246332   6.143   4.584  11.976 -0.7407 -2.2999 -0.6026
 8281TIP3   OH246333   6.525   0.514   2.254 -0.1583  0.5384 -0.6448
 8281TIP3    H146334   6.549   0.471   2.336  1.2960  0.5649 -1.0268
 8281TIP3    H246335   6.450   0.569   2.276 -0.2965 -0.0911  0.4753
 8282TIP3   OH246336   3.291   0.583   6.578  0.3036 -0.2928  0.3122
 8282TIP3    H146337   3.305   0.677   6.568  1.4596 -0.5173 -0.1980
 8282TIP3    H246338   3.377   0.544   6.566 -0.4136 -1.5411 -0.9168
 8283TIP3   OH246339   4.104   3.879   2.189  0.3188 -0.3280 -0.3234
 8283TIP3    H146340   4.099   3.903   2.097  2.2152  1.0303 -0.0978
 8283TIP3    H246341   4.190   3.837   2.198  0.9130  1.1749  1.1706
 8284TIP3   OH246342   3.110   6.587  14.128 -0.3401  0.4272 -0.2083
 8284TIP3    H146343   3.163   6.649  14.178 -0.2155  0.0315  0.1479
 8284TIP3    H246344   3.171   6.549  14.065 -0.5458  1.0849 -0.8129
 8285TIP3   OH246345   1.997   1.924   5.576  0.9782  0.4876 -0.2589
 8285TIP3    H146346   2.025   1.936   5.667  0.6897  1.7859 -0.3339
 8285TIP3    H246347   1.903   1.939   5.577  1.0160  0.7794 -0.8188
 8286TIP3   OH246348   0.838   5.175   6.035  0.0888 -0.3707 -0.1197
 8286TIP3    H146349   0.808   5.102   5.980 -1.9782  0.3497 -0.0028
 8286TIP3    H246350   0.794   5.252   5.999  5.0687  1.5235 -2.5257
 8287TIP3   OH246351   2.782   0.126   2.141  0.7653 -0.0907 -0.4216
 8287TIP3    H146352   2.873   0.100   2.154  1.2315  1.7519  0.2504
 8287TIP3    H246353   2.772   0.134   2.047  1.5395  0.5078 -0.4526
 8288TIP3   OH246354   3.287   0.018   0.415  0.3062  0.2531 -0.3950
 8288TIP3    H146355   3.235  -0.039   0.473  0.1655 -0.5891 -1.3431
 8288TIP3    H246356   3.273   0.106   0.451  0.3494 -0.2735  0.9507
 8289TIP3   OH246357   1.660   4.591  12.319 -0.1666  0.5641  0.2552
 8289TIP3    H146358   1.740   4.546  12.344 -0.4676  0.3977  0.9129
 8289TIP3    H246359   1.592   4.553  12.374 -0.8143  0.2704 -0.7269
 8290TIP3   OH246360   5.803   1.458  16.965 -0.6615  0.1616  0.5222
 8290TIP3    H146361   5.717   1.489  16.936 -0.6255 -0.1490  0.0850
 8290TIP3    H246362   5.831   1.523  17.030 -0.7490  0.8442 -0.1152
 8291TIP3   OH246363   3.101   0.854   4.619  0.2338  0.2037  0.4615
 8291TIP3    H146364   3.188   0.815   4.608 -1.0681 -2.1686 -2.1958
 8291TIP3    H246365   3.057   0.795   4.680 -0.3847 -0.1379 -0.3148
 8292TIP3   OH246366   1.298   3.791   2.754 -0.0418 -0.5283  0.3173
 8292TIP3    H146367   1.311   3.725   2.686  2.9473 -0.6331  0.9171
 8292TIP3    H246368   1.311   3.875   2.709  1.6157 -0.5874  0.6360
 8293TIP3   OH246369   5.613   5.792  16.658  0.1587 -0.1428 -0.2639
 8293TIP3    H146370   5.647   5.871  16.700  1.6785 -0.4860 -0.7968
 8293TIP3    H246371   5.632   5.805  16.565  0.8411 -1.3127 -0.3044
 8294TIP3   OH246372   0.450   0.895   1.595  0.5010  0.2847 -0.0725
 8294TIP3    H146373   0.511   0.847   1.651  1.5854  1.1522 -0.4899
 8294TIP3    H246374   0.365   0.883   1.636  0.9587 -0.8671  0.5765
 8295TIP3   OH246375   2.949   2.370  12.568  0.0147 -0.4701 -0.3340
 8295TIP3    H146376   2.979   2.389  12.657  0.8169  1.7329 -1.0286
 8295TIP3    H246377   3.030   2.366  12.517 -0.5213 -0.2552 -1.2048
 8296TIP3   OH246378   2.292   2.606  12.938  0.5730  0.8208  0.0406
 8296TIP3    H146379   2.205   2.617  12.899  0.2168  0.3892  0.6914
 8296TIP3    H246380   2.322   2.696  12.954  0.0489  0.9654  0.2428
 8297TIP3   OH246381   1.034   5.256   1.588 -0.4964 -0.0682  0.0955
 8297TIP3    H146382   1.042   5.247   1.493  0.9165 -4.1870  0.5046
 8297TIP3    H246383   1.116   5.299   1.615 -0.5874  0.4582 -0.4411
 8298TIP3   OH246384   3.612   2.872  11.786 -0.2713  0.0337  0.0881
 8298TIP3    H146385   3.586   2.962  11.765  0.5958  0.1727 -0.4100
 8298TIP3    H246386   3.558   2.817  11.730  0.5141  0.3234 -0.9766
 8299TIP3   OH246387   4.945   5.251   5.534  0.1455  0.0833 -0.1123
 8299TIP3    H146388   4.911   5.337   5.556 -0.2035  0.1113 -0.7401
 8299TIP3    H246389   4.962   5.209   5.618  0.0184  0.6489  0.1935
 8300TIP3   OH246390   6.476   2.236  10.814 -0.4517 -0.4230 -0.3886
 8300TIP3    H146391   6.486   2.316  10.762  0.5639  0.2824  0.8682
 8300TIP3    H246392   6.438   2.172  10.753 -3.1936  1.5729 -0.8629
 8301TIP3   OH246393   0.705   4.853   0.475 -0.4643  0.3588  0.3303
 8301TIP3    H146394   0.731   4.896   0.557 -0.5350  0.4763  0.2905
 8301TIP3    H246395   0.778   4.794   0.455 -0.8209 -0.2880  0.9236
 8302TIP3   OH246396   5.189   6.425   2.793 -0.0940  0.0769  0.0680
 8302TIP3    H146397   5.272   6.405   2.750 -0.0995 -1.4830  0.7640
 8302TIP3    H246398   5.210   6.495   2.854  0.3250  0.9371 -1.0374
 8303TIP3   OH246399   5.553   1.572  16.871  0.0034 -0.4966  0.4684
 8303TIP3    H146400   5.515   1.562  16.783  1.1910 -0.7297 -0.0290
 8303TIP3    H246401   5.483   1.546  16.930  0.1612 -3.3864 -0.5018
 8304TIP3   OH246402   4.015   3.064  15.860  0.0525  0.0915 -0.2428
 8304TIP3    H146403   4.061   3.148  15.849  0.4571 -0.2080 -0.8878
 8304TIP3    H246404   3.928   3.079  15.823  0.1590  0.2033 -0.4502
 8305TIP3   OH246405   4.865   0.389   1.990  0.0557  0.0876  0.1057
 8305TIP3    H146406   4.792   0.329   2.008 -0.3359  0.8781  1.2037
 8305TIP3    H246407   4.849   0.420   1.901 -0.2468 -0.7315 -0.1303
 8306TIP3   OH246408   1.515   6.754  14.254 -0.7860  0.0769  0.2492
 8306TIP3    H146409   1.421   6.749  14.236 -0.8641  1.3017  0.2830
 8306TIP3    H246410   1.523   6.812  14.329 -0.0320 -0.4300  0.5717
 8307TIP3   OH246411   1.314   6.628  16.537 -0.0368 -0.0344 -0.0035
 8307TIP3    H146412   1.294   6.680  16.459  0.4887 -0.7002 -0.5874
 8307TIP3    H246413   1.245   6.561  16.539  0.3038 -0.3928 -0.2443
 8308TIP3   OH246414   3.270   5.124  12.982  0.0218  0.2854  0.6952
 8308TIP3    H146415   3.348   5.168  13.015  0.5257 -1.7210  2.2802
 8308TIP3    H246416   3.303   5.066  12.913 -0.5517  1.8106 -0.9225
 8309TIP3   OH246417   4.050   0.307   1.472 -0.4416 -0.6006  0.4285
 8309TIP3    H146418   3.989   0.371   1.509  0.5276  0.9018 -0.4754
 8309TIP3    H246419   4.021   0.296   1.381 -0.4033 -1.1869  0.4851
 8310TIP3   OH246420   5.821   6.710   1.149  0.0064 -0.4511  0.2101
 8310TIP3    H146421   5.811   6.737   1.058 -0.6344  1.5351  0.8524
 8310TIP3    H246422   5.731   6.695   1.179  0.2101 -1.0061  0.5453
 8311TIP3   OH246423   0.186   5.453  16.291  0.4702  0.0022 -0.0814
 8311TIP3    H146424   0.129   5.395  16.342 -1.3923  0.4411 -1.5865
 8311TIP3    H246425   0.267   5.403  16.279  0.3132 -0.7423  1.8716
 8312TIP3   OH246426   6.497   2.775   6.340 -0.0226  0.1990 -0.1790
 8312TIP3    H146427   6.430   2.711   6.363  0.3334 -0.8753 -2.0177
 8312TIP3    H246428   6.483   2.848   6.401 -2.0211 -0.5584  0.2996
 8313TIP3   OH246429   5.128   4.654   0.374 -0.0694  0.6028 -0.1022
 8313TIP3    H146430   5.208   4.658   0.321  1.0701  1.0474  1.5684
 8313TIP3    H246431   5.141   4.577   0.430 -2.5275 -1.5581 -2.3674
 8314TIP3   OH246432   1.206   2.436   4.983 -0.1207 -0.3485 -0.4504
 8314TIP3    H146433   1.215   2.345   4.955  0.9924 -0.7817  1.2231
 8314TIP3    H246434   1.296   2.466   4.993 -0.4826  0.1607  1.4149
 8315TIP3   OH246435   5.770   1.384   6.251 -0.2392 -0.1131 -0.1254
 8315TIP3    H146436   5.739   1.294   6.260 -1.6064  0.4563  1.0085
 8315TIP3    H246437   5.865   1.378   6.260 -0.3545 -1.3946  0.2795
 8316TIP3   OH246438   4.707   1.638   4.917 -0.0036 -0.3986  0.6726
 8316TIP3    H146439   4.719   1.717   4.864 -1.0015 -0.5467  0.2166
 8316TIP3    H246440   4.750   1.568   4.867 -0.9866 -0.5466  0.0433
 8317TIP3   OH246441   4.037   4.603  14.265 -0.5824  0.2540 -0.1630
 8317TIP3    H146442   4.021   4.553  14.345  0.3651 -2.2094 -1.4423
 8317TIP3    H246443   4.129   4.589  14.245 -0.7486  1.0026 -1.5616
 8318TIP3   OH246444   0.603   6.481  14.473 -0.3328 -0.3088 -0.8677
 8318TIP3    H146445   0.564   6.456  14.556 -0.6783 -2.1380 -1.5485
 8318TIP3    H246446   0.548   6.552  14.441 -0.5997 -0.0554  0.1373
 8319TIP3   OH246447   2.145   6.367  15.553 -0.0711  0.3934 -0.2793
 8319TIP3    H146448   2.124   6.426  15.481  0.1356  0.2038 -0.4930
 8319TIP3    H246449   2.145   6.280  15.514 -1.7114  0.1008  0.3047
 8320TIP3   OH246450   1.708   4.494  16.870  0.2669 -0.0471  0.0410
 8320TIP3    H146451   1.784   4.470  16.817 -0.1198  2.0114 -1.5177
 8320TIP3    H246452   1.732   4.578  16.909 -1.1546  0.5604 -0.3705
 8321TIP3   OH246453   2.624   1.513  15.786  0.1870 -0.0110  0.2206
 8321TIP3    H146454   2.557   1.465  15.834  0.2951 -0.5696 -0.1867
 8321TIP3    H246455   2.583   1.537  15.703  0.0177  0.9131  0.5654
 8322TIP3   OH246456   2.293   3.971   5.488 -0.0918 -0.3767  0.1524
 8322TIP3    H146457   2.226   4.030   5.451  1.0922  0.9643  0.0895
 8322TIP3    H246458   2.271   3.966   5.581  0.2645  0.8220  0.3099
 8323TIP3   OH246459   5.444   6.432   2.703 -0.7306  0.0542  0.1712
 8323TIP3    H146460   5.492   6.349   2.710 -1.6744 -0.6187 -1.0803
 8323TIP3    H246461   5.438   6.447   2.609 -0.1949  1.7777  0.4069
 8324TIP3   OH246462   5.376   1.208  13.613  0.3997  0.3429 -0.1645
 8324TIP3    H146463   5.372   1.303  13.616  0.5354  0.3091  1.1741
 8324TIP3    H246464   5.289   1.179  13.639  0.1672  0.1015 -1.1766
 8325TIP3   OH246465   3.367   1.948   2.412 -0.4070 -0.1999 -0.1709
 8325TIP3    H146466   3.336   1.942   2.322 -2.5146  0.1419  0.5151
 8325TIP3    H246467   3.436   2.015   2.409 -1.4037  0.8013 -1.2805
 8326TIP3   OH246468   1.118   3.257   3.807  0.0430 -0.2471  0.0806
 8326TIP3    H146469   1.085   3.173   3.777  1.1130 -0.7026  0.1413
 8326TIP3    H246470   1.111   3.315   3.731 -0.8414 -0.3517  0.0858
 8327TIP3   OH246471   5.544   4.925   2.773  0.1505  0.3813  0.7868
 8327TIP3    H146472   5.481   4.997   2.779 -0.0285  0.1452  1.6890
 8327TIP3    H246473   5.589   4.925   2.857 -0.7223 -1.3641  1.2738
 8328TIP3   OH246474   3.737   5.349   3.896  0.6390  0.4046 -0.0243
 8328TIP3    H146475   3.733   5.342   3.992  1.6898 -0.0629 -0.0139
 8328TIP3    H246476   3.676   5.420   3.875  0.3779  0.4873  0.9847
 8329TIP3   OH246477   5.348   0.121   2.546  0.2415 -0.0778 -0.7402
 8329TIP3    H146478   5.307   0.188   2.601  2.0280 -0.2048  0.7884
 8329TIP3    H246479   5.321   0.038   2.586  2.2702 -0.1594  0.5389
 8330TIP3   OH246480   6.606   4.849  15.621  0.1066  0.4511  0.1342
 8330TIP3    H146481   6.617   4.944  15.624  0.2338  0.4790 -0.9355
 8330TIP3    H246482   6.695   4.815  15.616  0.0016  0.3773 -1.6006
 8331TIP3   OH246483   5.174   0.712   5.235 -0.2388  0.0897 -0.2407
 8331TIP3    H146484   5.209   0.796   5.206 -1.2057  0.6832  0.2743
 8331TIP3    H246485   5.105   0.735   5.298 -2.0529 -1.0260 -1.7758
 8332TIP3   OH246486   1.009   1.231   0.418 -0.1913 -0.0832 -0.0371
 8332TIP3    H146487   0.996   1.213   0.511  1.0001 -0.5969  0.0419
 8332TIP3    H246488   1.010   1.145   0.377  2.7792 -0.1004 -0.0353
 8333TIP3   OH246489   5.290   2.495  11.426  0.8991  0.3809  0.3277
 8333TIP3    H146490   5.210   2.445  11.444  0.9822 -0.4232 -1.3898
 8333TIP3    H246491   5.262   2.587  11.428  0.2056  0.1584  1.0208
 8334TIP3   OH246492   2.393   5.395   5.201  0.0483 -0.5541 -0.2698
 8334TIP3    H146493   2.374   5.329   5.268  2.3699 -1.1488 -0.1231
 8334TIP3    H246494   2.364   5.478   5.239  1.6647 -0.8394  1.6698
 8335TIP3   OH246495   6.040   0.758   0.430 -1.0312  0.3881 -0.6269
 8335TIP3    H146496   5.946   0.757   0.447 -0.8969  0.7184  0.1510
 8335TIP3    H246497   6.079   0.722   0.510 -0.5297 -0.2200 -1.1431
 8336TIP3   OH246498   3.523   3.474   1.301  0.2146 -0.1289 -0.1739
 8336TIP3    H146499   3.596   3.425   1.338 -0.3681  0.3187  1.6291
 8336TIP3    H246500   3.552   3.499   1.214  1.9256 -0.5744  0.2477
 8337TIP3   OH246501   2.316   4.435   0.092 -0.6133  0.3469 -0.0559
 8337TIP3    H146502   2.232   4.429   0.138 -0.3049  3.3486  1.0273
 8337TIP3    H246503   2.293   4.465   0.004 -0.7588  0.2072 -0.0662
 8338TIP3   OH246504   5.986   1.891   2.951 -0.3312 -0.0201 -0.2804
 8338TIP3    H146505   6.067   1.895   3.003 -0.4879 -1.1648  0.0672
 8338TIP3    H246506   6.016   1.901   2.860  0.2738 -0.9634 -0.2006
 8339TIP3   OH246507   2.931   0.992  16.702  0.0278  0.3087  0.5268
 8339TIP3    H146508   2.849   0.968  16.658  1.4172 -1.5178 -1.1532
 8339TIP3    H246509   2.950   0.918  16.759  1.3617 -0.0435 -0.3573
 8340TIP3   OH246510   5.462   1.280  14.925  0.0463  0.3351 -0.4652
 8340TIP3    H146511   5.453   1.375  14.913 -0.7029  0.2451 -0.6299
 8340TIP3    H246512   5.521   1.253  14.855  0.7995  0.7794 -0.0103
 8341TIP3   OH246513   2.126   1.117  16.556  0.1177  1.0930 -0.4239
 8341TIP3    H146514   2.038   1.085  16.575  1.0652 -1.3582  0.0911
 8341TIP3    H246515   2.158   1.152  16.639 -0.1339  1.3542 -0.4408
 8342TIP3   OH246516   0.947   1.149   3.193 -0.3692 -0.5554 -0.2275
 8342TIP3    H146517   0.881   1.099   3.146 -1.8593  1.1755 -0.0558
 8342TIP3    H246518   0.899   1.225   3.227  1.4272  0.0222  1.0765
 8343TIP3   OH246519   3.383   6.252  12.491 -0.5726  0.2790 -0.6830
 8343TIP3    H146520   3.373   6.346  12.475 -0.6212 -0.1234 -3.1821
 8343TIP3    H246521   3.472   6.242  12.524 -0.4766  1.1782 -0.6632
 8344TIP3   OH246522   5.886   4.006  12.395  0.2182 -0.1135 -0.5321
 8344TIP3    H146523   5.861   3.914  12.402  1.7722 -0.4889  0.1973
 8344TIP3    H246524   5.841   4.048  12.468  2.1401 -0.8862  1.1266
 8345TIP3   OH246525   1.042   2.692  13.696 -0.6911  0.0347  0.0190
 8345TIP3    H146526   1.008   2.615  13.742 -2.6132  0.0488 -1.3263
 8345TIP3    H246527   0.998   2.766  13.738  2.1013  0.5393  2.1578
 8346TIP3   OH246528   2.613   4.760   1.134 -0.2710 -0.7061 -0.2221
 8346TIP3    H146529   2.616   4.670   1.168  0.2698 -0.5737  0.0753
 8346TIP3    H246530   2.634   4.752   1.041 -0.6068 -0.9308 -0.2800
 8347TIP3   OH246531   3.884   0.351   2.287 -0.1270 -0.1720 -0.4174
 8347TIP3    H146532   3.927   0.346   2.372 -2.4706 -0.6282  0.7983
 8347TIP3    H246533   3.827   0.274   2.283  0.5781 -0.6235 -2.7825
 8348TIP3   OH246534   4.705   2.789   2.446  0.2548  0.0501 -0.7170
 8348TIP3    H146535   4.670   2.871   2.411  2.1439  0.5904 -1.3826
 8348TIP3    H246536   4.728   2.810   2.536  1.7682  0.5639 -1.2197
 8349TIP3   OH246537   5.236   0.312   4.520  0.2631  1.1818  0.1284
 8349TIP3    H146538   5.151   0.357   4.517 -0.1190  0.5378  0.9569
 8349TIP3    H246539   5.299   0.382   4.536 -0.1897  1.5833  0.1805
 8350TIP3   OH246540   1.434   4.597  16.873 -0.0133  0.1484  0.3761
 8350TIP3    H146541   1.392   4.633  16.795 -0.5759  2.2253  1.6020
 8350TIP3    H246542   1.528   4.610  16.859  0.0017 -0.9445 -0.6367
 8351TIP3   OH246543   3.129   4.610  12.353 -0.2955 -0.0738  0.2881
 8351TIP3    H146544   3.107   4.696  12.387  0.5207  0.3850 -0.3489
 8351TIP3    H246545   3.085   4.549  12.413 -2.2168  0.7895 -0.2063
 8352TIP3   OH246546   4.695   2.905   1.371 -0.0103 -0.0331 -0.5354
 8352TIP3    H146547   4.644   2.833   1.407  0.1344 -0.1142 -0.4913
 8352TIP3    H246548   4.691   2.892   1.276 -0.4076  0.1918 -0.5503
 8353TIP3   OH246549   5.555   4.743   4.591  0.1690 -0.4974 -0.1173
 8353TIP3    H146550   5.519   4.806   4.653 -0.0079 -1.0436  0.3451
 8353TIP3    H246551   5.534   4.657   4.629  2.3045 -0.8299  0.3516
 8354TIP3   OH246552   5.691   5.341  10.577 -0.1152  0.0036  0.4341
 8354TIP3    H146553   5.779   5.344  10.539 -0.2438 -1.1999  0.0370
 8354TIP3    H246554   5.644   5.412  10.534  0.4907  0.2814  0.2238
 8355TIP3   OH246555   2.553   5.385   6.370 -0.2814 -0.2074 -0.0452
 8355TIP3    H146556   2.623   5.444   6.341 -0.9089  1.0159  0.9024
 8355TIP3    H246557   2.530   5.416   6.457 -1.4494 -1.1159 -0.0195
 8356TIP3   OH246558   4.485   5.277  15.490 -0.3371  0.2264  0.5270
 8356TIP3    H146559   4.395   5.250  15.472 -0.1081  0.1242 -0.4944
 8356TIP3    H246560   4.479   5.331  15.569 -1.1277 -0.7704  1.1568
 8357TIP3   OH246561   4.836   2.822  11.231  0.3333  0.8695  0.5651
 8357TIP3    H146562   4.898   2.787  11.294  0.3613 -0.3736 -0.1316
 8357TIP3    H246563   4.757   2.769  11.242 -0.0410  1.3695  0.3164
 8358TIP3   OH246564   1.138   6.760  14.445  0.6628 -0.1558 -0.2071
 8358TIP3    H146565   1.138   6.853  14.464 -1.8195 -0.0434 -0.5652
 8358TIP3    H246566   1.062   6.725  14.492  1.0746 -1.8406 -0.7382
 8359TIP3   OH246567   5.800   1.189  16.406  0.1052 -0.2589 -0.4362
 8359TIP3    H146568   5.719   1.184  16.457 -0.1831  0.3963 -0.8172
 8359TIP3    H246569   5.793   1.118  16.343 -0.5086  0.2388 -0.9377
 8360TIP3   OH246570   6.270   1.045  16.047  0.1404  0.4624 -0.2642
 8360TIP3    H146571   6.230   1.032  16.133  2.1315  0.7906  0.7450
 8360TIP3    H246572   6.263   1.140  16.031  0.4161  0.5013 -0.1466
 8361TIP3   OH246573   4.520   5.904  16.948 -0.0625 -0.2975  0.4196
 8361TIP3    H146574   4.595   5.962  16.935 -0.4173  0.2834  0.9136
 8361TIP3    H246575   4.492   5.921  17.039 -0.9239 -0.3452  0.1698
 8362TIP3   OH246576   0.488   0.270   2.281 -0.0768  0.8575 -0.1686
 8362TIP3    H146577   0.393   0.278   2.296 -0.0565 -0.7509  1.0058
 8362TIP3    H246578   0.527   0.294   2.366  0.5027  0.3981 -0.3016
 8363TIP3   OH246579   5.936   0.746   0.852  0.0577  0.0615 -0.0851
 8363TIP3    H146580   5.994   0.703   0.789  1.0906  2.8912 -1.1731
 8363TIP3    H246581   5.934   0.837   0.823 -1.8362  0.8060  2.2665
 8364TIP3   OH246582   6.253   3.438  13.827  0.0022 -0.0735 -0.4834
 8364TIP3    H146583   6.210   3.375  13.770 -0.7094  0.3908 -0.4694
 8364TIP3    H246584   6.260   3.518  13.774  1.0706 -0.2088 -0.5716
 8365TIP3   OH246585   1.074   4.327   5.347 -0.3028  0.0019 -0.1193
 8365TIP3    H146586   1.117   4.298   5.427 -1.2777 -2.6284 -0.5021
 8365TIP3    H246587   1.140   4.314   5.279  0.5107  2.1966  0.2205
 8366TIP3   OH246588   3.962   5.310   0.026 -0.0053  0.1019  0.3802
 8366TIP3    H146589   4.053   5.340   0.028  0.8068 -2.3019  0.5339
 8366TIP3    H246590   3.910   5.391   0.032  2.0610  1.8890 -3.6846
 8367TIP3   OH246591   1.808   0.984   5.659 -0.0262  0.0914 -0.0685
 8367TIP3    H146592   1.814   0.898   5.701 -0.7513  0.4503  0.8000
 8367TIP3    H246593   1.739   1.030   5.708  1.3642  1.6960  0.4324
 8368TIP3   OH246594   2.370   5.635   6.206 -0.0567 -0.6210 -0.1037
 8368TIP3    H146595   2.356   5.633   6.301 -1.0262 -1.0147 -0.2468
 8368TIP3    H246596   2.465   5.637   6.196  0.0174  1.5344  0.9048
 8369TIP3   OH246597   1.016   1.117   2.899 -0.0581  0.0112 -0.4320
 8369TIP3    H146598   1.102   1.122   2.858  1.1476 -0.8795  1.8468
 8369TIP3    H246599   1.007   1.025   2.924 -1.0534  0.3715  0.6090
 8370TIP3   OH246600   6.647   3.092   4.770 -0.1671 -0.2003 -0.5224
 8370TIP3    H146601   6.583   3.043   4.822 -0.4917  0.0973 -0.6407
 8370TIP3    H246602   6.607   3.178   4.758  0.7116  0.3409  0.3029
 8371TIP3   OH246603   1.667   1.884   1.323  0.5862 -0.0631 -0.2168
 8371TIP3    H146604   1.668   1.813   1.257 -0.5227  0.1459 -0.4669
 8371TIP3    H246605   1.736   1.860   1.384 -0.9385 -2.3108  0.6799
 8372TIP3   OH246606   3.127   1.952  16.961  0.2469  0.4031 -0.0182
 8372TIP3    H146607   3.091   1.952  16.872  1.2220  0.2591 -0.4237
 8372TIP3    H246608   3.064   1.903  17.013 -0.9832  1.5970 -0.3551
 8373TIP3   OH246609   6.558   2.986  16.924  0.4275  0.4510 -0.2759
 8373TIP3    H146610   6.519   3.058  16.972 -0.4174 -0.1264 -0.0697
 8373TIP3    H246611   6.648   2.981  16.955  0.0451  0.4305  0.8580
 8374TIP3   OH246612   2.874   5.027   2.687 -0.2885 -0.0632 -0.5673
 8374TIP3    H146613   2.911   5.109   2.719 -0.7995  0.3896 -1.1467
 8374TIP3    H246614   2.780   5.038   2.695 -0.4552  0.3793 -3.0683
 8375TIP3   OH246615   3.411   5.344  13.089  0.2154 -0.0607  0.3994
 8375TIP3    H146616   3.450   5.381  13.010  0.4842 -0.3483  0.3966
 8375TIP3    H246617   3.443   5.400  13.160 -0.4095  0.4851  0.2537
 8376TIP3   OH246618   4.669   6.218   0.354  0.3163  0.5704 -0.2867
 8376TIP3    H146619   4.733   6.235   0.286  0.7193  1.0204  0.1999
 8376TIP3    H246620   4.627   6.136   0.328  1.9762 -0.4055  0.0468
 8377TIP3   OH246621   6.577   1.679  17.270  0.6783  0.1804 -0.1776
 8377TIP3    H146622   6.497   1.729  17.253 -0.7912 -1.8173  0.5479
 8377TIP3    H246623   6.644   1.721  17.216 -1.1967  1.0234 -1.9417
 8378TIP3   OH246624   4.515   1.475  11.880  0.3660  0.0699  0.1876
 8378TIP3    H146625   4.460   1.475  11.801  1.0826  0.2199 -0.3202
 8378TIP3    H246626   4.462   1.431  11.946 -0.7649  1.1045 -0.0136
 8379TIP3   OH246627   5.109   1.915   0.113  0.5582 -0.1425 -0.3511
 8379TIP3    H146628   5.028   1.945   0.071 -1.3459 -3.5738  0.6899
 8379TIP3    H246629   5.151   1.860   0.046 -0.0655 -1.7165  0.5425
 8380TIP3   OH246630   0.088   0.338   3.863 -0.4697 -0.3092 -0.2617
 8380TIP3    H146631   0.098   0.315   3.955 -0.2893 -1.0433 -0.4590
 8380TIP3    H246632   0.051   0.427   3.863  0.4295  0.0671  0.5060
 8381TIP3   OH246633   2.962   1.281  12.449 -0.2141 -0.1382 -0.0690
 8381TIP3    H146634   3.030   1.268  12.515 -0.7365  0.6858  0.6393
 8381TIP3    H246635   2.955   1.196  12.405  2.4502  0.2041 -1.2962
 8382TIP3   OH246636   2.259   5.360  13.026  0.1329  0.2621  0.1598
 8382TIP3    H146637   2.281   5.368  12.933  0.0703  0.6459  0.1737
 8382TIP3    H246638   2.173   5.402  13.033  0.1045  0.1658  0.3751
 8383TIP3   OH246639   3.052   1.922  16.696  0.5894 -0.2389 -0.3331
 8383TIP3    H146640   2.996   1.913  16.619 -0.0622 -2.1577  0.3181
 8383TIP3    H246641   3.141   1.913  16.662  0.3301 -0.5835 -0.9313
 8384TIP3   OH246642   5.303   5.911   0.411  0.0372 -0.5132  0.2753
 8384TIP3    H146643   5.316   6.005   0.411  0.4943 -0.5686 -0.6164
 8384TIP3    H246644   5.391   5.874   0.405 -0.1885 -0.9753 -0.2449
 8385TIP3   OH246645   6.659   4.244   6.250  0.7158  0.3602  0.0525
 8385TIP3    H146646   6.751   4.245   6.223  1.0079  0.4382  1.0463
 8385TIP3    H246647   6.644   4.156   6.284  0.5059  0.4548  0.2037
 8386TIP3   OH246648   3.536   4.185  15.693 -0.2880 -0.0447 -0.0798
 8386TIP3    H146649   3.489   4.143  15.622  1.2862  3.1561 -3.1564
 8386TIP3    H246650   3.477   4.255  15.722  0.6237  1.0699 -0.8637
 8387TIP3   OH246651   5.765   5.452   1.085 -0.0567 -0.6197  0.7782
 8387TIP3    H146652   5.825   5.518   1.121 -1.0529 -0.1936  1.6821
 8387TIP3    H246653   5.710   5.501   1.024 -1.0974 -0.5108  1.7889
 8388TIP3   OH246654   3.758   0.154   5.123 -0.4847 -0.1481  0.3762
 8388TIP3    H146655   3.783   0.075   5.075 -1.3600  0.7391 -1.6162
 8388TIP3    H246656   3.662   0.154   5.120 -0.5694 -0.2351  2.4452
 8389TIP3   OH246657   0.975   4.546   4.560 -0.0394 -0.3536  0.1250
 8389TIP3    H146658   0.961   4.512   4.472 -0.0492  0.0869 -0.0437
 8389TIP3    H246659   0.971   4.468   4.616  1.9765 -0.9066 -0.4711
 8390TIP3   OH246660   1.895   1.304   4.832  0.2383 -0.5430 -0.1520
 8390TIP3    H146661   1.825   1.367   4.812  0.4338 -0.4185 -0.4475
 8390TIP3    H246662   1.946   1.299   4.752 -0.0266 -1.4137 -0.2709
 8391TIP3   OH246663   0.806   1.541   1.568 -0.1308 -0.4540 -0.1308
 8391TIP3    H146664   0.867   1.538   1.641  0.0508  0.0815 -0.2590
 8391TIP3    H246665   0.845   1.486   1.501 -0.4202 -1.1538  0.2630
 8392TIP3   OH246666   3.864   0.821  12.923  0.7015 -0.3407  0.2585
 8392TIP3    H146667   3.950   0.796  12.892  0.1829 -0.0384 -1.4471
 8392TIP3    H246668   3.881   0.866  13.006  2.4801  2.3848 -1.4839
 8393TIP3   OH246669   5.647   4.912   1.609 -0.0476  0.5849  0.0032
 8393TIP3    H146670   5.592   4.939   1.535 -0.0539 -0.8698 -0.5479
 8393TIP3    H246671   5.650   4.988   1.666 -1.1849  1.2713 -0.8315
 8394TIP3   OH246672   2.042   1.130  13.861  0.0124 -0.2612 -1.1423
 8394TIP3    H146673   2.110   1.191  13.831 -0.6797  1.2702  0.3612
 8394TIP3    H246674   2.091   1.051  13.888  1.3226  1.2462  1.0391
 8395TIP3   OH246675   6.219   0.216   1.002  0.2105  0.0611 -0.1381
 8395TIP3    H146676   6.190   0.260   1.082 -0.6346  1.4189 -1.1684
 8395TIP3    H246677   6.145   0.162   0.975  1.3898 -2.3558  1.3412
 8396TIP3   OH246678   0.889   5.000  17.105 -0.4164  0.9944 -0.3545
 8396TIP3    H146679   0.934   4.984  17.022  0.0007 -1.7874  0.3647
 8396TIP3    H246680   0.813   5.053  17.080  0.1355  0.8734 -2.4093
 8397TIP3   OH246681   5.220   4.426  10.560  0.2736 -0.0580 -0.8338
 8397TIP3    H146682   5.177   4.503  10.597  1.2668 -0.7507  1.8732
 8397TIP3    H246683   5.291   4.461  10.507 -0.3871  0.9237 -1.0877
 8398TIP3   OH246684   3.348   1.929  16.020 -0.1254 -0.1702 -0.5972
 8398TIP3    H146685   3.311   1.916  16.107  0.9078 -0.1406 -0.1502
 8398TIP3    H246686   3.412   1.859  16.009 -0.4265 -0.3265 -1.4359
 8399TIP3   OH246687   1.127   4.273   2.873  0.5841  0.0603 -0.3116
 8399TIP3    H146688   1.041   4.303   2.904  0.7800 -1.0312  1.3294
 8399TIP3    H246689   1.110   4.187   2.834  0.9319 -0.1369 -0.0258
 8400TIP3   OH246690   0.332   2.888  13.399 -0.2023 -0.4778  0.4035
 8400TIP3    H146691   0.272   2.945  13.448  1.6692  2.1087 -0.1548
 8400TIP3    H246692   0.401   2.866  13.462  0.5124  0.1726 -0.1394
 8401TIP3   OH246693   0.822   4.930  13.132 -0.4307 -0.6108  0.3618
 8401TIP3    H146694   0.872   4.850  13.118  0.4298 -0.0106 -0.0703
 8401TIP3    H246695   0.881   5.000  13.102 -1.5029  0.1066 -0.0913
 8402TIP3   OH246696   6.587   1.430   0.740  0.3252  0.4292 -0.2975
 8402TIP3    H146697   6.507   1.377   0.729 -1.2756  2.7483 -0.1120
 8402TIP3    H246698   6.595   1.441   0.834 -1.5550  3.6794 -0.4304
 8403TIP3   OH246699   0.907   6.248   3.095  0.3040  0.0224 -0.6149
 8403TIP3    H146700   1.000   6.227   3.083  0.0717 -1.1327 -0.4709
 8403TIP3    H246701   0.907   6.337   3.130  1.3025  0.4705 -1.7479
 8404TIP3   OH246702   2.062   0.048  13.510 -0.0023 -0.2171  0.3452
 8404TIP3    H146703   2.065   0.132  13.555 -0.3639 -0.1400  0.2249
 8404TIP3    H246704   1.969   0.033  13.492  0.0557 -0.6571  0.3976
 8405TIP3   OH246705   2.365   3.400  16.054 -0.2985 -0.0449  0.0424
 8405TIP3    H146706   2.453   3.363  16.047 -0.2523  0.5351 -3.0162
 8405TIP3    H246707   2.353   3.416  16.147  1.6786 -2.8785  0.8578
 8406TIP3   OH246708   5.677   1.558   3.924  0.4948  0.4714  0.2900
 8406TIP3    H146709   5.628   1.636   3.902 -0.1718  0.0406  0.2338
 8406TIP3    H246710   5.733   1.584   3.998  1.0583  1.2798 -0.4171
 8407TIP3   OH246711   6.358   2.442   0.172  0.0031 -0.2021  0.4160
 8407TIP3    H146712   6.271   2.458   0.209 -0.1623  2.1090 -0.8664
 8407TIP3    H246713   6.374   2.349   0.189 -2.6983 -0.6743  0.6935
 8408TIP3   OH246714   5.041   1.842   5.796 -0.3237 -0.3249 -0.8050
 8408TIP3    H146715   5.116   1.841   5.736  1.8271  2.7428  1.6781
 8408TIP3    H246716   4.967   1.869   5.741  1.2118  0.6345 -2.4663
 8409TIP3   OH246717   2.181   3.145   0.673  0.0646  0.3288  0.9970
 8409TIP3    H146718   2.222   3.152   0.759  0.6979  0.7987  0.6643
 8409TIP3    H246719   2.161   3.236   0.649 -1.1424  0.1068  1.1405
 8410TIP3   OH246720   2.881   6.205  11.425  0.1938 -0.1716 -0.2738
 8410TIP3    H146721   2.878   6.291  11.466 -1.5662 -0.2679 -0.1451
 8410TIP3    H246722   2.809   6.206  11.362  0.3269 -1.4502 -0.4581
 8411TIP3   OH246723   1.438   6.447  11.261  0.2697 -0.0579  0.3191
 8411TIP3    H146724   1.451   6.353  11.271 -0.0320 -0.0414  0.9211
 8411TIP3    H246725   1.509   6.487  11.312 -1.8797  0.0344  3.3788
 8412TIP3   OH246726   6.781   4.797  13.361 -0.2080 -0.5008  0.1024
 8412TIP3    H146727   6.699   4.816  13.315  0.0170  0.2778  0.0250
 8412TIP3    H246728   6.805   4.880  13.402  2.2895  0.1958 -2.6096
 8413TIP3   OH246729   0.685   2.774   0.030  0.0947 -0.3370 -0.2590
 8413TIP3    H146730   0.644   2.688   0.030 -0.4885 -0.0622 -0.7825
 8413TIP3    H246731   0.625   2.829   0.080  0.4690 -0.2372  0.0806
 8414TIP3   OH246732   3.059   3.558  15.560  0.3896  0.0301  0.1890
 8414TIP3    H146733   3.014   3.552  15.644 -0.0339  1.0598  0.0416
 8414TIP3    H246734   3.144   3.596  15.581 -0.3205  1.8013 -0.0410
 8415TIP3   OH246735   6.266   4.608  13.807  0.5185 -0.8957  0.3293
 8415TIP3    H146736   6.341   4.658  13.839  1.1618 -1.4459 -0.2998
 8415TIP3    H246737   6.191   4.642  13.857  1.0685  0.1352  0.4629
 8416TIP3   OH246738   1.137   2.969  13.547 -0.0815 -0.3210 -0.3107
 8416TIP3    H146739   1.139   2.991  13.454  0.9767  1.7799  0.1766
 8416TIP3    H246740   1.179   2.883  13.552 -1.6577 -1.2184 -1.9485
 8417TIP3   OH246741   2.825   1.965   2.122 -0.0602  0.1916 -0.0633
 8417TIP3    H146742   2.731   1.946   2.119  0.1649 -1.2791  1.4334
 8417TIP3    H246743   2.852   1.961   2.030 -1.4149  0.4015 -0.4881
 8418TIP3   OH246744   4.762   0.891  15.666 -0.0205 -0.0805  0.0845
 8418TIP3    H146745   4.805   0.807  15.647  0.4673 -0.2588  1.8600
 8418TIP3    H246746   4.669   0.874  15.651 -0.0028 -1.1433  1.0496
 8419TIP3   OH246747   1.108   2.118  14.430  0.3830 -0.2870 -0.6845
 8419TIP3    H146748   1.128   2.063  14.506 -1.1866 -0.4784 -0.3942
 8419TIP3    H246749   1.124   2.062  14.355 -2.3001 -1.5722 -0.3734
 8420TIP3   OH246750   4.096   0.224   0.616  0.1658  0.3063 -0.1787
 8420TIP3    H146751   4.050   0.302   0.584  0.2861  0.1337 -0.7855
 8420TIP3    H246752   4.187   0.251   0.623  0.1972  0.2344 -0.3280
 8421TIP3   OH246753   5.643   4.534  12.122 -0.2776 -0.1226 -0.5211
 8421TIP3    H146754   5.642   4.447  12.081 -0.5253 -0.7392  0.7594
 8421TIP3    H246755   5.719   4.532  12.181 -0.1150  0.6308 -0.7060
 8422TIP3   OH246756   6.021   1.996  11.955 -0.7501  0.1557 -0.2092
 8422TIP3    H146757   6.091   2.019  12.015 -1.5684  1.1175  0.3969
 8422TIP3    H246758   6.062   1.996  11.868  0.1185  0.1650  0.2017
 8423TIP3   OH246759   1.347   1.452  14.473 -0.2434  0.6523  0.7522
 8423TIP3    H146760   1.384   1.442  14.386 -1.4945  1.2551  0.1385
 8423TIP3    H246761   1.254   1.473  14.458 -0.1827  2.1092  2.1744
 8424TIP3   OH246762   0.602   4.225  13.609 -0.4267 -0.0100  1.0147
 8424TIP3    H146763   0.531   4.288  13.622 -0.7664 -0.7409  2.8851
 8424TIP3    H246764   0.569   4.143  13.646 -0.1614 -1.4390 -1.7510
 8425TIP3   OH246765   5.943   0.384  16.311  0.2923  0.3701  0.4534
 8425TIP3    H146766   5.933   0.381  16.216  0.8299 -0.4195  0.4098
 8425TIP3    H246767   5.860   0.417  16.344  0.2405  1.0147 -0.3161
 8426TIP3   OH246768   0.907   3.104  11.449  0.5966 -0.4826 -0.4998
 8426TIP3    H146769   0.846   3.071  11.515  0.3937  0.6943 -0.0939
 8426TIP3    H246770   0.994   3.087  11.486  0.5379 -2.3881 -1.1898
 8427TIP3   OH246771   3.069   2.740   2.459 -0.1459  0.1277  0.3668
 8427TIP3    H146772   2.984   2.759   2.420  0.0947 -1.1581 -0.8241
 8427TIP3    H246773   3.072   2.795   2.538 -1.8507  0.5668  0.1485
 8428TIP3   OH246774   5.342   1.159  11.888  0.0661 -0.6108  0.4656
 8428TIP3    H146775   5.427   1.147  11.846 -0.7628 -0.7477 -1.2128
 8428TIP3    H246776   5.352   1.239  11.940  1.0730 -0.3887 -0.0593
 8429TIP3   OH246777   3.818   6.775   0.353  0.2546 -0.0083  0.2381
 8429TIP3    H146778   3.852   6.864   0.343  0.7570  0.0739  2.4105
 8429TIP3    H246779   3.724   6.787   0.370  0.0988  0.0398 -0.6529
 8430TIP3   OH246780   5.051   3.981  11.764 -0.6090 -0.1090 -0.3238
 8430TIP3    H146781   5.122   4.041  11.785 -1.1590 -0.3718  2.5373
 8430TIP3    H246782   5.089   3.894  11.772 -0.4772 -0.1916 -1.8414
 8431TIP3   OH246783   0.301   1.381  11.556 -0.6155  0.1215  0.7929
 8431TIP3    H146784   0.347   1.366  11.639 -3.4960 -0.3752  2.3715
 8431TIP3    H246785   0.236   1.448  11.576  0.9575  2.5890 -2.0041
 8432TIP3   OH246786   1.199   6.652   5.263  0.2423  0.4288  0.5549
 8432TIP3    H146787   1.250   6.613   5.191  0.5085 -0.4746  1.2221
 8432TIP3    H246788   1.122   6.596   5.271 -0.1128  0.9143  0.5437
 8433TIP3   OH246789   5.893   3.099  12.728 -0.5499 -0.2693 -0.0803
 8433TIP3    H146790   5.803   3.124  12.706 -0.8588  0.1739  1.5997
 8433TIP3    H246791   5.890   3.004  12.739 -0.5638 -0.3919 -1.1578
 8434TIP3   OH246792   3.507   0.045   4.445  0.0888 -0.9408  0.1715
 8434TIP3    H146793   3.448  -0.022   4.411 -0.1102 -0.7413  0.1186
 8434TIP3    H246794   3.460   0.082   4.520  0.1935 -0.8596  0.1959
 8435TIP3   OH246795   3.813   5.527   0.048  0.3133 -0.2560  0.3388
 8435TIP3    H146796   3.720   5.530   0.072  0.4607 -0.4521  0.9464
 8435TIP3    H246797   3.819   5.580  -0.031 -0.1079  0.8218  1.0151
 8436TIP3   OH246798   4.271   5.830  12.194  0.0092 -0.3790  0.4793
 8436TIP3    H146799   4.314   5.902  12.148 -2.4588  1.3065  0.6810
 8436TIP3    H246800   4.275   5.856  12.286 -1.9945  0.1541  0.4376
 8437TIP3   OH246801   2.896   3.399  13.378  0.0390 -0.4316  0.3177
 8437TIP3    H146802   2.872   3.354  13.297  2.1104 -0.3581 -0.3765
 8437TIP3    H246803   2.868   3.490  13.364  0.1799 -0.4692 -0.2294
 8438TIP3   OH246804   3.361   5.344  15.799 -0.0198 -0.5913  0.8653
 8438TIP3    H146805   3.312   5.422  15.824  1.1027  0.1683  0.7455
 8438TIP3    H246806   3.367   5.349  15.703 -0.2028 -0.9841  0.8313
 8439TIP3   OH246807   3.508   0.458  14.135 -0.2957 -0.5765  0.0650
 8439TIP3    H146808   3.419   0.423  14.130 -2.2686  3.7805  2.2218
 8439TIP3    H246809   3.544   0.421  14.216 -1.1792 -0.2148  0.6350
 8440TIP3   OH246810   2.365   0.575  14.395  0.1013  0.0223  0.0654
 8440TIP3    H146811   2.352   0.550  14.486 -1.1491 -1.6240 -0.5341
 8440TIP3    H246812   2.439   0.522  14.365 -0.4765 -0.5869 -0.2989
 8441TIP3   OH246813   2.683   1.386  14.793  0.1601  0.1898  0.5229
 8441TIP3    H146814   2.739   1.437  14.734  0.8016 -0.0757  0.8943
 8441TIP3    H246815   2.594   1.415  14.773  0.2474 -0.9038 -1.5561
 8442TIP3   OH246816   5.710   5.192   5.025  0.3869 -0.2767 -0.4295
 8442TIP3    H146817   5.631   5.143   5.002  1.4608 -1.2857 -2.0708
 8442TIP3    H246818   5.693   5.281   4.992  0.4862 -0.8437 -2.0417
 8443TIP3   OH246819   5.671   6.410  16.687  0.2455 -0.5414  0.1244
 8443TIP3    H146820   5.655   6.483  16.747 -2.2684 -1.1530  0.2385
 8443TIP3    H246821   5.717   6.345  16.741  0.4357  0.0119  0.6402
 8444TIP3   OH246822   1.447   1.544  16.310 -0.5884  0.0836  0.6294
 8444TIP3    H146823   1.417   1.501  16.229 -0.9446  0.1247  0.7437
 8444TIP3    H246824   1.523   1.492  16.337  0.9040  1.3609 -0.9299
 8445TIP3   OH246825   5.199   5.104  11.153 -0.2753 -0.4538  0.0215
 8445TIP3    H146826   5.220   5.178  11.210 -2.5697  0.5238 -0.3184
 8445TIP3    H246827   5.234   5.130  11.068 -3.7638  1.7537 -0.8588
 8446TIP3   OH246828   6.309   4.875  14.192  1.0183  0.2188 -0.6589
 8446TIP3    H146829   6.377   4.808  14.196  1.3045  0.6053  1.5343
 8446TIP3    H246830   6.356   4.958  14.202  0.1181  0.4076  2.4191
 8447TIP3   OH246831   2.503   0.240   0.900 -0.0125  0.1527  0.8489
 8447TIP3    H146832   2.567   0.173   0.878  0.1043 -0.5199  3.1327
 8447TIP3    H246833   2.552   0.305   0.951 -0.2935  1.6112 -0.6936
 8448TIP3   OH246834   4.351   5.294  14.648  0.4219 -0.2557  0.2848
 8448TIP3    H146835   4.320   5.234  14.715 -1.9749 -0.2963 -0.7897
 8448TIP3    H246836   4.400   5.361  14.696 -1.9927  0.2000  2.2064
 8449TIP3   OH246837   2.436   1.787   6.781 -0.2869 -0.2012  0.3679
 8449TIP3    H146838   2.350   1.807   6.744  0.6335  1.0292 -1.2210
 8449TIP3    H246839   2.481   1.739   6.711  0.9875  0.8992  0.4032
 8450TIP3   OH246840   6.431   0.394  11.987  0.2406 -0.3895 -0.3779
 8450TIP3    H146841   6.524   0.386  12.010  0.3816  0.4602 -0.6312
 8450TIP3    H246842   6.430   0.453  11.911 -0.6117  0.7109  0.4617
 8451TIP3   OH246843   3.893   1.812  12.095  0.1322 -0.1059 -0.1064
 8451TIP3    H146844   3.932   1.805  12.182 -0.0318  0.3463  0.0061
 8451TIP3    H246845   3.943   1.880  12.051 -1.5336  1.6663  0.6139
 8452TIP3   OH246846   5.841   4.149  14.926 -0.0403 -0.1237  0.0708
 8452TIP3    H146847   5.850   4.198  14.844  1.2225 -0.7319 -0.1611
 8452TIP3    H246848   5.862   4.212  14.995 -2.4717  0.7822  0.0383
 8453TIP3   OH246849   3.623   4.441   5.027 -0.2412  0.1482  0.0372
 8453TIP3    H146850   3.623   4.405   5.115  0.1635 -1.6609 -0.6872
 8453TIP3    H246851   3.707   4.414   4.990 -1.4688 -1.3353 -1.7774
 8454TIP3   OH246852   3.621   6.666   5.095  0.0777 -0.8585 -0.0496
 8454TIP3    H146853   3.558   6.703   5.032 -0.2309 -1.4251 -0.0829
 8454TIP3    H246854   3.627   6.574   5.070  1.5956 -0.6168 -0.5893
 8455TIP3   OH246855   5.132   3.136  11.772  0.0023  0.0063  0.5628
 8455TIP3    H146856   5.075   3.142  11.695  1.2071 -4.1298 -0.7755
 8455TIP3    H246857   5.077   3.097  11.840 -0.8290  2.9295  1.6448
 8456TIP3   OH246858   4.092   5.610  12.064  0.1353  0.3037 -0.0967
 8456TIP3    H146859   4.117   5.555  11.990  2.2578  1.6763 -0.4191
 8456TIP3    H246860   4.173   5.651  12.092 -0.6655 -0.0848  2.9302
 8457TIP3   OH246861   2.528   6.354   0.915  0.1749 -0.1737 -0.2318
 8457TIP3    H146862   2.452   6.330   0.861  0.8241  0.1577 -1.3071
 8457TIP3    H246863   2.602   6.313   0.871  1.1009  2.4965 -1.2209
 8458TIP3   OH246864   1.280   0.465   6.080 -0.1441 -1.1637  0.6643
 8458TIP3    H146865   1.343   0.506   6.140  0.8670 -2.4832  0.5202
 8458TIP3    H246866   1.335   0.422   6.014 -1.1962  1.1495 -1.8739
 8459TIP3   OH246867   0.305   4.256  13.792 -0.4523  0.8843  0.1438
 8459TIP3    H146868   0.343   4.313  13.725 -1.8297  1.3074 -0.2797
 8459TIP3    H246869   0.259   4.189  13.743 -0.4734  0.5158  0.6652
 8460TIP3   OH246870   0.303   3.037   1.306 -1.0259  0.2194  0.3464
 8460TIP3    H146871   0.366   3.021   1.236 -1.8682  1.2161 -0.6719
 8460TIP3    H246872   0.347   3.007   1.385 -0.6499 -2.3340 -0.8001
 8461TIP3   OH246873   4.189   5.604   3.122  0.0453 -0.2783  0.5364
 8461TIP3    H146874   4.101   5.568   3.135 -0.5782  1.2434  0.7250
 8461TIP3    H246875   4.202   5.663   3.196  1.4759 -0.9645  0.8338
 8462TIP3   OH246876   4.828   3.827   5.103  0.6705 -0.1718 -0.1161
 8462TIP3    H146877   4.830   3.806   5.010  3.3301  2.2116 -0.6595
 8462TIP3    H246878   4.901   3.776   5.140 -0.6730 -1.4837  0.7720
 8463TIP3   OH246879   1.506   2.765  12.423  0.0130 -0.2665  0.6383
 8463TIP3    H146880   1.557   2.753  12.343  0.3730 -1.7491  1.0877
 8463TIP3    H246881   1.443   2.693  12.423 -0.7995  0.4308  1.0777
 8464TIP3   OH246882   2.036   3.139   3.873  0.5718  0.5227  0.2833
 8464TIP3    H146883   1.943   3.142   3.899  0.7254  0.8266  0.8077
 8464TIP3    H246884   2.043   3.206   3.806  0.5402  0.9242  0.6765
 8465TIP3   OH246885   1.456   6.427   1.418 -0.2185  0.1190  0.7103
 8465TIP3    H146886   1.521   6.452   1.483  1.3860  0.8629 -1.1551
 8465TIP3    H246887   1.409   6.508   1.398  1.0366  0.4640 -0.9567
 8466TIP3   OH246888   4.945   1.211  13.384 -0.1556 -0.3136 -0.2615
 8466TIP3    H146889   4.870   1.268  13.401  0.1413 -0.5222  1.9247
 8466TIP3    H246890   5.018   1.272  13.370 -0.5065 -0.1243 -1.2686
 8467TIP3   OH246891   3.296   5.931   3.597 -1.0507  0.4183 -0.3255
 8467TIP3    H146892   3.210   5.900   3.568 -0.0914 -1.2022 -1.5556
 8467TIP3    H246893   3.329   5.983   3.524  0.1684 -1.2811 -1.0126
 8468TIP3   OH246894   5.578   2.907   4.293  1.0278 -0.2394  0.2546
 8468TIP3    H146895   5.561   2.989   4.339  1.5930 -0.5769  1.0784
 8468TIP3    H246896   5.492   2.880   4.259  0.2770 -0.8752  2.5874
 8469TIP3   OH246897   4.767   2.877  15.967 -0.3012  0.1698 -0.4764
 8469TIP3    H146898   4.739   2.855  15.878 -0.3649 -0.1094 -0.3867
 8469TIP3    H246899   4.689   2.913  16.009  0.1754  1.9405 -1.0744
 8470TIP3   OH246900   2.883   2.730   2.045  0.4911  0.3140  0.5479
 8470TIP3    H146901   2.948   2.800   2.050  0.1902  0.7087 -0.8389
 8470TIP3    H246902   2.872   2.715   1.952 -3.0157  1.7950  0.6337
 8471TIP3   OH246903   6.753   0.197  17.103 -0.0559 -0.0753 -0.4068
 8471TIP3    H146904   6.661   0.209  17.083 -0.2516  0.2389  0.6600
 8471TIP3    H246905   6.769   0.104  17.087 -1.3303 -0.8258  2.4106
 8472TIP3   OH246906   1.581   1.704   3.845  0.4083  0.4281  0.0314
 8472TIP3    H146907   1.525   1.679   3.771  1.5690 -0.4768 -0.5463
 8472TIP3    H246908   1.665   1.727   3.805  0.0042  3.2549  0.7567
 8473TIP3   OH246909   6.589   4.569   5.502  0.5647  0.0446 -0.2334
 8473TIP3    H146910   6.592   4.655   5.543  2.1266  0.0276 -0.2764
 8473TIP3    H246911   6.556   4.511   5.570  0.6399  0.4706  0.1703
 8474TIP3   OH246912   6.084   4.976   0.635  0.5807  0.1378 -0.3052
 8474TIP3    H146913   6.109   5.058   0.592  1.5579  0.1198  0.2213
 8474TIP3    H246914   6.161   4.920   0.628 -0.7276 -1.4404 -2.3103
 8475TIP3   OH246915   5.902   1.732   3.707 -0.0858 -0.7289  0.3339
 8475TIP3    H146916   5.900   1.826   3.693 -0.4960 -0.9300 -1.0103
 8475TIP3    H246917   5.860   1.720   3.793  2.3125  0.4981  1.7512
 8476TIP3   OH246918   1.980   1.507  15.268 -0.0187  0.8844  0.1952
 8476TIP3    H146919   2.030   1.576  15.225 -0.7453  1.0513 -0.3930
 8476TIP3    H246920   1.889   1.522  15.241 -0.3193  0.2762  0.8310
 8477TIP3   OH246921   0.953   5.445  17.022  0.3594 -0.2381  0.1297
 8477TIP3    H146922   1.037   5.423  16.983  0.0930 -0.0446 -0.5598
 8477TIP3    H246923   0.973   5.509  17.089  1.2370 -2.9317  2.5506
 8478TIP3   OH246924   5.642   1.676   2.193  0.8750  0.3611 -0.5764
 8478TIP3    H146925   5.658   1.770   2.191  0.2230  0.4944  0.0873
 8478TIP3    H246926   5.645   1.654   2.286 -0.3621 -0.0194 -0.6190
 8479TIP3   OH246927   1.678   5.705  12.137  0.3014  0.7266  0.0559
 8479TIP3    H146928   1.765   5.672  12.159  0.2761  0.2145 -0.5846
 8479TIP3    H246929   1.618   5.638  12.170  0.1246  1.2277  0.7777
 8480TIP3   OH246930   0.733   3.358   2.797 -0.0426  0.0498 -0.4502
 8480TIP3    H146931   0.751   3.338   2.706 -0.6393 -0.4663 -0.4554
 8480TIP3    H246932   0.643   3.390   2.798  0.3153  1.0726 -0.1938
 8481TIP3   OH246933   4.131   4.258  15.129  0.3780  0.2945  0.2123
 8481TIP3    H146934   4.045   4.226  15.156  0.2815  0.2940 -0.0925
 8481TIP3    H246935   4.190   4.233  15.200  0.6534 -2.1506 -0.8470
 8482TIP3   OH246936   3.799   5.595  11.950 -0.0338 -1.0022 -0.2290
 8482TIP3    H146937   3.728   5.648  11.914  0.2231 -1.2707 -1.1554
 8482TIP3    H246938   3.871   5.604  11.886  0.7139 -0.8483  0.6209
 8483TIP3   OH246939   3.607   4.650  12.404  0.3925  0.3206  0.0640
 8483TIP3    H146940   3.627   4.557  12.404 -0.6793  0.0577 -1.6321
 8483TIP3    H246941   3.692   4.693  12.398  0.7262 -0.6796 -3.4593
 8484TIP3   OH246942   3.874   4.409   3.723  0.0691 -0.3576  0.0663
 8484TIP3    H146943   3.921   4.455   3.654 -0.7759 -1.3329 -1.1982
 8484TIP3    H246944   3.858   4.475   3.790  0.4628  0.7323 -0.8999
 8485TIP3   OH246945   1.926   0.146   4.962  0.4289  0.5030 -0.0539
 8485TIP3    H146946   2.007   0.101   4.987 -0.1439 -0.3751  0.2167
 8485TIP3    H246947   1.900   0.193   5.041  0.3150  0.2506  0.0590
 8486TIP3   OH246948   4.035   6.641  14.261  0.7979 -0.2677  0.4565
 8486TIP3    H146949   4.060   6.551  14.243  0.3363 -0.4355  0.6531
 8486TIP3    H246950   4.111   6.679  14.305  0.7990 -0.7054  0.8272
 8487TIP3   OH246951   6.467   0.590   0.888 -0.8594 -0.3548 -0.7322
 8487TIP3    H146952   6.380   0.563   0.916 -0.4191 -0.8829  0.1275
 8487TIP3    H246953   6.459   0.685   0.873 -1.4569 -0.3277 -0.2188
 8488TIP3   OH246954   6.502   3.576  10.802 -0.1004  0.0220  1.1188
 8488TIP3    H146955   6.474   3.599  10.890 -0.7253  1.8133  0.4715
 8488TIP3    H246956   6.428   3.598  10.746  0.5684 -0.3847  0.0543
 8489TIP3   OH246957   1.429   2.593   2.074  0.6567  0.4939  0.3527
 8489TIP3    H146958   1.380   2.666   2.035 -1.2610  0.0189  1.8020
 8489TIP3    H246959   1.507   2.585   2.019 -0.7078  1.5110 -1.8116
 8490TIP3   OH246960   2.844   2.873   4.892  0.4898 -0.2368 -0.5770
 8490TIP3    H146961   2.764   2.884   4.840 -1.0429  0.4747  1.8744
 8490TIP3    H246962   2.898   2.814   4.839 -1.5795 -0.6356 -2.3384
 8491TIP3   OH246963   1.785   3.729   0.448  0.2562  0.3183  0.0931
 8491TIP3    H146964   1.863   3.782   0.463 -0.9379  2.3888 -0.8518
 8491TIP3    H246965   1.771   3.733   0.353 -0.0960 -1.3525  0.0618
 8492TIP3   OH246966   6.291   2.734   3.644 -0.2645  0.2068 -0.0392
 8492TIP3    H146967   6.360   2.717   3.708 -0.9685 -0.1850  0.6226
 8492TIP3    H246968   6.286   2.830   3.639 -0.1495  0.2365  0.4274
 8493TIP3   OH246969   2.719   2.426  12.144  0.0689  0.3557  0.1105
 8493TIP3    H146970   2.776   2.365  12.096 -0.4473  0.7181 -0.9806
 8493TIP3    H246971   2.721   2.394  12.234 -0.1270 -1.2433 -0.4300
 8494TIP3   OH246972   1.372   4.023   6.581 -0.0506  0.2385  0.2097
 8494TIP3    H146973   1.429   3.958   6.620  0.0671 -0.3462 -0.9012
 8494TIP3    H246974   1.411   4.107   6.603  0.6542 -0.1271  0.3439
 8495TIP3   OH246975   2.649   3.351   2.596 -0.4657  0.2864  0.1755
 8495TIP3    H146976   2.605   3.273   2.565 -1.1710  0.9792 -0.5786
 8495TIP3    H246977   2.721   3.318   2.650 -0.1590 -0.8995 -0.9259
 8496TIP3   OH246978   3.732   6.397  13.186 -0.2013  0.0935 -0.2017
 8496TIP3    H146979   3.800   6.334  13.211  0.0613  0.1838 -0.6786
 8496TIP3    H246980   3.664   6.386  13.252  0.8491  0.9375  1.0417
 8497TIP3   OH246981   6.157   3.471   0.953 -0.4985 -0.3145  0.4808
 8497TIP3    H146982   6.211   3.437   1.024 -1.9401 -1.0354  1.2562
 8497TIP3    H246983   6.219   3.495   0.885  0.9497  0.7422  2.1266
 8498TIP3   OH246984   6.129   2.471  13.835  0.0129  0.2561  0.0695
 8498TIP3    H146985   6.161   2.484  13.924  1.7060  0.5410 -0.5662
 8498TIP3    H246986   6.038   2.502  13.838 -0.3920 -0.9768  2.0072
 8499TIP3   OH246987   0.325   6.410   4.168 -0.1434  0.1966  0.4488
 8499TIP3    H146988   0.355   6.460   4.244 -0.0369  1.8509 -0.6581
 8499TIP3    H246989   0.229   6.416   4.172 -0.1947 -0.9043  1.2117
 8500TIP3   OH246990   0.019   0.445  10.868  0.3506  0.7002  0.4528
 8500TIP3    H146991   0.074   0.496  10.926  1.0755  0.5268 -0.0744
 8500TIP3    H246992  -0.059   0.425  10.920  0.3593  1.7628  0.8752
 8501TIP3   OH246993   5.780   6.529  11.533 -0.1902  0.0802 -0.1437
 8501TIP3    H146994   5.823   6.465  11.590  2.3230  0.9878 -0.9357
 8501TIP3    H246995   5.770   6.483  11.449  1.6637  0.6678 -0.7289
 8502TIP3   OH246996   0.942   1.136  16.612 -0.3383  0.5979  0.4324
 8502TIP3    H146997   0.938   1.045  16.640  0.4482  0.9736  1.8063
 8502TIP3    H246998   0.975   1.132  16.522  0.7710 -0.3999  0.8810
 8503TIP3   OH246999   2.393   1.200  12.804 -0.2730  0.3245  0.3322
 8503TIP3    H147000   2.374   1.106  12.809  1.1542  0.0722  0.9932
 8503TIP3    H247001   2.479   1.205  12.762 -1.2639  1.4293 -1.6390
 8504TIP3   OH247002   4.945   5.521  12.975 -0.4914 -0.4054 -0.4314
 8504TIP3    H147003   4.898   5.494  12.896 -0.9442  0.6994 -0.5489
 8504TIP3    H247004   5.001   5.592  12.947 -1.0636  0.3647  0.3456
 8505TIP3   OH247005   4.397   1.501   1.430  0.1271  0.1441 -0.0207
 8505TIP3    H147006   4.307   1.476   1.410  0.3817 -1.9244  1.1983
 8505TIP3    H247007   4.447   1.477   1.352 -0.1594 -0.0539 -0.1427
 8506TIP3   OH247008   3.739   2.627   6.065  0.8450  0.3783 -0.5444
 8506TIP3    H147009   3.762   2.720   6.071 -0.0822  0.5449  0.6312
 8506TIP3    H247010   3.782   2.586   6.140 -0.7569  0.2982  0.3515
 8507TIP3   OH247011   5.305   1.441  11.295 -0.5628 -0.0077  0.1240
 8507TIP3    H147012   5.399   1.456  11.299 -0.7501  1.8522 -1.8122
 8507TIP3    H247013   5.295   1.366  11.237 -0.3850  1.0661 -1.2958
 8508TIP3   OH247014   3.023   5.005  12.965  0.1163  0.1235 -0.1746
 8508TIP3    H147015   2.968   5.080  12.943 -1.5140  0.1276  3.6326
 8508TIP3    H247016   3.104   5.044  12.998 -0.5888  0.2270  1.4570
 8509TIP3   OH247017   3.590   2.543  13.683  0.2792  0.0862  0.4429
 8509TIP3    H147018   3.584   2.462  13.633 -3.0461  0.8806 -0.5318
 8509TIP3    H247019   3.611   2.610  13.618 -1.3439  0.6904  0.5247
 8510TIP3   OH247020   4.736   0.381  10.623  0.0241 -0.6842  0.3202
 8510TIP3    H147021   4.699   0.468  10.637 -0.0522 -1.1388  3.3427
 8510TIP3    H247022   4.831   0.396  10.620 -0.0195 -0.4155  0.2792
 8511TIP3   OH247023   1.272   1.600   6.446  0.4274 -0.5039  0.3391
 8511TIP3    H147024   1.205   1.669   6.446 -0.8414 -1.7217 -0.4934
 8511TIP3    H247025   1.223   1.519   6.435  2.0040 -1.4766  0.3523
 8512TIP3   OH247026   4.735   4.580  16.983 -0.0463 -0.4910 -0.9203
 8512TIP3    H147027   4.691   4.631  17.051  0.7638 -0.6107 -0.3034
 8512TIP3    H247028   4.828   4.599  16.995  0.1851 -1.3685 -1.2972
 8513TIP3   OH247029   0.782   1.251  14.451  0.3257  0.7468  0.3436
 8513TIP3    H147030   0.806   1.249  14.358  1.2034  1.2812  0.5548
 8513TIP3    H247031   0.694   1.287  14.451  0.1113  0.2541 -0.3192
 8514TIP3   OH247032   1.732   5.819  15.823 -0.4305  0.3174  0.2537
 8514TIP3    H147033   1.797   5.868  15.772  0.3826 -2.6079 -1.6556
 8514TIP3    H247034   1.650   5.834  15.777  0.1195 -1.4650 -1.3486
 8515TIP3   OH247035   1.749   6.776   4.069 -0.9698 -0.1151  0.3593
 8515TIP3    H147036   1.838   6.748   4.048 -1.0574  0.5003 -0.8653
 8515TIP3    H247037   1.703   6.777   3.985 -1.5147  1.7214  0.6556
 8516TIP3   OH247038   6.446   4.681  12.299  0.6512  0.2102 -0.2525
 8516TIP3    H147039   6.402   4.598  12.321  2.8434 -0.9356 -0.1316
 8516TIP3    H247040   6.502   4.699  12.374  1.8787  0.6328 -1.2579
 8517TIP3   OH247041   6.703   1.397   3.368 -0.5323 -0.1769  0.3970
 8517TIP3    H147042   6.608   1.401   3.379 -0.6663  0.7450 -0.9932
 8517TIP3    H247043   6.727   1.481   3.330  0.6285 -1.0141 -0.7761
 8518TIP3   OH247044   6.223   2.953  14.753  0.3493 -0.4373 -0.6999
 8518TIP3    H147045   6.312   2.947  14.786 -0.0487 -1.6636  0.2198
 8518TIP3    H247046   6.207   2.868  14.711 -0.4188 -0.2874 -0.7301
 8519TIP3   OH247047   1.643   5.558  16.998  0.6806  0.2630 -0.0221
 8519TIP3    H147048   1.724   5.570  17.046  1.2738 -0.2045 -0.8904
 8519TIP3    H247049   1.664   5.583  16.908 -0.6992  2.2202  0.1655
 8520TIP3   OH247050   4.157   2.103  15.830  0.2842 -0.1039  0.1937
 8520TIP3    H147051   4.094   2.168  15.801 -0.5412 -0.4126  1.2617
 8520TIP3    H247052   4.205   2.146  15.902  2.3170  0.6617 -1.5471
 8521TIP3   OH247053   2.062   5.895  11.715 -0.2599 -0.0501 -0.6681
 8521TIP3    H147054   2.059   5.931  11.804  0.2248 -0.7019 -0.3795
 8521TIP3    H247055   2.113   5.814  11.724 -0.5809 -0.3462 -1.4633
 8522TIP3   OH247056   4.906   5.965   4.368 -0.0371 -0.0126 -0.1478
 8522TIP3    H147057   4.993   6.004   4.354 -0.2794  0.0759 -1.4415
 8522TIP3    H247058   4.874   5.946   4.280 -1.9426  1.2882  0.2304
 8523TIP3   OH247059   1.252   1.588   3.995  0.2345 -0.2131 -0.2283
 8523TIP3    H147060   1.173   1.584   3.941 -1.4526 -1.6290  2.2324
 8523TIP3    H247061   1.258   1.679   4.022 -2.3414 -0.6393  2.0243
 8524TIP3   OH247062   2.453   5.184  12.815 -0.3492  0.1573 -0.1697
 8524TIP3    H147063   2.379   5.136  12.853 -0.1056 -0.7651 -0.8205
 8524TIP3    H247064   2.444   5.168  12.720  1.6563 -1.4213 -0.1311
 8525TIP3   OH247065   4.483   3.699  11.636 -0.0001  0.2133 -0.0902
 8525TIP3    H147066   4.484   3.605  11.651 -0.2150  0.0830 -0.8426
 8525TIP3    H247067   4.565   3.731  11.673  0.7388 -0.4814 -1.1097
 8526TIP3   OH247068   0.248   5.788   5.012 -0.1201  0.1455  0.0662
 8526TIP3    H147069   0.191   5.862   5.034 -2.3180 -1.4283 -0.2223
 8526TIP3    H247070   0.209   5.752   4.932  0.3773 -1.9046  0.7467
 8527TIP3   OH247071   1.916   5.903   5.805  0.1374  0.2750 -0.3104
 8527TIP3    H147072   1.969   5.830   5.838 -0.1286  0.8072  1.3819
 8527TIP3    H247073   1.935   5.975   5.865 -0.9967  1.0555 -0.8666
 8528TIP3   OH247074   2.802   5.684   4.753  0.2830  0.5132 -0.9067
 8528TIP3    H147075   2.791   5.589   4.750 -1.7726  0.7434 -1.1905
 8528TIP3    H247076   2.863   5.703   4.682  0.8694 -0.6022 -0.7250
 8529TIP3   OH247077   2.200   5.929  13.242 -0.1788 -0.3710  0.7710
 8529TIP3    H147078   2.251   5.902  13.165 -0.9603 -1.3789  0.5924
 8529TIP3    H247079   2.239   6.012  13.268 -0.6392  0.5651 -1.4087
 8530TIP3   OH247080   2.766   2.191  11.998  0.1581  1.0014 -0.1233
 8530TIP3    H147081   2.751   2.098  11.982 -0.7711  1.2774 -0.8890
 8530TIP3    H247082   2.834   2.215  11.935 -0.7842  1.2159 -1.0634
 8531TIP3   OH247083   5.652   5.636  12.022  0.6578 -0.4481 -0.4514
 8531TIP3    H147084   5.718   5.587  12.071  1.5081  1.3325  0.2589
 8531TIP3    H247085   5.609   5.690  12.089 -0.3248 -0.3035 -1.1931
 8532TIP3   OH247086   5.636   6.691  11.269  0.7750  0.0138 -0.2902
 8532TIP3    H147087   5.724   6.657  11.280 -0.4939 -3.7199 -0.7177
 8532TIP3    H247088   5.616   6.678  11.176 -0.2276  0.8343 -0.2083
 8533TIP3   OH247089   1.423   1.385  14.730  0.3291  0.1552 -0.0485
 8533TIP3    H147090   1.392   1.394  14.640  1.6650 -2.5281 -0.8099
 8533TIP3    H247091   1.357   1.432  14.782 -1.1611  0.6224 -2.2751
 8534TIP3   OH247092   2.289   1.150   1.090 -0.8244 -0.3351 -0.5428
 8534TIP3    H147093   2.355   1.169   1.157  0.1659 -0.1989 -1.5435
 8534TIP3    H247094   2.335   1.095   1.026 -1.1449  1.2433 -2.1813
 8535TIP3   OH247095   5.109   5.583   3.106  0.3977  0.0989 -0.1267
 8535TIP3    H147096   5.110   5.621   3.194 -0.3112  1.0307 -0.5084
 8535TIP3    H247097   5.161   5.644   3.053  0.0293  0.0499 -0.5495
 8536TIP3   OH247098   3.388   6.129  17.072  0.0755 -0.4912  0.3650
 8536TIP3    H147099   3.419   6.179  17.147 -1.4393  1.6216 -0.3577
 8536TIP3    H247100   3.294   6.145  17.070  0.1020 -0.4889 -1.9838
 8537TIP3   OH247101   2.496   0.794   2.075  0.7755 -0.3582  0.0010
 8537TIP3    H147102   2.499   0.740   2.154  0.0798  0.4913  0.6112
 8537TIP3    H247103   2.407   0.829   2.073  0.7129 -0.5621 -1.2862
 8538TIP3   OH247104   6.092   6.395  13.253 -0.2850 -0.2044 -0.2196
 8538TIP3    H147105   6.155   6.339  13.297 -0.5832  0.6575  1.3476
 8538TIP3    H247106   6.142   6.473  13.227 -0.8750  0.9666  1.9887
 8539TIP3   OH247107   5.406   6.411   2.416  0.2095  0.0424  0.1567
 8539TIP3    H147108   5.438   6.322   2.431  0.2589  0.1874  0.9635
 8539TIP3    H247109   5.346   6.403   2.342 -0.7670 -0.8941  1.0214
 8540TIP3   OH247110   0.213   4.264  15.962  0.3649  0.1243  0.1409
 8540TIP3    H147111   0.168   4.344  15.934  0.8034  0.2490 -0.2060
 8540TIP3    H247112   0.306   4.288  15.964  0.4203 -0.1400  0.8340
 8541TIP3   OH247113   6.319   0.521  14.988 -0.1905  0.2937 -0.1020
 8541TIP3    H147114   6.351   0.593  14.934 -0.2386  1.6193  1.6119
 8541TIP3    H247115   6.397   0.488  15.032 -0.3828  0.1867  0.1617
 8542TIP3   OH247116   6.431   3.163   1.904  0.5047 -0.4078 -0.0767
 8542TIP3    H147117   6.385   3.089   1.943 -0.3032 -0.5075 -1.1913
 8542TIP3    H247118   6.465   3.130   1.822  2.3724 -0.2517  0.6180
 8543TIP3   OH247119   5.258   3.230   6.163  0.0400  0.3346  0.4946
 8543TIP3    H147120   5.317   3.256   6.233  1.0812  2.3456 -1.0763
 8543TIP3    H247121   5.174   3.270   6.186  0.1198  0.1761  1.0732
 8544TIP3   OH247122   3.547   2.054   6.042 -0.1224  0.5658 -0.2647
 8544TIP3    H147123   3.589   2.075   6.125 -1.9204  1.5208  0.4214
 8544TIP3    H247124   3.556   1.959   6.034  0.2313  0.4885  0.9157
 8545TIP3   OH247125   1.820   4.819   4.781 -0.4209 -0.3706 -0.1054
 8545TIP3    H147126   1.778   4.834   4.695  0.0134  2.0554  0.0808
 8545TIP3    H247127   1.891   4.758   4.762  1.0173  1.7737 -1.9000
 8546TIP3   OH247128   0.900   3.969   5.961 -0.2720  0.2486 -0.2283
 8546TIP3    H147129   0.903   3.936   5.871  0.7201 -2.4973  0.7372
 8546TIP3    H247130   0.934   3.896   6.014 -0.0365  2.1164  2.2794
 8547TIP3   OH247131   5.311   6.563   2.131 -0.0627  0.2254 -0.6388
 8547TIP3    H147132   5.270   6.570   2.045 -1.0837 -1.5089 -0.3096
 8547TIP3    H247133   5.270   6.486   2.171 -0.3569  1.5899  1.7941
 8548TIP3   OH247134   0.885   5.817  15.932 -0.4179 -0.3268 -0.1241
 8548TIP3    H147135   0.920   5.905  15.948  0.1036 -0.9797  2.5681
 8548TIP3    H247136   0.797   5.832  15.898  0.0442  1.2461 -0.6801
 8549TIP3   OH247137   3.194   0.737  14.219 -0.1761  0.8395  1.1041
 8549TIP3    H147138   3.131   0.809  14.220  1.8822  2.6937  2.5070
 8549TIP3    H247139   3.140   0.658  14.221 -2.5203  2.2745 -1.8269
 8550TIP3   OH247140   6.357   6.018  10.989  0.1939  0.1305  0.3151
 8550TIP3    H147141   6.392   5.932  10.968 -1.1041 -0.4085  0.3032
 8550TIP3    H247142   6.273   6.022  10.943  0.3643  1.5132  0.0828
 8551TIP3   OH247143   2.461   2.108  16.842  0.0130 -0.3435  0.5358
 8551TIP3    H147144   2.526   2.152  16.897 -1.4544  1.2046  1.0917
 8551TIP3    H247145   2.487   2.128  16.752  0.5829 -0.1296  0.7488
 8552TIP3   OH247146   5.103   0.943   2.504 -0.5004 -0.0802 -0.1169
 8552TIP3    H147147   5.140   0.881   2.441  0.0928  0.5766 -0.4154
 8552TIP3    H247148   5.162   1.018   2.502 -1.6257  0.8270 -0.3353
 8553TIP3   OH247149   1.525   1.441  14.250 -0.1210 -0.6307 -0.0005
 8553TIP3    H147150   1.554   1.494  14.176 -1.1404 -0.5787 -0.3653
 8553TIP3    H247151   1.575   1.474  14.325 -0.9836  1.0330 -0.1636
 8554TIP3   OH247152   4.773   1.878  13.052 -0.4943  0.3381 -0.2005
 8554TIP3    H147153   4.796   1.907  13.141 -0.2725  0.0208 -0.1518
 8554TIP3    H247154   4.694   1.826  13.064 -1.3378  1.5603 -0.3876
 8555TIP3   OH247155   4.505   4.733  14.063 -0.8174  0.6113 -0.2373
 8555TIP3    H147156   4.480   4.729  13.971 -2.3396  0.6119  0.1648
 8555TIP3    H247157   4.583   4.788  14.065 -0.6729  0.4589 -1.5446
 8556TIP3   OH247158   2.758   4.882   3.505 -0.3893  0.2470 -0.6154
 8556TIP3    H147159   2.755   4.846   3.416  2.0073 -0.7785 -0.3338
 8556TIP3    H247160   2.713   4.966   3.499 -2.2014 -0.7905 -2.2906
 8557TIP3   OH247161   2.493   0.219  14.861 -0.6211  0.0491 -0.4387
 8557TIP3    H147162   2.555   0.271  14.810  0.4483 -1.2935 -0.5366
 8557TIP3    H247163   2.541   0.139  14.882 -2.1636 -0.8015 -0.1055
 8558TIP3   OH247164   3.143   3.022  15.855  0.0171 -0.1737 -0.1042
 8558TIP3    H147165   3.196   2.981  15.923  1.5039  0.9625 -0.5495
 8558TIP3    H247166   3.162   2.971  15.776  1.3749  0.9418 -0.5181
 8559TIP3   OH247167   3.964   1.913   4.365  0.2123 -0.8482 -0.4544
 8559TIP3    H147168   3.959   2.005   4.390  1.1983 -0.7411 -0.6497
 8559TIP3    H247169   3.905   1.905   4.290 -0.1296 -0.4541 -0.2305
 8560TIP3   OH247170   3.859   2.317  12.125  0.3033 -0.1681  0.0749
 8560TIP3    H147171   3.825   2.268  12.050 -0.4724  0.4511  0.0136
 8560TIP3    H247172   3.951   2.335  12.103  0.0642  0.0645 -0.7592
 8561TIP3   OH247173   6.583   1.382  13.677 -0.1229 -0.5108  0.1044
 8561TIP3    H147174   6.625   1.372  13.763 -0.0870 -1.6073 -0.0324
 8561TIP3    H247175   6.651   1.418  13.621 -0.0169 -0.2020  0.4308
 8562TIP3   OH247176   2.372   5.949   1.855 -0.2410  0.1239  0.3739
 8562TIP3    H147177   2.422   6.008   1.911 -0.2067  0.3683  0.0814
 8562TIP3    H247178   2.371   5.991   1.769  0.0933 -0.4817  0.0737
 8563TIP3   OH247179   4.239   3.076   0.165  0.7932  0.2531  0.6413
 8563TIP3    H147180   4.310   3.090   0.227  1.4288  2.6950 -0.5813
 8563TIP3    H247181   4.216   3.164   0.134  0.8186 -0.8759 -2.8808
 8564TIP3   OH247182   0.703   6.256   6.826 -0.3260  0.1128  0.3580
 8564TIP3    H147183   0.763   6.250   6.900 -1.8883  0.8023  1.6941
 8564TIP3    H247184   0.681   6.349   6.820 -1.7594 -0.2244  0.2771
 8565TIP3   OH247185   5.658   5.720   3.355 -0.2403 -0.0908 -0.0417
 8565TIP3    H147186   5.671   5.813   3.370  1.2599 -0.1859 -0.7263
 8565TIP3    H247187   5.603   5.716   3.276 -1.1123  0.2291  0.5469
 8566TIP3   OH247188   2.218   0.590   0.199 -0.3455  0.2392  0.2060
 8566TIP3    H147189   2.268   0.671   0.192 -0.3025  0.4104  2.0521
 8566TIP3    H247190   2.170   0.599   0.281 -0.0531 -1.7338  0.6239
 8567TIP3   OH247191   6.221   1.663  14.742  0.3696  0.3606  0.0094
 8567TIP3    H147192   6.168   1.605  14.687 -0.9935  0.5073  1.1186
 8567TIP3    H247193   6.171   1.745  14.745  0.1015  0.1663  1.9130
 8568TIP3   OH247194   0.035   5.764  15.452 -0.2729 -0.5550  0.6199
 8568TIP3    H147195   0.019   5.735  15.541 -0.3151 -3.2726 -0.2421
 8568TIP3    H247196  -0.052   5.786  15.418 -0.2064  0.9339  1.3642
 8569TIP3   OH247197   4.117   1.453   1.920 -0.0783  0.4643 -0.4264
 8569TIP3    H147198   4.087   1.420   1.835 -3.7791  0.0368  0.9764
 8569TIP3    H247199   4.077   1.540   1.927 -0.8230 -0.0142  1.4123
 8570TIP3   OH247200   1.292   0.444   5.286  0.0667 -0.3234 -0.1505
 8570TIP3    H147201   1.357   0.505   5.253  0.3206  0.2789  1.4376
 8570TIP3    H247202   1.329   0.410   5.367 -0.8915 -1.1957 -0.0624
 8571TIP3   OH247203   0.198   4.804   0.168  0.1880 -0.0106 -0.2483
 8571TIP3    H147204   0.207   4.710   0.150 -1.0915 -0.1668 -0.0626
 8571TIP3    H247205   0.253   4.819   0.245  0.2042 -0.6516 -0.1318
 8572TIP3   OH247206   1.084   4.089  12.672 -0.2185 -0.3704 -0.0416
 8572TIP3    H147207   1.116   4.066  12.760 -1.2124 -1.2027  0.1215
 8572TIP3    H247208   0.992   4.063  12.673 -0.3775  0.1207 -1.1605
 8573TIP3   OH247209   1.978   2.417   1.725  0.1966 -0.0267 -0.7467
 8573TIP3    H147210   2.007   2.326   1.732  1.7401  0.5078  0.0667
 8573TIP3    H247211   1.917   2.417   1.651 -0.4986 -1.8780 -0.2032
 8574TIP3   OH247212   1.010   0.071   5.915  0.5500  0.2440  0.2084
 8574TIP3    H147213   1.042  -0.003   5.865 -1.3171 -0.1624 -0.3796
 8574TIP3    H247214   0.917   0.055   5.927  0.7018  0.9501  2.7408
 8575TIP3   OH247215   0.198   2.789   2.373  0.2012  0.0320 -0.2397
 8575TIP3    H147216   0.243   2.716   2.330  1.0811  1.5632 -1.9356
 8575TIP3    H247217   0.111   2.790   2.334 -1.3497 -2.7366  2.8253
 8576TIP3   OH247218   0.208   6.061   1.673  0.4760 -0.0946 -0.4380
 8576TIP3    H147219   0.285   6.050   1.729 -0.1834  0.2214  0.5331
 8576TIP3    H247220   0.231   6.133   1.614  0.8671  0.0938 -0.0540
 8577TIP3   OH247221   1.397   5.307   3.261  0.3193 -0.4175  0.0012
 8577TIP3    H147222   1.354   5.224   3.278 -0.5692  0.0313 -0.0334
 8577TIP3    H247223   1.395   5.317   3.166 -1.0208  0.4037  0.1111
 8578TIP3   OH247224   5.602   4.911   3.084  0.4882  0.1194  0.0050
 8578TIP3    H147225   5.564   4.973   3.146 -0.1332 -2.0633  1.8622
 8578TIP3    H247226   5.696   4.924   3.091  0.4444 -0.4548  1.7835
 8579TIP3   OH247227   3.117   1.202  12.732  0.1182 -0.4542 -0.2329
 8579TIP3    H147228   3.048   1.139  12.751  0.6331 -0.5413  1.4721
 8579TIP3    H247229   3.183   1.187  12.801  1.1599  0.5917 -0.9752
 8580TIP3   OH247230   0.357   4.386   2.864 -0.5742 -0.4545 -0.6517
 8580TIP3    H147231   0.409   4.464   2.879 -0.6922 -0.6467  0.8362
 8580TIP3    H247232   0.377   4.361   2.774  0.8626  0.2358 -0.5411
 8581TIP3   OH247233   1.142   4.791  14.120 -0.2714 -0.2240  0.4128
 8581TIP3    H147234   1.215   4.757  14.069  0.3038  0.0133  1.0813
 8581TIP3    H247235   1.093   4.845  14.057  0.3756 -0.0133  0.0840
 8582TIP3   OH247236   1.410   5.759  15.439 -0.0197 -0.6755 -0.4200
 8582TIP3    H147237   1.330   5.715  15.468 -0.2820 -1.0028 -1.5981
 8582TIP3    H247238   1.384   5.805  15.359  0.5038  0.7946  0.2342
 8583TIP3   OH247239   6.137   4.795   1.026 -0.3281 -0.6452 -0.0292
 8583TIP3    H147240   6.128   4.889   1.011 -1.3883 -0.8063 -0.4245
 8583TIP3    H247241   6.226   4.785   1.060 -0.8300  0.7388  1.8040
 8584TIP3   OH247242   3.540   0.573  14.727  0.6311  0.1781 -0.0987
 8584TIP3    H147243   3.616   0.516  14.713  0.7546 -0.1944  1.8487
 8584TIP3    H247244   3.473   0.537  14.669  0.8066 -1.8035  0.8546
 8585TIP3   OH247245   6.372   5.105  16.198  1.0203  0.1704  0.1758
 8585TIP3    H147246   6.293   5.055  16.219  0.8822  0.1758 -0.3207
 8585TIP3    H247247   6.350   5.195  16.224  0.9074  0.1495  0.1511
 8586TIP3   OH247248   0.390   5.488  16.023  0.0857  0.1433  0.0300
 8586TIP3    H147249   0.464   5.449  16.070 -0.4472 -2.5552 -1.2791
 8586TIP3    H247250   0.411   5.581  16.019  2.4536 -0.2845  1.3934
 8587TIP3   OH247251   0.652   6.663   6.370 -0.3644  0.5387 -0.4848
 8587TIP3    H147252   0.649   6.711   6.453 -0.8848  2.6738 -1.7011
 8587TIP3    H247253   0.691   6.725   6.309 -1.6214 -0.3795 -2.2483
 8588TIP3   OH247254   2.302   2.489  11.567  0.0219 -0.2009 -0.0331
 8588TIP3    H147255   2.282   2.492  11.474  1.1940 -0.7700 -0.3175
 8588TIP3    H247256   2.280   2.400  11.594  0.9082 -0.4331 -0.0612
 8589TIP3   OH247257   3.546   4.268   4.264 -0.3519  0.3325 -0.1997
 8589TIP3    H147258   3.469   4.227   4.304 -0.6981 -1.6690 -2.7853
 8589TIP3    H247259   3.515   4.355   4.237 -1.1379  0.2676  0.4465
 8590TIP3   OH247260   5.251   2.716   3.582 -0.5763  0.4503  0.0763
 8590TIP3    H147261   5.162   2.748   3.593 -0.2135  1.0190  1.5287
 8590TIP3    H247262   5.281   2.698   3.671 -0.7142 -3.8525 -0.6152
 8591TIP3   OH247263   2.996   2.897   4.456  0.1852 -0.0878 -0.2539
 8591TIP3    H147264   3.072   2.854   4.494  0.1018  0.6650  0.8013
 8591TIP3    H247265   2.922   2.841   4.481  0.3245 -0.5128 -0.7883
 8592TIP3   OH247266   6.776   3.484  10.972  0.1635  0.0554  0.6378
 8592TIP3    H147267   6.816   3.568  10.993 -0.3773  0.8540 -1.4108
 8592TIP3    H247268   6.685   3.493  11.001 -0.4196  0.9379 -1.3155
 8593TIP3   OH247269   6.530   4.618  13.556  0.8478  0.0044  0.2949
 8593TIP3    H147270   6.523   4.523  13.556 -2.8367  0.1880 -0.6644
 8593TIP3    H247271   6.564   4.640  13.470  1.2869 -0.4353  0.3569
 8594TIP3   OH247272   2.908   4.401   1.692  0.2674  0.5958 -0.0605
 8594TIP3    H147273   2.975   4.349   1.648  0.0311 -1.5384  1.9831
 8594TIP3    H247274   2.954   4.443   1.764 -0.4179 -0.3707  0.9680
 8595TIP3   OH247275   2.220   6.370   3.454 -0.1584 -0.3785 -0.0606
 8595TIP3    H147276   2.284   6.314   3.497 -0.2332 -0.0597  0.4661
 8595TIP3    H247277   2.162   6.400   3.524 -0.8397 -0.6016 -0.5246
 8596TIP3   OH247278   4.602   2.672  11.156 -0.7259 -0.0168  0.1244
 8596TIP3    H147279   4.587   2.587  11.198 -0.8985 -0.3153 -0.5255
 8596TIP3    H247280   4.604   2.652  11.062 -1.4109  0.7886 -0.0691
 8597TIP3   OH247281   0.113   0.436  15.230 -0.0781  0.0705 -0.7000
 8597TIP3    H147282   0.134   0.419  15.138 -1.5544 -1.3554 -0.7859
 8597TIP3    H247283   0.041   0.376  15.250 -0.0860  0.7026  1.2571
 8598TIP3   OH247284   5.364   5.964  12.785  0.1525 -0.1281 -0.0602
 8598TIP3    H147285   5.434   6.002  12.839 -0.6865  0.6363  0.5058
 8598TIP3    H247286   5.381   5.870  12.787  3.0098  0.2623 -2.5019
 8599TIP3   OH247287   3.424   6.550   4.685 -0.3596 -0.6110  0.7193
 8599TIP3    H147288   3.362   6.621   4.702 -0.7758 -1.2545  2.0201
 8599TIP3    H247289   3.398   6.516   4.600 -0.9586 -0.0155  0.6543
 8600TIP3   OH247290   1.470   2.529  12.233 -0.1656 -0.0311 -0.7420
 8600TIP3    H147291   1.508   2.482  12.308  0.7534  2.5437  0.4804
 8600TIP3    H247292   1.539   2.590  12.206 -1.3404  0.6636 -2.2352
 8601TIP3   OH247293   6.477   6.303  16.789  0.8170  0.4022 -0.0273
 8601TIP3    H147294   6.553   6.245  16.791 -0.3507 -1.2097 -0.8983
 8601TIP3    H247295   6.447   6.306  16.880 -0.3715 -2.1012 -0.3068
 8602TIP3   OH247296   3.802   6.046  13.683 -0.4761 -0.3252  0.7346
 8602TIP3    H147297   3.822   5.962  13.723 -1.3461 -0.7587  0.2714
 8602TIP3    H247298   3.843   6.043  13.597 -1.5776 -0.7793  0.2204
 8603TIP3   OH247299   6.759   1.526  14.417  0.1156  0.2064  0.3826
 8603TIP3    H147300   6.717   1.540  14.501  0.7940 -0.9815  0.9310
 8603TIP3    H247301   6.726   1.597  14.361 -0.5977  0.7902  1.5375
 8604TIP3   OH247302   6.490   4.083   0.108 -0.1249 -0.0576 -0.3877
 8604TIP3    H147303   6.556   4.122   0.052 -0.1907 -0.6983 -0.9087
 8604TIP3    H247304   6.506   4.122   0.194  2.2186 -1.7279 -0.0200
 8605TIP3   OH247305   4.521   3.877   4.243 -0.2123 -0.1009 -0.1113
 8605TIP3    H147306   4.442   3.925   4.218 -0.8208 -0.5915  0.8749
 8605TIP3    H247307   4.571   3.870   4.161 -0.4953  1.4903 -0.4306
 8606TIP3   OH247308   4.934   5.066  10.485  0.6884 -0.7694  0.4364
 8606TIP3    H147309   5.022   5.097  10.463  0.2948 -0.0843 -0.2127
 8606TIP3    H247310   4.910   5.117  10.562  0.5513 -0.3725  0.1365
 8607TIP3   OH247311   4.759   5.860  13.534  0.3885 -0.2404  0.0686
 8607TIP3    H147312   4.737   5.951  13.513  1.2003  0.1184  0.7184
 8607TIP3    H247313   4.849   5.849  13.503  0.7014 -0.4652  1.0190
 8608TIP3   OH247314   0.145   4.153  16.491  0.4915 -0.2759 -0.1235
 8608TIP3    H147315   0.225   4.166  16.440  0.7039 -0.1209  0.2532
 8608TIP3    H247316   0.074   4.174  16.430  0.7659  0.6231 -0.1378
 8609TIP3   OH247317   3.225   1.818  11.629  0.9669 -0.1881  0.3297
 8609TIP3    H147318   3.221   1.819  11.725 -2.7456 -0.4895  0.2449
 8609TIP3    H247319   3.211   1.726  11.606  1.1848  0.0012 -0.5581
 8610TIP3   OH247320   0.670   5.888   5.892 -0.0274 -0.3857  0.2533
 8610TIP3    H147321   0.575   5.885   5.891 -0.0552  0.1596  1.0474
 8610TIP3    H247322   0.697   5.796   5.896 -0.5041 -0.5778 -0.9922
 8611TIP3   OH247323   0.824   6.720  15.311 -0.2388  0.5815  0.0808
 8611TIP3    H147324   0.859   6.804  15.282  3.4727 -1.2032 -1.0034
 8611TIP3    H247325   0.806   6.672  15.230  0.6742 -0.7998  0.6786
 8612TIP3   OH247326   4.531   0.995  15.884 -0.2863  0.6584 -0.5052
 8612TIP3    H147327   4.435   0.996  15.883 -0.3243 -0.8843  0.2861
 8612TIP3    H247328   4.555   0.904  15.869  0.9697  0.3974  2.6188
 8613TIP3   OH247329   4.531   3.887   1.955 -0.6303 -0.1976 -0.4840
 8613TIP3    H147330   4.591   3.820   1.923 -1.6574 -0.9394 -0.8681
 8613TIP3    H247331   4.536   3.956   1.889 -0.2147 -0.2639 -0.5249
 8614TIP3   OH247332   2.157   3.050   5.490  0.2003  0.4653 -0.1326
 8614TIP3    H147333   2.154   3.144   5.472 -0.6567  0.6346  0.8715
 8614TIP3    H247334   2.245   3.024   5.464  0.0920  1.3302 -1.4539
 8615TIP3   OH247335   2.751   1.288   2.581 -0.2971 -0.4159  0.2561
 8615TIP3    H147336   2.734   1.330   2.665  0.2398 -0.0668  0.1920
 8615TIP3    H247337   2.808   1.349   2.535 -2.6328  0.5924 -1.3829
 8616TIP3   OH247338   6.721   0.178   0.958 -0.0336 -0.2025  0.1362
 8616TIP3    H147339   6.636   0.144   0.988 -1.2581 -0.1653 -3.0659
 8616TIP3    H247340   6.715   0.272   0.971 -1.0442 -0.0481 -1.2144
 8617TIP3   OH247341   4.757   2.441  15.965  0.8910  0.0633 -0.1346
 8617TIP3    H147342   4.691   2.437  16.034 -1.3051  1.6268 -2.0543
 8617TIP3    H247343   4.761   2.351  15.931 -1.4177  0.2332 -0.9893
 8618TIP3   OH247344   5.605   3.371   5.472  0.1134  0.0807  0.3587
 8618TIP3    H147345   5.662   3.338   5.541  1.1841  0.7255 -0.1968
 8618TIP3    H247346   5.578   3.458   5.502  2.3847  1.3173 -0.9948
 8619TIP3   OH247347   4.929   4.554   4.712  0.0509 -0.1103  0.8623
 8619TIP3    H147348   4.900   4.506   4.634  0.7865  0.8055  0.0210
 8619TIP3    H247349   4.850   4.599   4.742 -0.9173 -2.6176  2.2669
 8620TIP3   OH247350   5.911   1.077  14.623 -0.2831  0.1997 -0.7534
 8620TIP3    H147351   5.931   1.163  14.661 -2.2280 -0.2028  1.2483
 8620TIP3    H247352   5.853   1.096  14.549  0.9175  0.7455 -1.5664
 8621TIP3   OH247353   1.286   1.319   1.528 -0.2071  0.2974 -0.1700
 8621TIP3    H147354   1.378   1.297   1.539 -0.3759 -0.9567 -1.1154
 8621TIP3    H247355   1.251   1.250   1.471 -1.8015  0.5765  0.4292
 8622TIP3   OH247356   5.076   3.462  14.453 -0.1067  0.4911 -0.8547
 8622TIP3    H147357   5.038   3.457  14.541 -0.1884 -0.0015 -0.9187
 8622TIP3    H247358   5.150   3.522  14.463 -0.3228  0.7058 -0.5255
 8623TIP3   OH247359   6.318   0.050  12.675 -0.5109  0.2580 -0.3924
 8623TIP3    H147360   6.328   0.115  12.604 -1.7497  1.2018  0.2854
 8623TIP3    H247361   6.402   0.053  12.721  0.3645 -0.4637 -1.8899
 8624TIP3   OH247362   4.982   1.339   1.066 -0.0429  0.0783  0.0902
 8624TIP3    H147363   5.018   1.414   1.018  0.0758 -0.6155 -0.9068
 8624TIP3    H247364   4.909   1.308   1.013 -1.9378  1.2647  1.9516
 8625TIP3   OH247365   2.780   3.174  12.777 -0.2114 -0.4541  0.6095
 8625TIP3    H147366   2.849   3.205  12.719 -0.6881 -1.7539 -0.6956
 8625TIP3    H247367   2.806   3.084  12.798 -0.5612 -0.3269  1.6048
 8626TIP3   OH247368   2.492   2.078   2.917 -0.5484 -0.0376 -0.8024
 8626TIP3    H147369   2.406   2.061   2.879 -0.8942  1.6169 -0.8181
 8626TIP3    H247370   2.498   2.174   2.920  0.6549 -0.1370  0.6377
 8627TIP3   OH247371   2.670   4.016  16.214  0.2071 -0.1341 -0.0923
 8627TIP3    H147372   2.687   3.967  16.134  0.9148 -0.8409  0.4768
 8627TIP3    H247373   2.710   3.963  16.284  0.4658  0.9457  0.6040
 8628TIP3   OH247374   2.279   0.264   2.705  0.7818  0.1068 -0.1530
 8628TIP3    H147375   2.260   0.312   2.786 -0.8139 -1.5165  0.4843
 8628TIP3    H247376   2.195   0.261   2.659  1.0556 -1.2422 -0.5996
 8629TIP3   OH247377   4.420   5.079   1.721  0.7790 -0.1737 -0.0583
 8629TIP3    H147378   4.422   5.049   1.631 -0.6993 -1.6649  0.3782
 8629TIP3    H247379   4.358   5.021   1.765  0.3513  1.4512  1.5804
 8630TIP3   OH247380   5.260   2.736   0.081  0.2401  0.1643 -0.4186
 8630TIP3    H147381   5.356   2.734   0.081  0.2913  1.1938  1.8666
 8630TIP3    H247382   5.234   2.644   0.085  1.0763 -0.2429 -3.1285
 8631TIP3   OH247383   3.624   4.485   1.088 -0.5488 -0.5001 -0.1971
 8631TIP3    H147384   3.634   4.577   1.065 -0.0719 -0.2773  0.8717
 8631TIP3    H247385   3.533   4.464   1.067 -0.4172 -0.0295 -1.2763
 8632TIP3   OH247386   2.129   0.205   3.529 -0.0434  0.7322  0.4291
 8632TIP3    H147387   2.172   0.290   3.522 -0.0349  0.7332  0.4908
 8632TIP3    H247388   2.191   0.144   3.489  0.0248  0.7306  0.5355
 8633TIP3   OH247389   5.623   4.128  13.861 -0.2910  0.0338 -0.5198
 8633TIP3    H147390   5.698   4.187  13.871 -0.7471  0.4348  0.6331
 8633TIP3    H247391   5.588   4.148  13.774  0.1774  0.7449 -0.5531
 8634TIP3   OH247392   2.647   4.610   3.268 -0.1744  0.2849  0.2692
 8634TIP3    H147393   2.654   4.703   3.248 -1.4387  0.5967  1.2307
 8634TIP3    H247394   2.676   4.566   3.187  1.4130  1.4835  0.1554
 8635TIP3   OH247395   5.559   3.264   2.021  0.0988 -0.3859 -0.3550
 8635TIP3    H147396   5.497   3.194   2.000  0.7650 -0.5380 -1.8801
 8635TIP3    H247397   5.570   3.311   1.939  2.8340 -1.0342 -0.4128
 8636TIP3   OH247398   0.619   0.885   3.306 -0.4473 -0.3021  0.1148
 8636TIP3    H147399   0.613   0.790   3.296  0.8040 -0.3313 -0.4348
 8636TIP3    H247400   0.576   0.903   3.390 -1.2359 -1.2803 -0.0748
 8637TIP3   OH247401   3.838   6.431   5.854 -0.3360  0.0141  0.3132
 8637TIP3    H147402   3.770   6.430   5.921  0.8051 -0.8082  1.4778
 8637TIP3    H247403   3.906   6.489   5.889 -0.1241  0.2886 -0.5328
 8638TIP3   OH247404   5.610   5.125  12.394 -0.2831 -0.0547  0.2135
 8638TIP3    H147405   5.562   5.099  12.473  0.8114  0.0091  0.9032
 8638TIP3    H247406   5.551   5.185  12.349 -1.9948 -2.0718 -0.3303
 8639TIP3   OH247407   3.299   2.700   3.283 -0.1879 -0.2931  0.2634
 8639TIP3    H147408   3.269   2.641   3.213 -1.9756 -1.1122  1.6754
 8639TIP3    H247409   3.250   2.672   3.360 -0.0999  2.2212  1.2703
 8640TIP3   OH247410   1.383   2.484  15.431  0.7832  0.4870 -0.2107
 8640TIP3    H147411   1.337   2.421  15.486 -0.6637  0.7959 -1.0337
 8640TIP3    H247412   1.466   2.442  15.411  0.8512 -0.1073  1.2683
 8641TIP3   OH247413   6.477   2.544  14.997 -0.0375 -0.3009 -0.5911
 8641TIP3    H147414   6.462   2.475  14.933  0.4949  0.0010 -1.0450
 8641TIP3    H247415   6.572   2.553  15.000 -0.1201  0.6569 -0.7882
 8642TIP3   OH247416   5.676   4.543  14.434  0.1685 -0.2798 -0.0578
 8642TIP3    H147417   5.620   4.483  14.384  0.0380 -1.3028  1.2834
 8642TIP3    H247418   5.625   4.624  14.438 -2.0617 -1.7048  2.5775
 8643TIP3   OH247419   6.232   2.466  14.676  0.3663  0.0527  0.5047
 8643TIP3    H147420   6.294   2.538  14.670  0.4947 -0.0707  0.3406
 8643TIP3    H247421   6.189   2.478  14.760 -0.4942  1.0488 -0.0507
 8644TIP3   OH247422   2.083   0.103  15.920  0.5608  0.3912  0.0604
 8644TIP3    H147423   2.052   0.047  15.849  0.4359  1.8740 -1.0805
 8644TIP3    H247424   2.005   0.151  15.949  1.0137  1.3607 -0.2717
 8645TIP3   OH247425   0.340   2.140  12.557 -0.2598  0.8869 -0.2783
 8645TIP3    H147426   0.293   2.123  12.475 -0.2311 -1.8728  0.2456
 8645TIP3    H247427   0.414   2.196  12.531  0.6406 -1.2006 -2.3931
 8646TIP3   OH247428   5.486   6.699   0.872  0.4525 -0.3161 -0.1786
 8646TIP3    H147429   5.447   6.735   0.952  1.2627  0.0259  0.0641
 8646TIP3    H247430   5.413   6.655   0.828 -0.0075 -0.4837  0.7324
 8647TIP3   OH247431   1.523   2.911   1.073  0.2606  0.2363 -0.6314
 8647TIP3    H147432   1.448   2.913   1.014  0.7109  0.7768 -1.1933
 8647TIP3    H247433   1.491   2.952   1.154 -0.2238 -0.0815 -0.6628
 8648TIP3   OH247434   0.777   2.349  16.841 -0.0735  0.1133  0.0634
 8648TIP3    H147435   0.729   2.271  16.867 -0.5400  0.6449  0.8110
 8648TIP3    H247436   0.852   2.351  16.900 -0.0059  0.1763 -0.0287
 8649TIP3   OH247437   2.317   3.211   3.418  0.3597  0.4586  0.4823
 8649TIP3    H147438   2.351   3.125   3.443  0.5664  0.7260  1.1165
 8649TIP3    H247439   2.230   3.215   3.457  1.1908  1.4016  2.2931
 8650TIP3   OH247440   0.839   2.920   6.127  0.2796  0.0488  0.6808
 8650TIP3    H147441   0.924   2.891   6.093  0.3474 -0.6110  1.3883
 8650TIP3    H247442   0.799   2.969   6.055  0.6908 -0.7839 -0.1142
 8651TIP3   OH247443   4.371   2.252  11.688  0.2532  0.2590  0.8870
 8651TIP3    H147444   4.290   2.254  11.739 -1.5489  1.1947 -1.8809
 8651TIP3    H247445   4.402   2.162  11.695  0.8922  0.6795  4.7875
 8652TIP3   OH247446   0.462   0.929   6.478 -0.0042 -0.0763  0.2842
 8652TIP3    H147447   0.414   0.951   6.558  1.9036 -0.8811  1.6777
 8652TIP3    H247448   0.468   0.834   6.478 -1.1495 -0.1842 -1.5406
 8653TIP3   OH247449   4.458   2.577  14.214 -0.0086  0.2367 -0.0773
 8653TIP3    H147450   4.474   2.575  14.308 -0.0692 -0.7600 -0.0834
 8653TIP3    H247451   4.373   2.621  14.205 -0.5621 -0.7148  0.4176
 8654TIP3   OH247452   5.253   2.925  12.255 -0.0738  0.3379 -0.2274
 8654TIP3    H147453   5.322   2.986  12.282 -0.2548  1.2129 -1.6956
 8654TIP3    H247454   5.172   2.977  12.259 -0.3578 -0.0729 -0.5751
 8655TIP3   OH247455   6.767   0.607   4.425  0.2238 -0.2199 -0.0837
 8655TIP3    H147456   6.831   0.632   4.358 -0.2683  0.6107 -0.2508
 8655TIP3    H247457   6.809   0.630   4.508  0.5612 -0.6275 -0.1393
 8656TIP3   OH247458   4.211   6.494   3.151  0.7424 -0.2842  0.8349
 8656TIP3    H147459   4.282   6.518   3.091 -1.0684  0.3137 -1.1433
 8656TIP3    H247460   4.192   6.403   3.129  0.6608 -0.3367  1.1235
 8657TIP3   OH247461   3.019   4.652   4.918  0.1429 -0.0705 -0.9822
 8657TIP3    H147462   2.940   4.633   4.968  1.1929 -0.9011  0.4251
 8657TIP3    H247463   3.042   4.568   4.878  0.6891 -0.0131 -0.7955
 8658TIP3   OH247464   3.918   4.741  16.555  0.2453  0.2162  0.5680
 8658TIP3    H147465   3.926   4.831  16.586 -1.5156  1.5390 -2.4995
 8658TIP3    H247466   3.835   4.710  16.592 -0.1991  0.6297 -0.0614
 8659TIP3   OH247467   5.267   6.730   2.803 -0.4104  0.6837 -0.7363
 8659TIP3    H147468   5.362   6.744   2.810 -0.2074 -1.5848  2.3087
 8659TIP3    H247469   5.258   6.660   2.739  0.2094 -0.8133  0.7587
 8660TIP3   OH247470   0.928   5.016   6.322  0.4069 -0.0785  0.2555
 8660TIP3    H147471   0.864   4.985   6.385 -1.5282  0.6226 -1.3288
 8660TIP3    H247472   0.949   4.939   6.269 -1.2779  0.3010 -1.0170
 8661TIP3   OH247473   3.699   6.551   0.883 -0.8602  0.3683 -0.0427
 8661TIP3    H147474   3.653   6.626   0.846 -0.9395  1.1856  1.6404
 8661TIP3    H247475   3.640   6.517   0.950 -0.2753 -0.4133  0.0889
 8662TIP3   OH247476   6.597   1.024   5.316 -0.0455  0.2788 -0.5925
 8662TIP3    H147477   6.558   0.943   5.284  0.5752 -0.0216 -0.6095
 8662TIP3    H247478   6.603   1.011   5.411 -0.2285  0.4288 -0.5609
 8663TIP3   OH247479   5.048   4.654  16.060  0.0387 -0.1467 -0.7413
 8663TIP3    H147480   5.033   4.561  16.076 -2.9833  0.9147  3.2726
 8663TIP3    H247481   5.111   4.680  16.127  0.5239  0.8450 -1.5615
 8664TIP3   OH247482   6.627   3.372   5.493 -0.5400  0.7486 -0.4179
 8664TIP3    H147483   6.616   3.384   5.587  0.7216  1.1843 -0.3194
 8664TIP3    H247484   6.603   3.456   5.455 -0.2130  0.8381 -0.4238
 8665TIP3   OH247485   0.015   1.764  16.549 -0.2073  0.2410 -0.0643
 8665TIP3    H147486  -0.071   1.733  16.519 -1.2537  2.3327  0.6985
 8665TIP3    H247487   0.077   1.706  16.506 -2.0755 -2.6122  0.9507
 8666TIP3   OH247488   3.379   2.711  17.145 -0.1626 -0.3634 -0.5123
 8666TIP3    H147489   3.293   2.695  17.106  0.7486 -0.4515 -2.5039
 8666TIP3    H247490   3.382   2.652  17.221 -3.0453  1.8435  1.4002
 8667TIP3   OH247491   1.692   2.879  15.192 -0.4333 -0.3127 -0.5780
 8667TIP3    H147492   1.787   2.883  15.190 -0.4093 -0.5666  0.1946
 8667TIP3    H247493   1.671   2.820  15.264 -1.2021  1.1678  0.4451
 8668TIP3   OH247494   0.310   1.417  13.406  0.0591  0.0325 -0.5869
 8668TIP3    H147495   0.250   1.491  13.400 -1.3146 -1.0371 -0.1753
 8668TIP3    H247496   0.277   1.364  13.479  0.6384 -1.3247 -1.2842
 8669TIP3   OH247497   0.305   4.106   6.501 -0.1740  0.1905 -0.1733
 8669TIP3    H147498   0.210   4.120   6.502 -0.4946 -1.7432 -0.7832
 8669TIP3    H247499   0.336   4.157   6.426 -0.8446  0.1453 -0.4875
 8670TIP3   OH247500   2.868   0.010   2.488  0.0126 -0.3277  0.0437
 8670TIP3    H147501   2.806   0.079   2.465 -0.4561 -0.3646  1.1293
 8670TIP3    H247502   2.933   0.012   2.418 -2.5623 -2.0036 -2.5022
 8671TIP3   OH247503   3.101   6.222  10.544 -0.3872 -0.3346  0.0903
 8671TIP3    H147504   3.100   6.250  10.636  2.2599  1.4126 -0.3341
 8671TIP3    H247505   3.010   6.229  10.515 -0.6993  2.6435  1.6123
 8672TIP3   OH247506   0.452   4.374   4.625  0.2579 -0.5053 -0.0332
 8672TIP3    H147507   0.423   4.344   4.539  0.8765  2.5019 -1.3878
 8672TIP3    H247508   0.517   4.442   4.605 -0.7051  1.3127  2.7713
 8673TIP3   OH247509   2.986   0.969   0.036 -0.4768  0.5171  0.7997
 8673TIP3    H147510   2.974   0.902  -0.031 -1.4085  1.7509 -0.3114
 8673TIP3    H247511   3.081   0.983   0.039 -0.4055  0.3345 -0.1614
 8674TIP3   OH247512   0.968   3.306  12.971 -0.1907  0.6169  0.7052
 8674TIP3    H147513   1.027   3.366  13.016 -0.1099  2.7850 -2.1694
 8674TIP3    H247514   1.017   3.276  12.895 -1.2564 -0.9356  0.6002
 8675TIP3   OH247515   4.404   5.168  13.010  0.0947 -0.7475 -0.0739
 8675TIP3    H147516   4.309   5.167  13.015 -0.0729  0.4356 -2.3931
 8675TIP3    H247517   4.425   5.095  12.952  0.6557 -1.4443  0.9958
 8676TIP3   OH247518   0.369   3.618   5.507  0.3887  0.2324 -0.1317
 8676TIP3    H147519   0.287   3.651   5.543  0.4643 -1.0289  1.2557
 8676TIP3    H247520   0.437   3.652   5.565  0.8689  1.3293 -1.3153
 8677TIP3   OH247521   1.539   0.272   0.411 -0.2351 -0.1907  0.3341
 8677TIP3    H147522   1.506   0.361   0.421 -1.9349 -0.3695 -2.9519
 8677TIP3    H247523   1.460   0.218   0.401  0.8468 -1.5912 -0.9603
 8678TIP3   OH247524   2.422   1.425   3.331 -0.0104 -0.3169  0.1485
 8678TIP3    H147525   2.467   1.448   3.412  2.7266  0.5908 -1.5689
 8678TIP3    H247526   2.404   1.332   3.339 -0.8769  0.0062  2.3032
 8679TIP3   OH247527   4.335   4.362   6.038  0.1352 -0.0494 -0.2925
 8679TIP3    H147528   4.407   4.301   6.025  0.5861 -0.0497  2.0339
 8679TIP3    H247529   4.359   4.412   6.116 -2.2168  0.1616  0.3562
 8680TIP3   OH247530   2.164   5.202   5.509  0.0403 -0.2743  0.6203
 8680TIP3    H147531   2.072   5.185   5.530  0.9339 -1.6455  3.7810
 8680TIP3    H247532   2.185   5.138   5.442 -1.4638  0.4853 -0.6118
 8681TIP3   OH247533   5.378   4.796  11.956  0.4642 -0.1983  0.1163
 8681TIP3    H147534   5.471   4.819  11.957  0.2432  0.6737  0.4928
 8681TIP3    H247535   5.342   4.835  12.035  0.4595 -3.4551  1.7714
 8682TIP3   OH247536   2.501   0.431  17.126  0.0485  0.1153  0.0334
 8682TIP3    H147537   2.594   0.455  17.120 -0.1859  1.6532  1.9142
 8682TIP3    H247538   2.499   0.361  17.190 -0.2672  1.3069  1.3461
 8683TIP3   OH247539   6.211   0.097  17.283 -0.1748 -0.1475  0.0058
 8683TIP3    H147540   6.129   0.121  17.240 -0.8281 -0.9481  0.7715
 8683TIP3    H247541   6.273   0.085  17.211 -0.9075 -0.2040 -0.6288
 8684TIP3   OH247542   6.700   4.094   2.996  0.6577 -0.0209 -0.2288
 8684TIP3    H147543   6.650   4.028   2.947 -1.2722  1.5420 -0.4254
 8684TIP3    H247544   6.791   4.071   2.980  0.0398 -1.4524 -1.9458
 8685TIP3   OH247545   3.261   1.953   3.854  0.0669 -0.2628  0.1544
 8685TIP3    H147546   3.302   1.867   3.848 -0.2083 -0.3922  0.0882
 8685TIP3    H247547   3.223   1.956   3.942 -1.4718 -0.9253 -0.4632
 8686TIP3   OH247548   0.809   3.433  17.118 -0.4228 -0.4075 -0.5231
 8686TIP3    H147549   0.819   3.425  17.213 -0.8821 -2.3475 -0.6179
 8686TIP3    H247550   0.730   3.485  17.106  0.6061  1.3662  0.1432
 8687TIP3   OH247551   1.578   1.201   5.156 -0.1019 -0.0246 -0.5419
 8687TIP3    H147552   1.595   1.215   5.249  0.0257  0.7956 -0.6831
 8687TIP3    H247553   1.658   1.159   5.123 -0.0720 -0.1412 -0.3234
 8688TIP3   OH247554   1.055   6.539   1.355 -0.5616  0.0256  0.0682
 8688TIP3    H147555   1.015   6.519   1.271 -1.6759  1.2707  0.2925
 8688TIP3    H247556   1.026   6.468   1.413 -2.5999  0.9841  0.2692
 8689TIP3   OH247557   4.019   6.129   5.349 -0.1510  0.3493  0.0733
 8689TIP3    H147558   4.041   6.116   5.441 -0.0262 -1.0117 -0.1424
 8689TIP3    H247559   3.927   6.156   5.350 -0.3576 -0.3795  0.5420
 8690TIP3   OH247560   1.734   2.012   5.601  0.1037 -0.1933  0.1600
 8690TIP3    H147561   1.665   1.946   5.604 -1.8801  1.7329 -1.0959
 8690TIP3    H247562   1.719   2.066   5.678  0.8962 -0.4208  0.4736
 8691TIP3   OH247563   2.918   3.952  16.398  0.0216  0.1852 -0.0420
 8691TIP3    H147564   3.009   3.947  16.371 -0.0570  0.6552 -0.4063
 8691TIP3    H247565   2.882   3.866  16.380  0.6780 -0.3605  1.1482
 8692TIP3   OH247566   6.470   5.402  14.434  0.1397  0.2387 -0.0953
 8692TIP3    H147567   6.547   5.459  14.423  1.4102 -1.2890  0.6371
 8692TIP3    H247568   6.435   5.393  14.346  0.9918  0.7045 -0.4951
 8693TIP3   OH247569   0.100   3.071   5.778  0.0219 -0.2297  0.0910
 8693TIP3    H147570   0.022   3.020   5.756  0.1359 -0.1525 -0.5009
 8693TIP3    H247571   0.101   3.142   5.714  1.3573 -1.0418 -0.8374
 8694TIP3   OH247572   4.567   5.455   1.652  0.0132 -0.6575  0.5201
 8694TIP3    H147573   4.485   5.421   1.617  0.1394 -0.1704 -0.2615
 8694TIP3    H247574   4.625   5.463   1.576  0.1283  0.8703  0.7422
 8695TIP3   OH247575   5.808   6.683  14.594 -0.1132 -0.3567  0.2508
 8695TIP3    H147576   5.764   6.600  14.576 -2.0299  0.8355 -0.7042
 8695TIP3    H247577   5.802   6.732  14.512  1.6506  0.4579  0.5765
 8696TIP3   OH247578   2.138   4.115  14.469  0.4312  0.0859  0.2408
 8696TIP3    H147579   2.157   4.031  14.511  0.7727  1.1313  2.2053
 8696TIP3    H247580   2.047   4.134  14.493  0.5238  0.5348  0.2308
 8697TIP3   OH247581   1.667   5.116   3.640 -0.0765 -0.1184  0.0906
 8697TIP3    H147582   1.603   5.084   3.704  0.0774 -1.5865 -0.4519
 8697TIP3    H247583   1.621   5.186   3.593  0.3128  1.9640  2.7513
 8698TIP3   OH247584   6.643   2.804   1.653 -0.1063  0.4319 -0.1260
 8698TIP3    H147585   6.564   2.760   1.621 -1.5464  1.9663  1.2524
 8698TIP3    H247586   6.612   2.888   1.686  1.8345  0.3135  2.1056
 8699TIP3   OH247587   2.685   4.855  17.202 -0.3556  0.0203  0.8799
 8699TIP3    H147588   2.767   4.814  17.231 -0.3648 -0.2940  0.4690
 8699TIP3    H247589   2.704   4.886  17.114 -1.1284 -1.4017  0.1915
 8700TIP3   OH247590   4.963   4.604   1.277  0.0970 -0.1692 -0.2856
 8700TIP3    H147591   4.907   4.674   1.243  0.4032  0.1809 -0.0770
 8700TIP3    H247592   5.052   4.632   1.256  0.1981 -0.6918 -0.5557
 8701TIP3   OH247593   4.300   6.717  13.724  0.1524 -0.2934  0.1423
 8701TIP3    H147594   4.366   6.670  13.674 -0.3958  1.3922 -2.2366
 8701TIP3    H247595   4.350   6.770  13.786  0.9717 -0.1873 -0.6005
 8702TIP3   OH247596   4.123   1.392   5.738 -0.3925  0.1802  0.3340
 8702TIP3    H147597   4.074   1.314   5.763  0.3395 -0.3814  0.0362
 8702TIP3    H247598   4.105   1.403   5.644  0.4792 -0.3408  0.1033
 8703TIP3   OH247599   2.701   4.863   3.228  0.2963 -0.1829  0.2851
 8703TIP3    H147600   2.641   4.937   3.220  0.2822 -0.2688 -0.3568
 8703TIP3    H247601   2.788   4.903   3.238  0.5224 -0.0827 -1.8204
 8704TIP3   OH247602   4.329   4.337  14.950  0.1648 -0.6179  0.0691
 8704TIP3    H147603   4.248   4.299  14.986 -0.6873  0.6098 -0.5170
 8704TIP3    H247604   4.363   4.391  15.021 -0.5018  0.3019 -0.3100
 8705TIP3   OH247605   0.358   2.735   3.947 -0.2473  0.2117 -0.1799
 8705TIP3    H147606   0.280   2.770   3.989  0.6158  1.5405  0.3235
 8705TIP3    H247607   0.431   2.783   3.985  0.8767 -1.3012 -0.3330
 8706TIP3   OH247608   1.829   3.926  15.255  0.2202 -0.1781 -0.0187
 8706TIP3    H147609   1.801   3.840  15.224  2.6544 -0.9493 -0.1309
 8706TIP3    H247610   1.795   3.932  15.345  0.8534 -1.6550  0.3261
 8707TIP3   OH247611   2.218   4.355   1.400 -0.2793 -0.4570  0.1822
 8707TIP3    H147612   2.285   4.418   1.426  0.2127 -0.8606 -0.1004
 8707TIP3    H247613   2.177   4.328   1.482 -1.9126  1.7846  0.1665
 8708TIP3   OH247614   2.972   1.059   2.182  0.0547 -0.2126  0.3694
 8708TIP3    H147615   3.029   1.009   2.124 -0.1886  2.2971 -2.0865
 8708TIP3    H247616   2.909   0.994   2.215  1.6735 -2.1382 -0.2120
 8709TIP3   OH247617   4.863   4.752  14.444 -0.0881  0.0146  0.2003
 8709TIP3    H147618   4.880   4.831  14.393 -1.4843 -1.3436 -2.4372
 8709TIP3    H247619   4.949   4.726  14.477  0.9665  0.5210 -2.0576
 8710TIP3   OH247620   6.584   2.843   3.147 -0.0280 -0.5151 -0.0576
 8710TIP3    H147621   6.582   2.853   3.052 -0.1260  0.1558  0.0153
 8710TIP3    H247622   6.673   2.813   3.167  0.1055 -0.2822 -0.3188
 8711TIP3   OH247623   6.693   2.139  10.572 -0.2061  0.1884  0.1555
 8711TIP3    H147624   6.780   2.179  10.582 -0.1762 -0.0978  1.0807
 8711TIP3    H247625   6.638   2.211  10.540  0.6674  0.0232 -1.8151
 8712TIP3   OH247626   5.505   5.620   1.201 -0.7063 -0.3013 -0.4909
 8712TIP3    H147627   5.450   5.676   1.256  1.2142 -0.6811  1.9473
 8712TIP3    H247628   5.594   5.636   1.232  0.2788 -1.7344 -2.4682
 8713TIP3   OH247629   6.185   0.858   4.410  0.7141 -0.3468 -0.3300
 8713TIP3    H147630   6.243   0.802   4.358  0.4966 -0.8136 -0.0802
 8713TIP3    H247631   6.236   0.936   4.430  1.3364 -0.8601  0.0890
 8714TIP3   OH247632   1.164   3.256   6.223  0.0657  0.3681 -0.2190
 8714TIP3    H147633   1.071   3.234   6.218 -0.3437  1.9119  0.2707
 8714TIP3    H247634   1.207   3.173   6.245 -1.0565 -0.6090 -1.6263
 8715TIP3   OH247635   4.316   3.402   5.153  0.4296 -0.1533 -0.3423
 8715TIP3    H147636   4.327   3.409   5.058 -2.1315 -0.7425 -0.7303
 8715TIP3    H247637   4.396   3.360   5.183  1.3220  0.1287 -2.2254
 8716TIP3   OH247638   3.089   1.132  13.944  0.1031  0.2001  0.6391
 8716TIP3    H147639   3.138   1.099  14.019  0.5517  1.1794  0.7902
 8716TIP3    H247640   3.155   1.175  13.889 -0.4684  0.9105  0.4994
 8717TIP3   OH247641   2.895   1.277  14.529 -0.0291  0.4673  0.0224
 8717TIP3    H147642   2.888   1.240  14.441 -0.4957  0.2385  0.1515
 8717TIP3    H247643   2.869   1.368  14.519 -1.2537  0.1448  0.1283
 8718TIP3   OH247644   4.613   0.877   0.244 -0.2202 -0.0300  0.4035
 8718TIP3    H147645   4.664   0.934   0.185  1.0571 -0.1816  1.3360
 8718TIP3    H247646   4.523   0.889   0.216  0.2207  1.0395 -0.6330
 8719TIP3   OH247647   3.974   2.810   5.848 -0.2583  0.0443 -0.2029
 8719TIP3    H147648   4.010   2.732   5.890 -0.0633  0.3020  0.1038
 8719TIP3    H247649   3.910   2.844   5.911  0.2773  0.6213  0.0311
 8720TIP3   OH247650   0.040   3.119   5.020 -0.3669  0.0756 -0.3752
 8720TIP3    H147651   0.082   3.199   5.051 -1.4739  0.7666 -0.6573
 8720TIP3    H247652   0.090   3.094   4.942  0.5366 -0.0161  0.2190
 8721TIP3   OH247653   5.951   6.690   3.641  0.5824  0.4738 -0.0880
 8721TIP3    H147654   5.935   6.754   3.710 -1.9191 -1.1953  0.9125
 8721TIP3    H247655   5.967   6.743   3.563  0.0571  2.3413  1.0479
 8722TIP3   OH247656   3.159   5.409  12.388  0.0141  0.4453 -0.1918
 8722TIP3    H147657   3.181   5.316  12.395 -0.9867  0.1668 -0.6516
 8722TIP3    H247658   3.240   5.451  12.361  0.9474 -0.0483  1.7285
 8723TIP3   OH247659   4.894   5.306  10.658  0.4067 -0.7127  0.7497
 8723TIP3    H147660   4.949   5.384  10.665 -1.4284  0.5822  0.9229
 8723TIP3    H247661   4.825   5.319  10.723 -0.9636 -1.6178 -0.4995
 8724TIP3   OH247662   1.353   0.689   3.428  0.5090 -0.0475  0.0668
 8724TIP3    H147663   1.360   0.649   3.515 -0.6615 -2.0368 -0.7161
 8724TIP3    H247664   1.266   0.730   3.428  0.2701 -0.5486 -0.3533
 8725TIP3   OH247665   3.525   0.777  13.798  0.0511 -0.3307  0.1042
 8725TIP3    H147666   3.552   0.689  13.824 -1.9691 -0.8116  0.6462
 8725TIP3    H247667   3.479   0.812  13.874  2.6344  2.0320  0.6601
 8726TIP3   OH247668   0.009   4.626  15.501 -0.0400  0.1925 -0.0883
 8726TIP3    H147669  -0.060   4.584  15.551  1.9319 -2.1925  0.7366
 8726TIP3    H247670  -0.036   4.686  15.441 -2.6219  0.5244  2.1418
 8727TIP3   OH247671   4.049   2.512  16.231  0.7140 -0.2620 -0.1971
 8727TIP3    H147672   4.084   2.423  16.232 -1.7228 -1.2747 -0.1213
 8727TIP3    H247673   4.006   2.520  16.146 -1.4846 -0.1942  0.8582
 8728TIP3   OH247674   0.597   1.821   4.111 -0.4273  0.4843 -0.3232
 8728TIP3    H147675   0.638   1.907   4.120 -0.2065  0.1025  2.6820
 8728TIP3    H247676   0.665   1.759   4.137 -1.1996 -0.4916 -0.5772
 8729TIP3   OH247677   1.359   3.284  10.962 -0.3959  0.1821 -0.2715
 8729TIP3    H147678   1.298   3.237  10.905 -0.0261 -1.5668  0.7366
 8729TIP3    H247679   1.345   3.376  10.942 -4.0073 -0.1176  0.5620
 8730TIP3   OH247680   2.871   1.734   2.301  0.4424  0.1759  0.5435
 8730TIP3    H147681   2.939   1.792   2.335  0.2562  0.1054  1.0444
 8730TIP3    H247682   2.798   1.791   2.278  0.4781  0.1990  0.4877
 8731TIP3   OH247683   5.141   4.631   4.367  0.1573  0.1768  0.1760
 8731TIP3    H147684   5.147   4.613   4.273  0.9521 -1.9600  0.5888
 8731TIP3    H247685   5.191   4.560   4.407 -0.7939  0.6561  2.2526
 8732TIP3   OH247686   0.272   1.002   3.959  0.2416  0.6222  0.3656
 8732TIP3    H147687   0.285   1.050   4.041  1.1296  0.2870  0.4197
 8732TIP3    H247688   0.263   1.070   3.892  1.9338  0.8587  0.3752
 8733TIP3   OH247689   0.390   0.277  13.315 -0.1862  0.2278  0.4089
 8733TIP3    H147690   0.343   0.230  13.246  1.1475 -2.2211  1.0896
 8733TIP3    H247691   0.481   0.276  13.286 -0.2834  3.6954 -0.2242
 8734TIP3   OH247692   6.440   2.929  14.423  0.3753 -0.0168 -0.9279
 8734TIP3    H147693   6.487   3.010  14.404  0.3196  0.5535  1.3286
 8734TIP3    H247694   6.502   2.875  14.472 -0.6538 -0.0697  0.3259
 8735TIP3   OH247695   1.570   4.102  15.567 -0.5503 -0.1682  0.0794
 8735TIP3    H147696   1.628   4.026  15.571  2.7306  2.2237  0.0048
 8735TIP3    H247697   1.589   4.142  15.483 -1.9076  1.0067  0.3238
 8736TIP3   OH247698   6.113   2.399   0.265 -0.5637 -0.4361 -0.2189
 8736TIP3    H147699   6.077   2.318   0.227  2.1380 -0.8401 -2.0446
 8736TIP3    H247700   6.134   2.376   0.355 -1.4243 -1.2360 -0.2046
 8737TIP3   OH247701   2.814   6.698  17.192 -0.6577 -0.1684  0.2045
 8737TIP3    H147702   2.781   6.616  17.155  0.4967 -0.9987  0.9943
 8737TIP3    H247703   2.895   6.716  17.143 -1.0677  0.6819 -0.1844
 8738TIP3   OH247704   5.145   3.447  16.926  0.4759  0.1538 -0.0701
 8738TIP3    H147705   5.145   3.434  17.021 -0.7266  2.0589  0.2070
 8738TIP3    H247706   5.185   3.533  16.914 -1.2147  0.7981 -1.1538
 8739TIP3   OH247707   0.322   3.681   1.222  0.2836  0.0910  0.2286
 8739TIP3    H147708   0.405   3.653   1.183 -0.1297  0.8443 -1.2039
 8739TIP3    H247709   0.278   3.729   1.153 -1.9810 -1.4989  0.5107
 8740TIP3   OH247710   5.420   4.406   0.515 -0.4155 -0.1676  0.2340
 8740TIP3    H147711   5.390   4.484   0.469  0.3679  1.0980  1.8599
 8740TIP3    H247712   5.512   4.398   0.492 -0.2139  0.0295  0.9673
 8741TIP3   OH247713   2.684   3.217   5.258 -0.0005  0.3150  0.3708
 8741TIP3    H147714   2.681   3.258   5.172  0.2639 -0.0387  0.1912
 8741TIP3    H247715   2.776   3.218   5.283 -0.2279  1.5554  1.2093
 8742TIP3   OH247716   0.357   0.659  11.418 -0.5939 -0.1642 -0.5264
 8742TIP3    H147717   0.390   0.739  11.457 -2.2562 -0.6062  1.8759
 8742TIP3    H247718   0.399   0.655  11.332  1.0567  2.2130  0.1302
 8743TIP3   OH247719   5.201   3.851   3.792  0.1460  0.1682 -0.1998
 8743TIP3    H147720   5.186   3.879   3.882 -2.0081  0.0373 -0.4982
 8743TIP3    H247721   5.295   3.862   3.779  0.7594 -1.2879  2.5569
 8744TIP3   OH247722   3.125   2.059  13.937 -0.7779  0.0748  0.5267
 8744TIP3    H147723   3.096   2.030  14.024 -0.1017 -0.3794  0.6006
 8744TIP3    H247724   3.148   1.978  13.891  0.8206  0.4575  0.6301
 8745TIP3   OH247725   5.771   1.801  16.794 -0.6751  0.8218 -0.2965
 8745TIP3    H147726   5.756   1.721  16.844  0.6831  0.3539 -0.6089
 8745TIP3    H247727   5.714   1.793  16.718 -2.9914  1.6737  1.2892
 8746TIP3   OH247728   4.528   0.082   0.002  0.6761  0.0977 -0.0784
 8746TIP3    H147729   4.540   0.041   0.088  0.2702 -2.1638 -1.0540
 8746TIP3    H247730   4.487   0.166   0.021  1.4968  0.0795  1.9993
 8747TIP3   OH247731   3.786   5.820  15.653 -0.1550 -0.0790 -0.4416
 8747TIP3    H147732   3.740   5.801  15.571 -0.1576  1.1793 -0.7515
 8747TIP3    H247733   3.795   5.915  15.652  0.1568 -0.0992  0.8577
 8748TIP3   OH247734   3.434   5.905  13.906 -0.5739  0.3749  0.2867
 8748TIP3    H147735   3.445   5.958  13.985  1.0686 -0.6599  0.7773
 8748TIP3    H247736   3.365   5.842  13.929 -1.2652  1.1380  0.3157
 8749TIP3   OH247737   6.262   3.635  13.640  0.2056  0.4005  0.1929
 8749TIP3    H147738   6.179   3.669  13.605  0.7549 -0.1818 -1.7570
 8749TIP3    H247739   6.324   3.707  13.627  0.9027 -0.5671 -2.0639
 8750TIP3   OH247740   3.375   5.071  14.108 -0.0524  0.4113  0.0209
 8750TIP3    H147741   3.397   5.107  14.021  1.4297 -0.4921 -0.0034
 8750TIP3    H247742   3.453   5.021  14.133 -1.1256 -0.7284  1.1382
 8751TIP3   OH247743   1.971   4.658   3.470 -0.1066  0.5190 -0.2204
 8751TIP3    H147744   1.876   4.648   3.458 -0.0446 -1.5833  0.8432
 8751TIP3    H247745   2.005   4.669   3.381 -1.1790 -0.2804 -0.7421
 8752TIP3   OH247746   5.956   0.363  16.648  0.7885 -0.1733  0.3527
 8752TIP3    H147747   5.867   0.372  16.612  0.7678 -2.8626 -0.3934
 8752TIP3    H247748   5.997   0.448  16.632 -1.5180  1.0061  0.3873
 8753TIP3   OH247749   5.043   4.418  15.153 -0.4789 -0.3623 -0.0516
 8753TIP3    H147750   5.087   4.336  15.173 -0.3533 -0.1910  0.3840
 8753TIP3    H247751   5.057   4.473  15.231 -1.5604 -0.3531  0.1527
 8754TIP3   OH247752   1.846   0.053   2.175  0.6953 -0.1452  0.1032
 8754TIP3    H147753   1.863   0.035   2.268  1.5886 -1.0278 -0.2260
 8754TIP3    H247754   1.919   0.108   2.147 -0.4442  1.5283  0.3281
 8755TIP3   OH247755   2.088   6.648   1.810  0.3933  0.1250 -0.0449
 8755TIP3    H147756   2.121   6.680   1.895 -0.4361  2.5956 -0.6179
 8755TIP3    H247757   2.161   6.663   1.749  0.4442 -0.2511 -0.0783
 8756TIP3   OH247758   5.779   6.717   5.316 -0.0784 -0.2161  0.5708
 8756TIP3    H147759   5.831   6.692   5.240  0.0483 -0.8093  0.8423
 8756TIP3    H247760   5.719   6.784   5.284 -1.0218 -1.4903 -0.3936
 8757TIP3   OH247761   1.543   2.482   0.252 -0.7704 -0.6756 -0.4426
 8757TIP3    H147762   1.523   2.427   0.176 -0.6610  0.6216 -1.4173
 8757TIP3    H247763   1.458   2.512   0.283 -0.8649 -1.7091  0.3587
 8758TIP3   OH247764   2.126   2.080  12.037  0.2220  0.7400  0.0385
 8758TIP3    H147765   2.083   2.000  12.067 -1.5646  1.7674  0.2541
 8758TIP3    H247766   2.120   2.076  11.941  0.7038  0.3262  0.0204
 8759TIP3   OH247767   6.033   0.665   3.174 -0.7802 -0.1395 -0.5207
 8759TIP3    H147768   5.976   0.656   3.098 -0.8297  1.9434 -0.7456
 8759TIP3    H247769   5.978   0.707   3.241 -0.1292 -0.0332 -0.0431
 8760TIP3   OH247770   4.868   4.890   4.643 -0.0037 -0.3406 -0.0255
 8760TIP3    H147771   4.822   4.852   4.718 -1.0313  0.5645 -0.1832
 8760TIP3    H247772   4.814   4.868   4.567  0.5431 -0.4582 -0.3834
 8761TIP3   OH247773   6.156   5.807  13.179  0.0961 -0.1382 -0.0647
 8761TIP3    H147774   6.087   5.872  13.166 -1.7774 -1.7121  1.7617
 8761TIP3    H247775   6.192   5.792  13.091 -0.9003  1.7459 -0.8118
 8762TIP3   OH247776   5.829   0.105   4.284  0.2237  0.1448 -0.1756
 8762TIP3    H147777   5.771   0.052   4.229  1.6574 -0.7960 -0.8083
 8762TIP3    H247778   5.792   0.096   4.372 -0.4136 -0.6923 -0.5160
 8763TIP3   OH247779   0.205   3.799   0.988 -0.1186 -0.0800 -1.0409
 8763TIP3    H147780   0.213   3.894   0.990 -0.2795 -0.0720  1.7116
 8763TIP3    H247781   0.111   3.783   0.986 -0.1944 -0.1431  1.4641
 8764TIP3   OH247782   6.645   1.936  11.206 -0.1321 -0.5610  0.1091
 8764TIP3    H147783   6.633   2.019  11.159  0.4266 -0.3310  0.3614
 8764TIP3    H247784   6.666   1.872  11.138 -3.3265 -1.1240 -0.4375
 8765TIP3   OH247785   3.223   2.903   1.867 -0.0004 -0.5902 -0.5065
 8765TIP3    H147786   3.181   2.819   1.848  0.6012 -1.3651  1.4639
 8765TIP3    H247787   3.202   2.920   1.958  1.6387  0.3824 -0.3005
 8766TIP3   OH247788   6.164   2.483  14.373  0.2237 -0.3417  0.0125
 8766TIP3    H147789   6.201   2.571  14.364 -1.8147  0.7100  1.4283
 8766TIP3    H247790   6.151   2.472  14.467 -1.6025 -1.2688 -0.3244
 8767TIP3   OH247791   5.770   0.457   0.599 -0.2147  0.6075 -0.0204
 8767TIP3    H147792   5.830   0.505   0.657  0.5828  0.3979 -0.6731
 8767TIP3    H247793   5.821   0.382   0.568 -1.1672 -0.1754  0.2808
 8768TIP3   OH247794   3.866   3.001   4.646  0.0585 -0.5011  0.1216
 8768TIP3    H147795   3.898   3.003   4.556 -0.1278 -0.8452  0.0468
 8768TIP3    H247796   3.823   3.086   4.659 -1.9783 -1.3385 -0.8820
 8769TIP3   OH247797   4.597   0.994  17.217 -0.0875 -0.1542  0.3847
 8769TIP3    H147798   4.668   1.056  17.200 -0.5147 -0.2445 -1.7575
 8769TIP3    H247799   4.627   0.911  17.180 -1.3876 -0.1397 -0.7485
 8770TIP3   OH247800   2.892   2.547   0.939 -0.0799 -0.1748  0.1084
 8770TIP3    H147801   2.917   2.454   0.936 -1.5854 -0.5742 -0.7011
 8770TIP3    H247802   2.881   2.571   0.847 -1.1347  0.3975  0.3781
 8771TIP3   OH247803   3.201   1.458  11.324  0.2500  0.1858  0.0436
 8771TIP3    H147804   3.158   1.482  11.242  0.4548  0.4822  0.0213
 8771TIP3    H247805   3.211   1.363  11.319 -0.7725  0.0631  0.2360
 8772TIP3   OH247806   5.637   6.127   1.623  0.4496 -0.2478  0.3854
 8772TIP3    H147807   5.687   6.206   1.603 -0.1885  0.1884  0.5324
 8772TIP3    H247808   5.667   6.101   1.710 -0.3623  0.6132  0.9188
 8773TIP3   OH247809   6.074   6.710  12.077  0.0130  0.0318 -0.0826
 8773TIP3    H147810   5.982   6.717  12.104 -0.1011  1.4911 -0.8097
 8773TIP3    H247811   6.071   6.716  11.981  1.0044  2.0784 -0.0214
 8774TIP3   OH247812   4.038   1.510  14.373  0.4800  0.1344  0.2821
 8774TIP3    H147813   4.001   1.424  14.393 -0.0367  0.2208 -0.2781
 8774TIP3    H247814   4.107   1.522  14.437 -0.7694  0.1663  1.6376
 8775TIP3   OH247815   5.362   0.214  11.060 -0.0564 -0.2351  0.2088
 8775TIP3    H147816   5.341   0.257  11.144 -0.3545  0.2170 -0.0960
 8775TIP3    H247817   5.435   0.264  11.025 -0.2419 -0.1314 -0.0296
 8776TIP3   OH247818   1.452   5.903   2.364 -0.3423 -0.3187  0.3106
 8776TIP3    H147819   1.428   5.943   2.447  1.3781 -0.5772  0.9502
 8776TIP3    H247820   1.517   5.963   2.326 -0.0157 -0.9549 -0.1497
 8777TIP3   OH247821   0.281   5.229   3.231  0.0116 -0.1650  0.6115
 8777TIP3    H147822   0.307   5.136   3.231 -0.1015 -0.2137  2.3858
 8777TIP3    H247823   0.195   5.229   3.273  0.3782  0.8355  1.3752
 8778TIP3   OH247824   5.906   3.072   5.206 -0.2841  0.2973  0.3177
 8778TIP3    H147825   5.928   3.109   5.120 -0.7119 -0.4203 -0.1045
 8778TIP3    H247826   5.840   3.132   5.241 -0.6641  0.1764 -0.1836
 8779TIP3   OH247827   2.304   4.570  15.962 -0.1200 -0.3575 -0.5346
 8779TIP3    H147828   2.369   4.621  16.010 -0.0827 -0.4458 -0.4915
 8779TIP3    H247829   2.335   4.480  15.967 -0.0007 -0.3423 -0.9029
 8780TIP3   OH247830   1.613   4.203   0.766 -0.3716  0.3416  0.0118
 8780TIP3    H147831   1.595   4.123   0.815 -0.2303  0.6838  0.6217
 8780TIP3    H247832   1.538   4.213   0.707 -2.4278  1.9681  2.8051
 8781TIP3   OH247833   6.373   5.636   6.232 -0.1084  0.2202 -0.6827
 8781TIP3    H147834   6.356   5.716   6.282  0.5230  0.5220 -0.9432
 8781TIP3    H247835   6.464   5.614   6.252 -0.3864 -0.6519 -0.3187
 8782TIP3   OH247836   0.402   6.454   1.245 -0.5062  0.0380  0.4019
 8782TIP3    H147837   0.440   6.488   1.164 -0.6315  0.1469  0.3892
 8782TIP3    H247838   0.330   6.398   1.215 -0.2488 -0.3014  0.4187
 8783TIP3   OH247839   1.366   4.366  11.993  0.0648 -0.1061  0.1096
 8783TIP3    H147840   1.326   4.280  12.008  0.9823 -0.1250  2.6006
 8783TIP3    H247841   1.394   4.364  11.902 -0.8958 -2.0488 -0.1655
 8784TIP3   OH247842   6.234   3.702  16.203 -0.3750 -0.5536  0.5238
 8784TIP3    H147843   6.298   3.675  16.137 -0.4250 -0.0530  0.2720
 8784TIP3    H247844   6.271   3.671  16.286  0.5059  0.2785  0.4577
 8785TIP3   OH247845   0.184   2.448   4.287  0.0824  0.4776  0.1288
 8785TIP3    H147846   0.122   2.520   4.300 -0.7950 -0.3805  0.7422
 8785TIP3    H247847   0.265   2.480   4.328 -1.1053  0.0244  2.9538
 8786TIP3   OH247848   5.362   5.982  14.515  0.0197 -0.0757 -0.5495
 8786TIP3    H147849   5.294   5.926  14.552  0.1611  0.4759  0.5677
 8786TIP3    H247850   5.315   6.062  14.490 -0.0572 -0.4064 -1.4728
 8787TIP3   OH247851   0.672   0.105   2.188  0.3705 -0.1564 -0.2271
 8787TIP3    H147852   0.609   0.161   2.232  0.2003  1.0184 -1.9243
 8787TIP3    H247853   0.758   0.138   2.216  0.2660 -0.7714  0.8582
 8788TIP3   OH247854   6.387   1.266   3.119 -0.6718 -0.5314  0.2353
 8788TIP3    H147855   6.422   1.187   3.159 -0.4682 -0.3631  0.3916
 8788TIP3    H247856   6.308   1.237   3.074 -0.3689 -0.8978 -0.0586
 8789TIP3   OH247857   0.441   6.041  17.147  0.0843  0.2960  0.2534
 8789TIP3    H147858   0.510   6.047  17.213  1.4131 -1.2115 -0.9484
 8789TIP3    H247859   0.481   6.073  17.066 -0.5783 -0.6448 -0.4701
 8790TIP3   OH247860   6.071   4.985  16.835 -0.1999  0.0852  0.0281
 8790TIP3    H147861   6.156   4.945  16.847  0.7773  2.5415  1.7297
 8790TIP3    H247862   6.015   4.946  16.902  0.0127 -0.3577 -0.0528
 8791TIP3   OH247863   6.492   6.309   4.291 -0.4433  0.5291 -0.4235
 8791TIP3    H147864   6.541   6.328   4.371 -0.2896  0.7856 -0.5764
 8791TIP3    H247865   6.553   6.257   4.238 -0.9760 -0.6519  0.1224
 8792TIP3   OH247866   3.703   5.809   3.878 -0.5760 -0.5660 -0.2703
 8792TIP3    H147867   3.629   5.770   3.832  1.1222 -1.3774 -2.4220
 8792TIP3    H247868   3.682   5.903   3.883 -0.3448 -0.2925 -3.6783
 8793TIP3   OH247869   4.161   0.116  14.517  0.3394  0.1002 -0.2545
 8793TIP3    H147870   4.116   0.181  14.463  0.1005  0.7504  0.7214
 8793TIP3    H247871   4.206   0.060  14.454 -3.4196 -1.8158 -1.3523
 8794TIP3   OH247872   5.708   3.390   4.277 -0.1092 -0.5790  0.3166
 8794TIP3    H147873   5.619   3.381   4.308  0.2242 -0.7807  1.2197
 8794TIP3    H247874   5.703   3.369   4.183 -1.0135 -0.4913  0.3408
 8795TIP3   OH247875   3.290   5.817  13.253  0.5613  0.2372 -0.6694
 8795TIP3    H147876   3.276   5.903  13.292  2.3144  0.4234 -0.3787
 8795TIP3    H247877   3.250   5.823  13.166 -1.3313  0.5834  0.2054
 8796TIP3   OH247878   5.887   0.644   4.062  0.2274  0.5174  0.0423
 8796TIP3    H147879   5.915   0.608   4.146  0.4543 -0.2073 -0.3452
 8796TIP3    H247880   5.797   0.612   4.050  0.8743 -0.9913 -0.9016
 8797TIP3   OH247881   4.524   4.884  10.646  0.1566 -0.0196 -0.1432
 8797TIP3    H147882   4.435   4.873  10.611  0.8308 -1.1467 -1.5764
 8797TIP3    H247883   4.564   4.948  10.588  0.2773  0.5205  0.5304
 8798TIP3   OH247884   1.007   1.387  12.998  0.4548  0.5772 -0.1838
 8798TIP3    H147885   1.100   1.408  13.004  0.5699  0.8984 -2.4156
 8798TIP3    H247886   1.003   1.292  13.002  0.9359  0.5410 -0.4855
 8799TIP3   OH247887   5.539   0.580  12.841  0.4489 -0.8491 -0.3268
 8799TIP3    H147888   5.588   0.522  12.900  1.0499  0.3117  0.3375
 8799TIP3    H247889   5.606   0.629  12.795 -0.0708  0.6755  0.5102
 8800TIP3   OH247890   0.110   2.179  12.038  0.9992  0.2179 -0.1615
 8800TIP3    H147891   0.029   2.227  12.026  1.5154  0.8182 -1.3227
 8800TIP3    H247892   0.094   2.093  12.000  0.8657  0.2967 -0.2813
 8801TIP3   OH247893   1.062   5.601   4.410 -0.2892 -0.4536 -0.0440
 8801TIP3    H147894   1.117   5.566   4.481 -1.1086 -2.5376 -0.4016
 8801TIP3    H247895   1.115   5.591   4.331 -0.1298  0.0736 -0.0057
 8802TIP3   OH247896   2.686   3.269   4.733  0.1102  0.1403 -0.3572
 8802TIP3    H147897   2.708   3.182   4.700 -0.1285  0.3867 -1.1763
 8802TIP3    H247898   2.749   3.327   4.691 -2.4425  0.9409 -3.2495
 8803TIP3   OH247899   4.601   6.314  11.726  0.3238  0.1201 -0.2835
 8803TIP3    H147900   4.511   6.340  11.747  0.5251  0.6126 -0.0261
 8803TIP3    H247901   4.655   6.365  11.786  0.7808 -0.0957 -0.5131
 8804TIP3   OH247902   0.051   5.144   0.516 -0.3753 -0.1268  0.6335
 8804TIP3    H147903   0.039   5.075   0.450 -2.0509 -0.3087  1.1036
 8804TIP3    H247904   0.120   5.111   0.573  0.3148 -0.4644 -0.3870
 8805TIP3   OH247905   5.781   3.859   1.919  0.3328  0.0659 -0.4023
 8805TIP3    H147906   5.851   3.911   1.960 -0.4257  0.0096  0.9838
 8805TIP3    H247907   5.826   3.807   1.853  1.3812  1.1435 -0.5495
 8806TIP3   OH247908   2.384   3.377  12.810 -0.0428 -0.1604 -0.1067
 8806TIP3    H147909   2.384   3.281  12.807  0.4241 -0.1617 -0.0350
 8806TIP3    H247910   2.329   3.399  12.886 -2.4625 -0.3164 -1.7414
 8807TIP3   OH247911   0.604   0.356  13.713  0.3062  0.5365 -0.1870
 8807TIP3    H147912   0.522   0.403  13.730 -0.2175 -0.1764 -0.7297
 8807TIP3    H247913   0.622   0.309  13.795 -0.6327 -0.5100 -0.5640
 8808TIP3   OH247914   5.522   6.287   0.818  0.0901  0.0574  0.0335
 8808TIP3    H147915   5.438   6.331   0.827  0.8352  1.4102  0.5169
 8808TIP3    H247916   5.500   6.196   0.797 -1.4815  0.3720  0.3046
 8809TIP3   OH247917   6.247   1.444  12.080  0.1757 -0.0121 -0.1072
 8809TIP3    H147918   6.181   1.482  12.021 -0.5733 -0.4128  0.4696
 8809TIP3    H247919   6.329   1.487  12.054 -0.2141  0.1224 -1.1664
 8810TIP3   OH247920   2.610   3.976   2.279  0.4322 -0.1191  0.0767
 8810TIP3    H147921   2.703   3.954   2.281  0.4284 -0.0972  0.5220
 8810TIP3    H247922   2.569   3.905   2.230  0.8346  0.4288 -1.0592
 8811TIP3   OH247923   3.257   2.022   3.285 -0.2055 -0.4018  0.8440
 8811TIP3    H147924   3.275   1.933   3.253 -0.6971  0.2336 -1.2259
 8811TIP3    H247925   3.169   2.016   3.322  0.2093 -1.0350  1.7781
 8812TIP3   OH247926   3.575   4.535   0.026  0.4530  0.3231  0.8262
 8812TIP3    H147927   3.524   4.598   0.077 -2.0670 -0.6073 -0.4752
 8812TIP3    H247928   3.577   4.571  -0.063  1.9304  0.2434  0.8040
 8813TIP3   OH247929   2.725   6.009   1.711  0.0357 -0.4941 -0.4912
 8813TIP3    H147930   2.802   5.957   1.732  1.0005 -0.2287 -3.2408
 8813TIP3    H247931   2.663   5.989   1.781  1.7530 -2.4704  0.5086
 8814TIP3   OH247932   4.571   2.551   4.312 -0.6328  0.1173  0.1116
 8814TIP3    H147933   4.521   2.632   4.297 -0.3448  0.3823  0.5574
 8814TIP3    H247934   4.555   2.531   4.404  0.6557  0.5961  0.4480
 8815TIP3   OH247935   0.463   5.083  14.883  0.2949 -0.3343  0.3415
 8815TIP3    H147936   0.382   5.039  14.907 -0.2524  0.4304 -0.1053
 8815TIP3    H247937   0.441   5.133  14.804  0.6828  1.4133  1.3231
 8816TIP3   OH247938   0.419   2.902   0.118  0.5590 -0.5287 -0.3186
 8816TIP3    H147939   0.381   2.914   0.205  0.3081 -0.5052 -0.4329
 8816TIP3    H247940   0.432   2.990   0.084  2.1760 -0.4877  0.3562
 8817TIP3   OH247941   0.488   6.419  14.704 -0.2095 -0.5704  0.1491
 8817TIP3    H147942   0.543   6.433  14.780 -0.3319 -0.4544  0.2166
 8817TIP3    H247943   0.404   6.390  14.740 -0.0275 -1.2587  0.0155
 8818TIP3   OH247944   0.935   6.532   6.338  0.2523  0.1930  0.4036
 8818TIP3    H147945   0.855   6.585   6.338  0.9335  1.2308  1.1884
 8818TIP3    H247946   0.937   6.492   6.251 -0.9541  0.4138  0.2614
 8819TIP3   OH247947   2.160   5.675   2.828  0.0700 -0.1703  0.1168
 8819TIP3    H147948   2.236   5.732   2.837 -0.3125  0.3816 -0.0724
 8819TIP3    H247949   2.123   5.668   2.916 -0.3877  0.5956 -0.0052
 8820TIP3   OH247950   3.906   0.590   0.880  0.2642 -0.8306 -0.3724
 8820TIP3    H147951   3.924   0.506   0.838 -1.0842 -0.3568 -1.9645
 8820TIP3    H247952   3.813   0.604   0.865 -0.1783 -0.4693  2.5286
 8821TIP3   OH247953   4.467   2.469   6.456 -0.0724  0.7893  0.5253
 8821TIP3    H147954   4.442   2.559   6.435 -2.0366 -0.2471 -1.7772
 8821TIP3    H247955   4.392   2.433   6.503 -0.6605 -0.5858 -1.3780
 8822TIP3   OH247956   0.627   1.857  13.965 -0.3563 -0.1839  0.8071
 8822TIP3    H147957   0.635   1.854  14.060 -1.6047 -0.6004  0.9119
 8822TIP3    H247958   0.700   1.805  13.933 -0.1257 -0.3221  1.5532
 8823TIP3   OH247959   0.372   2.444  13.242 -0.4604  0.4529 -0.2377
 8823TIP3    H147960   0.406   2.383  13.177 -0.5691  0.8030 -0.6217
 8823TIP3    H247961   0.290   2.404  13.271 -1.9428  1.7769 -2.5139
 8824TIP3   OH247962   1.605   5.834   6.411  0.5783 -0.8250 -0.1084
 8824TIP3    H147963   1.592   5.778   6.487  0.4642 -0.7568 -0.0772
 8824TIP3    H247964   1.650   5.911   6.445 -0.6593 -0.1946  0.1309
 8825TIP3   OH247965   0.334   3.041  16.610  0.1173  0.3226 -0.3787
 8825TIP3    H147966   0.282   3.028  16.689  1.4156  2.0945  0.8223
 8825TIP3    H247967   0.293   3.115  16.566 -0.4963 -0.5489 -1.2931
 8826TIP3   OH247968   0.764   1.373   2.255  0.1235  0.1493 -0.0833
 8826TIP3    H147969   0.706   1.420   2.314 -1.2370 -0.7108 -0.7107
 8826TIP3    H247970   0.787   1.293   2.303 -0.0463  0.0018 -0.2464
 8827TIP3   OH247971   6.766   5.399   0.538  0.4759  0.3220 -0.6132
 8827TIP3    H147972   6.797   5.310   0.519  1.1730  0.7099 -1.3368
 8827TIP3    H247973   6.714   5.423   0.462 -2.0247 -0.4945  0.8033
 8828TIP3   OH247974   1.457   2.569   2.767 -0.0762 -0.1444 -0.4367
 8828TIP3    H147975   1.379   2.621   2.746 -0.6484 -1.0872 -0.6596
 8828TIP3    H247976   1.516   2.584   2.693  0.3036  1.2427  0.1347
 8829TIP3   OH247977   4.908   5.678  16.767 -0.1454  0.0444  0.9609
 8829TIP3    H147978   4.919   5.767  16.799 -1.1246  0.0618  1.2376
 8829TIP3    H247979   4.814   5.667  16.757  0.0314 -0.6117 -0.0582
 8830TIP3   OH247980   4.966   0.828   4.243  0.6881 -0.2096  0.0563
 8830TIP3    H147981   4.910   0.883   4.189 -1.0340 -1.5287  0.4370
 8830TIP3    H247982   5.040   0.884   4.267 -1.0539  1.9342  0.5143
 8831TIP3   OH247983   4.453   5.918  10.854  0.0707  0.6678 -0.0617
 8831TIP3    H147984   4.470   5.980  10.783  0.2528 -0.4576 -1.0073
 8831TIP3    H247985   4.455   5.832  10.813  0.6448 -0.0382  1.3915
 8832TIP3   OH247986   4.703   6.460  13.098  0.2009 -0.0864  0.2939
 8832TIP3    H147987   4.754   6.464  13.017 -1.7182 -3.4629 -1.1600
 8832TIP3    H247988   4.764   6.486  13.166  1.6629  3.6048 -2.2704
 8833TIP3   OH247989   3.319   6.500   5.099  0.7121 -0.5057  0.1639
 8833TIP3    H147990   3.295   6.514   5.190  1.2678  1.9815 -0.0431
 8833TIP3    H247991   3.413   6.480   5.102  0.7985 -0.1091  0.1111
 8834TIP3   OH247992   2.176   1.246  11.593 -0.5455 -0.2764 -0.5432
 8834TIP3    H147993   2.216   1.188  11.528  2.6334  2.3486 -1.0838
 8834TIP3    H247994   2.091   1.269  11.556 -0.1463 -1.4386 -2.2153
 8835TIP3   OH247995   5.118   4.946  14.931  0.1428 -0.0754  0.0383
 8835TIP3    H147996   5.037   4.931  14.882  0.7959 -0.5826 -0.8797
 8835TIP3    H247997   5.130   5.041  14.929 -1.3526  0.1881  1.6797
 8836TIP3   OH247998   2.205   3.358   1.438 -0.2815 -0.5978  0.2327
 8836TIP3    H147999   2.251   3.433   1.400 -0.5925 -0.6273 -0.2073
 8836TIP3    H248000   2.245   3.346   1.523  1.0215 -1.0708 -0.4337
 8837TIP3   OH248001   3.022   0.494  14.199  0.4131 -0.0849  0.7472
 8837TIP3    H148002   3.027   0.408  14.156  0.9807 -0.2510  1.1354
 8837TIP3    H248003   2.966   0.546  14.142  0.2672 -0.6387  0.3760
 8838TIP3   OH248004   5.539   2.097  14.756 -0.0044  0.0073 -0.2231
 8838TIP3    H148005   5.541   2.097  14.851 -1.2830  0.3329 -0.1897
 8838TIP3    H248006   5.469   2.158  14.733 -0.1862 -0.6039 -1.3573
 8839TIP3   OH248007   0.408   4.796   2.185 -0.4066  0.5327 -0.1274
 8839TIP3    H148008   0.390   4.767   2.275 -1.3451 -3.1313 -1.3753
 8839TIP3    H248009   0.501   4.820   2.186 -0.3720  0.4451  1.7911
 8840TIP3   OH248010   4.940   1.837  14.054 -0.3157 -0.3290 -0.1250
 8840TIP3    H148011   5.009   1.795  14.002  0.1609 -0.0752  0.2953
 8840TIP3    H248012   4.985   1.910  14.098 -0.8867 -0.0731  0.0321
 8841TIP3   OH248013   3.329   6.134   2.419  0.0782  0.6757 -0.6933
 8841TIP3    H148014   3.383   6.054   2.419  1.0003  1.2930 -0.3614
 8841TIP3    H248015   3.314   6.152   2.326 -3.2246 -1.9279 -0.7518
 8842TIP3   OH248016   2.696   4.218  11.297  1.1609  0.4603 -0.2820
 8842TIP3    H148017   2.732   4.237  11.211 -1.1102  0.7944 -1.1995
 8842TIP3    H248018   2.624   4.157  11.281  0.9152  0.2652  1.4061
 8843TIP3   OH248019   3.567   4.295  13.043  0.3948 -0.5004 -0.4134
 8843TIP3    H148020   3.586   4.201  13.036  0.0296 -0.6114  0.0940
 8843TIP3    H248021   3.624   4.335  12.977 -0.2027 -1.1720 -1.3515
 8844TIP3   OH248022   6.807   3.229   6.003  0.2574 -0.0532  0.2171
 8844TIP3    H148023   6.888   3.280   6.008 -0.8187  2.0683 -2.3625
 8844TIP3    H248024   6.755   3.260   6.077  0.0297  1.9392 -0.7345
 8845TIP3   OH248025   5.145   2.366   0.061  0.2004  0.2894 -0.0837
 8845TIP3    H148026   5.197   2.344  -0.017  0.3095 -0.2972  0.1554
 8845TIP3    H248027   5.165   2.297   0.123 -0.6342  0.2337  0.1237
 8846TIP3   OH248028   3.531   6.341   3.296  0.1949 -0.0313  0.4667
 8846TIP3    H148029   3.531   6.421   3.244  0.0804  0.0495  0.5914
 8846TIP3    H248030   3.609   6.294   3.267  0.6367  0.4369  0.8785
 8847TIP3   OH248031   0.758   5.324  13.943 -0.6991 -0.1725  0.1592
 8847TIP3    H148032   0.787   5.238  13.972 -1.6285 -0.6083 -0.1552
 8847TIP3    H248033   0.807   5.386  13.996 -0.0327 -0.8991  0.3991
 8848TIP3   OH248034   3.665   0.226  17.252 -0.1290 -0.4112 -0.9686
 8848TIP3    H148035   3.571   0.238  17.270 -0.2303  1.0704 -2.2720
 8848TIP3    H248036   3.705   0.307  17.282  0.8121 -1.2395  0.0218
 8849TIP3   OH248037   1.198   0.224   4.644 -0.0589  0.1306  0.0158
 8849TIP3    H148038   1.155   0.275   4.713  0.0598 -0.5700  0.6154
 8849TIP3    H248039   1.177   0.133   4.665  2.0437 -0.2624  0.5760
 8850TIP3   OH248040   6.468   5.104   3.106 -0.1950  0.2694 -0.2833
 8850TIP3    H148041   6.401   5.123   3.041 -1.9388  1.1803  1.7141
 8850TIP3    H248042   6.464   5.179   3.166  2.9052  0.5607 -0.3299
 8851TIP3   OH248043   3.207   6.463  13.622  0.1843 -0.4816  0.0624
 8851TIP3    H148044   3.156   6.408  13.682 -0.9360 -1.0756 -1.4233
 8851TIP3    H248045   3.172   6.444  13.535 -0.0174  2.3174 -0.5377
 8852TIP3   OH248046   4.784   3.036   4.226  0.0275  0.3107  0.6214
 8852TIP3    H148047   4.783   3.072   4.138  0.8323  0.2164  0.5740
 8852TIP3    H248048   4.691   3.021   4.246 -0.4394  3.4687  1.0970
 8853TIP3   OH248049   3.015   5.181   3.651 -0.1009 -0.2482  0.0204
 8853TIP3    H148050   3.003   5.088   3.634  0.2877 -1.2143  4.4449
 8853TIP3    H248051   3.108   5.192   3.666 -0.2256  0.7539  0.1219
 8854TIP3   OH248052   0.664   6.749  16.471  0.3085  0.3668  0.0111
 8854TIP3    H148053   0.713   6.680  16.516 -0.2279 -0.6536 -0.9242
 8854TIP3    H248054   0.648   6.815  16.538  2.4815  0.4643  0.4573
 8855TIP3   OH248055   1.715   6.320  13.130 -0.3358 -0.4199  0.0625
 8855TIP3    H148056   1.660   6.302  13.054 -0.4335  1.1728 -0.2571
 8855TIP3    H248057   1.799   6.347  13.093 -0.7340  1.4432  0.5024
 8856TIP3   OH248058   0.161   4.641   4.303  0.4036 -0.1496  0.3862
 8856TIP3    H148059   0.191   4.702   4.235  0.8129  1.1932  1.7491
 8856TIP3    H248060   0.074   4.673   4.327  1.6806  1.5873  2.9938
 8857TIP3   OH248061   1.272   0.051   1.728 -0.2668 -0.1168  0.5957
 8857TIP3    H148062   1.218   0.066   1.806  0.6914  0.7713  1.1018
 8857TIP3    H248063   1.348   0.003   1.760  0.6240  1.1424  0.4019
 8858TIP3   OH248064   0.855   2.484  14.982 -0.1879  0.1490  0.2168
 8858TIP3    H148065   0.842   2.394  14.952  2.5252  0.3404 -1.6665
 8858TIP3    H248066   0.803   2.490  15.062 -2.3522 -2.3521 -0.9350
 8859TIP3   OH248067   2.573   2.778  15.379  0.1105 -0.3094  0.5103
 8859TIP3    H148068   2.598   2.689  15.403  0.9843 -0.1613  0.1745
 8859TIP3    H248069   2.483   2.788  15.411  0.0357 -1.2854  0.5981
 8860TIP3   OH248070   6.564   4.270   4.294  0.1897 -0.1041 -0.0739
 8860TIP3    H148071   6.578   4.365   4.295  0.8808 -0.2087  0.7366
 8860TIP3    H248072   6.483   4.257   4.342  0.0437  0.0803 -0.2670
 8861TIP3   OH248073   1.853   0.382   2.999  0.4378 -0.0975  0.1428
 8861TIP3    H148074   1.891   0.297   2.977 -1.5081 -1.1816  0.8563
 8861TIP3    H248075   1.913   0.419   3.064  0.8630 -1.2797  0.4355
 8862TIP3   OH248076   1.494   5.280   3.536  0.2548 -0.4563 -0.5173
 8862TIP3    H148077   1.474   5.295   3.443  0.0078  0.0153 -0.3911
 8862TIP3    H248078   1.479   5.365   3.577  1.8134 -0.2807 -0.2831
 8863TIP3   OH248079   1.599   4.945   3.420 -0.1083  0.8809 -0.0455
 8863TIP3    H148080   1.690   4.946   3.449 -0.1102  1.9789 -0.0661
 8863TIP3    H248081   1.550   4.911   3.495  0.7848 -4.0330 -1.4989
 8864TIP3   OH248082   3.394   1.638   2.777  0.3480  0.0768  0.4570
 8864TIP3    H148083   3.338   1.569   2.811  0.8308  0.7610  2.7747
 8864TIP3    H248084   3.483   1.611   2.801  0.7302  0.5257 -0.4105
 8865TIP3   OH248085   3.125   1.977  12.200  0.2092 -0.4498 -0.2769
 8865TIP3    H148086   3.101   1.890  12.169  2.5137 -1.0520 -0.4925
 8865TIP3    H248087   3.132   1.969  12.295  0.1324 -0.4292 -0.2698
 8866TIP3   OH248088   3.748   5.269   3.337 -0.0149  0.2231 -0.4769
 8866TIP3    H148089   3.782   5.236   3.254 -0.1968  0.5125 -0.6673
 8866TIP3    H248090   3.822   5.313   3.378 -0.1085  0.6885 -0.8040
 8867TIP3   OH248091   0.217   6.462  15.670  0.1357  0.0547  0.2920
 8867TIP3    H148092   0.184   6.499  15.589 -0.4240  0.3105  0.6347
 8867TIP3    H248093   0.220   6.535  15.732  1.3156  0.0320  0.2800
 8868TIP3   OH248094   4.334   3.375   4.617 -0.4369 -0.0794  0.6647
 8868TIP3    H148095   4.367   3.365   4.706  0.4184  1.0306  0.4880
 8868TIP3    H248096   4.330   3.470   4.604 -2.2366 -0.2219  0.1353
 8869TIP3   OH248097   6.362   1.928  11.794  0.5512  0.6035  0.4667
 8869TIP3    H148098   6.352   1.979  11.713  0.8348 -1.2176 -0.7687
 8869TIP3    H248099   6.313   1.847  11.777 -1.3392  1.1421  3.0264
 8870TIP3   OH248100   6.507   2.704  11.946 -0.1148  0.5552  0.7820
 8870TIP3    H148101   6.414   2.684  11.960 -0.4244  2.5365  1.7046
 8870TIP3    H248102   6.510   2.738  11.856 -0.1686 -0.1047  0.5242
 8871TIP3   OH248103   0.173   1.566  15.820  0.3293 -0.2901 -0.2473
 8871TIP3    H148104   0.214   1.640  15.774  1.6987 -0.7469  0.2094
 8871TIP3    H248105   0.119   1.607  15.887  1.8637  0.3233  0.6659
 8872TIP3   OH248106   1.285   6.045  17.231  0.0217  0.1762  0.2834
 8872TIP3    H148107   1.345   6.106  17.274  3.6253 -2.0077 -1.3408
 8872TIP3    H248108   1.272   6.081  17.143 -0.2276  0.1355  0.3023
 8873TIP3   OH248109   5.956   3.606   3.906 -0.1452  0.1613 -0.7746
 8873TIP3    H148110   6.028   3.605   3.843  0.5443  0.4096  0.0072
 8873TIP3    H248111   5.932   3.514   3.916  0.8213 -0.0399 -0.1849
 8874TIP3   OH248112   0.198   1.749  11.423 -0.3255 -0.2410 -0.4948
 8874TIP3    H148113   0.157   1.674  11.466 -0.5099  1.0311  1.6505
 8874TIP3    H248114   0.231   1.715  11.341  1.0887 -3.0812  1.1802
 8875TIP3   OH248115   0.678   1.832   3.556  0.7433 -0.8271  0.1967
 8875TIP3    H148116   0.634   1.853   3.638 -0.1096 -1.4512 -0.0874
 8875TIP3    H248117   0.670   1.737   3.548 -0.4603 -0.6222 -1.3130
 8876TIP3   OH248118   1.475   1.192  12.297  0.3142  0.0936  0.0098
 8876TIP3    H148119   1.535   1.265  12.282  0.6593 -0.0825  0.5223
 8876TIP3    H248120   1.513   1.144  12.370 -0.1450 -0.3522 -0.0390
 8877TIP3   OH248121   3.584   4.222  15.227 -0.0107  0.1119 -0.1194
 8877TIP3    H148122   3.546   4.203  15.313 -0.2615 -0.6676 -0.3929
 8877TIP3    H248123   3.522   4.184  15.165  0.2558  0.5218 -0.6439
 8878TIP3   OH248124   4.447   2.221   2.363 -0.2013 -0.1181 -0.6711
 8878TIP3    H148125   4.502   2.142   2.364  0.5956  0.4561  0.7324
 8878TIP3    H248126   4.412   2.227   2.452 -1.1211  0.5226 -1.0735
 8879TIP3   OH248127   2.208   3.931   1.845 -0.6700  0.2811  0.1419
 8879TIP3    H148128   2.163   3.905   1.764  2.4219  1.8170 -2.1733
 8879TIP3    H248129   2.224   3.848   1.890 -1.7679 -0.6794 -1.1693
 8880TIP3   OH248130   3.196   4.689  12.699 -0.0692  0.0574 -0.4634
 8880TIP3    H148131   3.172   4.773  12.661  2.2357  0.3842 -1.2690
 8880TIP3    H248132   3.125   4.629  12.674 -3.2041  2.3404  2.5007
 8881TIP3   OH248133   3.816   2.317   2.750  0.0394  0.1605  0.0338
 8881TIP3    H148134   3.803   2.400   2.703  0.8108 -0.8047 -1.9632
 8881TIP3    H248135   3.910   2.300   2.742 -0.0098 -0.5626  1.0134
 8882TIP3   OH248136   2.057   5.011   2.536 -0.5713  0.3887 -0.9754
 8882TIP3    H148137   2.058   5.065   2.614  0.9899  2.8062 -2.6099
 8882TIP3    H248138   1.968   4.976   2.532 -0.7714  0.5232  1.6275
 8883TIP3   OH248139   0.933   0.061  15.923 -0.0384 -0.4032 -0.2257
 8883TIP3    H148140   0.940  -0.022  15.970  1.5041 -1.0268 -1.5042
 8883TIP3    H248141   1.012   0.109  15.949 -0.9185  0.6701  0.4997
 8884TIP3   OH248142   1.792   1.307  13.339 -0.4954 -0.1614 -0.7397
 8884TIP3    H148143   1.773   1.394  13.303 -0.3094 -0.6686 -2.1103
 8884TIP3    H248144   1.707   1.271  13.361 -0.6459  0.0327 -0.9970
 8885TIP3   OH248145   3.592   0.069   5.977 -0.0066  0.7536 -0.0399
 8885TIP3    H148146   3.678   0.044   5.944 -0.0465 -0.1717  0.5467
 8885TIP3    H248147   3.572   0.151   5.931  1.8655  1.8402  1.0186
 8886TIP3   OH248148   4.781   0.292   2.327 -0.9790  0.2233 -0.2753
 8886TIP3    H148149   4.781   0.387   2.329  0.6964  0.2186  2.2984
 8886TIP3    H248150   4.689   0.268   2.320 -1.4297  2.0041 -0.6607
 8887TIP3   OH248151   6.408   2.282   2.944  0.0829  0.2053 -0.0255
 8887TIP3    H148152   6.339   2.296   2.879 -0.1371  0.5564  0.2876
 8887TIP3    H248153   6.440   2.369   2.965 -1.5267  0.3187  2.1791
 8888TIP3   OH248154   2.372   4.292   3.457 -0.2183  0.2056 -0.0745
 8888TIP3    H148155   2.446   4.343   3.491  0.9039  0.6291 -3.0530
 8888TIP3    H248156   2.295   4.334   3.494  0.8931  1.1876  1.1939
 8889TIP3   OH248157   0.884   1.863  14.450  0.0315 -0.0151 -0.4055
 8889TIP3    H148158   0.972   1.843  14.480  0.1512  0.3357 -0.5133
 8889TIP3    H248159   0.859   1.942  14.499 -0.4642 -0.4742  0.0832
 8890TIP3   OH248160   6.137   2.132  10.419 -0.6123  0.4027 -0.2088
 8890TIP3    H148161   6.183   2.087  10.348  0.4090  1.0586  0.0155
 8890TIP3    H248162   6.045   2.109  10.408 -0.6786  1.6839 -2.6197
 8891TIP3   OH248163   1.237   0.084   2.828  0.4468 -0.2026 -0.6888
 8891TIP3    H148164   1.202   0.118   2.746  1.5010  1.8241 -0.3099
 8891TIP3    H248165   1.325   0.121   2.835  1.4537 -2.5701  0.0028
 8892TIP3   OH248166   1.779   2.422   4.799  0.4538  0.2535 -0.2078
 8892TIP3    H148167   1.732   2.360   4.854  0.0526  1.2412  0.5665
 8892TIP3    H248168   1.755   2.398   4.709  1.4711 -1.6533  0.0105
 8893TIP3   OH248169   1.885   0.652  14.809 -0.0773  0.0144 -0.3733
 8893TIP3    H148170   1.913   0.640  14.718  5.5710  3.1611  0.7826
 8893TIP3    H248171   1.831   0.731  14.807  0.0403  0.0845 -0.9468
 8894TIP3   OH248172   2.877   3.639  17.070  0.0496 -0.1851  0.1636
 8894TIP3    H148173   2.807   3.600  17.121 -0.4629 -1.3219 -1.3618
 8894TIP3    H248174   2.943   3.570  17.062  1.6377  1.0473  2.0516
 8895TIP3   OH248175   2.088   0.406  11.773  0.3740  0.4208 -0.2103
 8895TIP3    H148176   2.010   0.360  11.805  1.3668 -0.8230  0.4320
 8895TIP3    H248177   2.149   0.337  11.748  1.2217  1.3881 -0.8863
 8896TIP3   OH248178   3.723   2.349  16.801 -0.1890 -0.2488  1.0806
 8896TIP3    H148179   3.777   2.422  16.833 -0.5507  0.2053  0.6623
 8896TIP3    H248180   3.634   2.386  16.796 -0.9959 -1.6588  4.0463
 8897TIP3   OH248181   3.977   1.012  16.619  0.3836 -0.6802  0.3014
 8897TIP3    H148182   3.891   0.988  16.654  0.4542  0.3371  1.1745
 8897TIP3    H248183   3.963   1.096  16.576  0.9100 -0.5883  0.3113
 8898TIP3   OH248184   4.559   3.610   2.300  0.2217 -0.3338 -0.4868
 8898TIP3    H148185   4.580   3.611   2.394  0.4512 -0.9658 -0.5297
 8898TIP3    H248186   4.499   3.537   2.290 -1.2409  0.8434 -0.5399
 8899TIP3   OH248187   1.092   0.540  11.318 -0.1672  0.3991  0.2231
 8899TIP3    H148188   1.095   0.458  11.368  3.8221  0.7391  0.7398
 8899TIP3    H248189   1.050   0.515  11.235 -2.1216 -1.3585  1.6925
 8900TIP3   OH248190   4.484   5.741   0.708 -0.1070 -0.1445 -0.4709
 8900TIP3    H148191   4.481   5.818   0.765  1.0728  0.4686 -1.2186
 8900TIP3    H248192   4.399   5.698   0.721 -1.0814  1.7029 -0.6317
 8901TIP3   OH248193   5.030   2.999  16.010 -0.6196  0.1817 -0.2408
 8901TIP3    H148194   4.937   3.002  16.034 -0.7741 -2.4153 -0.4031
 8901TIP3    H248195   5.045   2.909  15.982  2.5408 -0.1784  2.2255
 8902TIP3   OH248196   4.401   4.613   4.864 -0.2802  0.3949  0.5020
 8902TIP3    H148197   4.377   4.703   4.841 -0.6579  0.2209  0.1983
 8902TIP3    H248198   4.495   4.616   4.879 -0.0068  0.4979 -1.1442
 8903TIP3   OH248199   1.421   3.105   4.371  0.5157 -0.0174  0.0572
 8903TIP3    H148200   1.330   3.132   4.380 -0.5048 -3.3065  0.2881
 8903TIP3    H248201   1.462   3.126   4.455 -0.3383  0.3049  0.3898
 8904TIP3   OH248202   3.338   4.286   4.021  0.4526  0.2096  0.4131
 8904TIP3    H148203   3.403   4.308   3.954  1.6254 -0.9619  1.1391
 8904TIP3    H248204   3.310   4.371   4.055 -0.0685  0.8172 -1.4516
 8905TIP3   OH248205   0.548   2.059   3.421 -0.4169  0.1607  0.0740
 8905TIP3    H148206   0.495   2.118   3.475  0.7224  1.0917  0.1889
 8905TIP3    H248207   0.582   1.994   3.482 -1.0651 -0.1853  0.0711
 8906TIP3   OH248208   1.713   5.284  13.080 -0.2073  0.3905 -0.1593
 8906TIP3    H148209   1.636   5.254  13.129 -0.6135 -0.0205 -1.0381
 8906TIP3    H248210   1.748   5.356  13.132 -0.8929  0.2487  0.5111
 8907TIP3   OH248211   2.077   0.197   4.035  0.1608 -0.2792 -0.1026
 8907TIP3    H148212   2.069   0.228   4.125 -0.1908 -0.8104  0.0525
 8907TIP3    H248213   2.170   0.209   4.013 -0.0326  1.2324 -0.1871
 8908TIP3   OH248214   1.062   2.177  13.375  0.0664 -0.3128  0.5056
 8908TIP3    H148215   1.147   2.133  13.374 -0.3980 -1.3167  2.6517
 8908TIP3    H248216   1.001   2.112  13.339 -0.1050 -0.3106  0.7893
 8909TIP3   OH248217   4.406   6.422   4.475 -0.5380 -0.1522 -0.5376
 8909TIP3    H148218   4.345   6.466   4.534 -0.4635  0.5696 -0.9963
 8909TIP3    H248219   4.464   6.373   4.533 -0.3590  0.6842  0.0091
 8910TIP3   OH248220   0.646   0.273  13.168 -0.0244  0.1539  0.2957
 8910TIP3    H148221   0.701   0.335  13.120  0.1553 -0.4376 -0.2725
 8910TIP3    H248222   0.647   0.194  13.114  0.4874 -0.6449  1.4493
 8911TIP3   OH248223   0.871   0.698  11.674 -0.0677 -0.3829  0.3131
 8911TIP3    H148224   0.958   0.738  11.665  0.5110 -1.2931  1.6740
 8911TIP3    H248225   0.882   0.609  11.643 -0.3827 -0.6586  0.9874
 8912TIP3   OH248226   4.663   2.971  14.650  0.6014  0.1334  0.1418
 8912TIP3    H148227   4.730   2.912  14.617 -0.7113 -1.4412  0.2316
 8912TIP3    H248228   4.676   3.052  14.600  1.4506 -0.7276 -1.0682
 8913TIP3   OH248229   2.253   0.679   5.019 -0.0543 -0.1761  0.4377
 8913TIP3    H148230   2.288   0.617   4.955  1.3189  2.6380 -1.6504
 8913TIP3    H248231   2.322   0.689   5.084  0.0112 -0.3409  0.3916
 8914TIP3   OH248232   3.203   5.460   2.687  0.1784  0.0657 -0.2776
 8914TIP3    H148233   3.295   5.456   2.660 -0.1924 -2.3858 -1.3454
 8914TIP3    H248234   3.154   5.455   2.605 -0.9067 -0.2784  0.3809
 8915TIP3   OH248235   4.100   5.921   0.274 -0.0122 -0.4470 -0.1437
 8915TIP3    H148236   4.047   5.868   0.334  0.2984  0.1552  0.6805
 8915TIP3    H248237   4.179   5.869   0.260  0.5214  0.0176  1.0766
 8916TIP3   OH248238   4.203   5.024  10.810 -0.1031  0.0386  0.0579
 8916TIP3    H148239   4.226   4.976  10.890  1.2027 -0.3070 -0.5173
 8916TIP3    H248240   4.112   4.998  10.792  0.0078 -0.8538  0.7305
 8917TIP3   OH248241   2.680   2.123  14.911 -0.3441  0.4464 -0.2193
 8917TIP3    H148242   2.646   2.176  14.983  2.9977 -0.1203  1.8758
 8917TIP3    H248243   2.605   2.071  14.882 -2.4870  2.8489  0.8212
 8918TIP3   OH248244   2.021   3.859   0.413  0.0036 -0.6269  0.1243
 8918TIP3    H148245   2.001   3.950   0.393  0.7918 -0.3006  0.8047
 8918TIP3    H248246   2.057   3.823   0.332 -1.0035 -0.5422 -0.3662
 8919TIP3   OH248247   4.684   5.458  16.971 -0.0393 -0.4711  0.2199
 8919TIP3    H148248   4.630   5.388  16.934 -0.3645  0.6716 -1.5719
 8919TIP3    H248249   4.658   5.536  16.921  0.5457  0.8527  1.9477
 8920TIP3   OH248250   5.479   4.748   0.555  0.4358 -0.4424 -0.3192
 8920TIP3    H148251   5.494   4.790   0.470  1.5180 -1.0796 -0.4562
 8920TIP3    H248252   5.556   4.692   0.568 -0.2695 -1.2293  0.5524
 8921TIP3   OH248253   0.745   0.866   6.459  0.5845  0.3256  0.1281
 8921TIP3    H148254   0.652   0.890   6.453  0.8878  1.8544  1.2599
 8921TIP3    H248255   0.781   0.926   6.524  2.1816 -0.8706  0.3788
 8922TIP3   OH248256   2.498   3.827   5.336  0.1639 -0.1510 -0.5978
 8922TIP3    H148257   2.588   3.851   5.354  0.0956 -0.6229  0.4254
 8922TIP3    H248258   2.447   3.903   5.364  0.3611  0.7746 -2.7331
 8923TIP3   OH248259   2.888   5.260  15.072 -0.2040  0.6256  0.4570
 8923TIP3    H148260   2.949   5.266  14.998 -0.2470 -0.9632  0.2773
 8923TIP3    H248261   2.944   5.260  15.149  0.1218 -2.0095  0.2494
 8924TIP3   OH248262   4.353   2.121  13.179  0.2692 -0.3763  0.0275
 8924TIP3    H148263   4.342   2.214  13.196 -0.0737 -0.0572 -1.7619
 8924TIP3    H248264   4.266   2.091  13.154  0.6313 -0.8977 -0.6360
 8925TIP3   OH248265   0.057   2.517  14.568 -0.1093 -0.4736 -0.5192
 8925TIP3    H148266   0.075   2.611  14.571  0.6647 -0.5994 -0.9957
 8925TIP3    H248267   0.108   2.486  14.493  0.4764 -1.4467  0.2759
 8926TIP3   OH248268   5.390   3.328  16.477  0.3248 -0.7747  1.0079
 8926TIP3    H148269   5.376   3.234  16.463  0.5985 -0.9158  1.6834
 8926TIP3    H248270   5.434   3.357  16.397  1.4608 -1.4922  1.3682
 8927TIP3   OH248271   0.556   4.928   6.339 -0.4255 -0.7404 -0.8104
 8927TIP3    H148272   0.577   4.843   6.301 -3.0802 -1.0529 -1.6147
 8927TIP3    H248273   0.544   4.910   6.433  0.1388 -1.0289 -0.7914
 8928TIP3   OH248274   2.731   3.893  14.038 -0.1080  0.6531  0.1296
 8928TIP3    H148275   2.735   3.902  14.134  0.5196 -0.4388  0.2071
 8928TIP3    H248276   2.637   3.882  14.020 -0.2887  1.4161  0.5615
 8929TIP3   OH248277   5.414   6.644  16.418 -0.2401 -0.2897 -0.5342
 8929TIP3    H148278   5.325   6.623  16.445 -0.5332  0.4889 -0.8888
 8929TIP3    H248279   5.454   6.685  16.495 -0.7322  0.9222 -0.9050
 8930TIP3   OH248280   0.483   1.883   2.273  0.0537  0.3641 -0.0975
 8930TIP3    H148281   0.408   1.924   2.229  1.3221  1.8612 -0.9025
 8930TIP3    H248282   0.504   1.807   2.219 -2.1273 -1.2684  1.2427
 8931TIP3   OH248283   4.310   0.223  13.682 -0.2963 -0.3959  0.4136
 8931TIP3    H148284   4.226   0.206  13.724 -0.5794 -0.2008 -0.0719
 8931TIP3    H248285   4.349   0.294  13.733 -0.0119 -1.1198  1.2071
 8932TIP3   OH248286   4.060   0.592   5.215 -0.3974  0.1210 -0.2118
 8932TIP3    H148287   4.045   0.565   5.306 -0.5810 -0.1449 -0.3172
 8932TIP3    H248288   3.975   0.578   5.172 -1.1548  3.0240  0.2315
 8933TIP3   OH248289   0.676   3.701  16.734 -0.1513 -0.1676  0.0377
 8933TIP3    H148290   0.716   3.772  16.683  0.1903  1.0785  1.9900
 8933TIP3    H248291   0.741   3.678  16.800 -1.6289  0.1616  1.6677
 8934TIP3   OH248292   2.873   3.089   0.116 -0.3272  0.0174  0.4910
 8934TIP3    H148293   2.920   3.006   0.115 -2.0191 -0.9417  0.2502
 8934TIP3    H248294   2.895   3.130   0.032 -1.7138 -1.4405 -0.6008
 8935TIP3   OH248295   0.250   4.271   1.605 -0.0289  0.1625 -0.1405
 8935TIP3    H148296   0.268   4.362   1.629 -1.5603  0.4012  0.1137
 8935TIP3    H248297   0.310   4.220   1.659  0.5328  0.9842  0.0313
 8936TIP3   OH248298   5.871   4.418   3.486 -0.2626  0.0481  0.2077
 8936TIP3    H148299   5.913   4.454   3.564  2.3574  0.2308 -1.2263
 8936TIP3    H248300   5.839   4.495   3.439 -0.5516  0.0316  0.3719
 8937TIP3   OH248301   0.277   6.475  12.937 -0.1272  0.0785  0.3460
 8937TIP3    H148302   0.339   6.440  13.001 -0.3924  0.0391  0.5830
 8937TIP3    H248303   0.210   6.408  12.929  0.6649 -0.5580 -1.0715
 8938TIP3   OH248304   0.587   2.869   4.382 -0.8191 -0.1045 -0.2681
 8938TIP3    H148305   0.608   2.881   4.475 -0.4241 -0.8268 -0.2575
 8938TIP3    H248306   0.497   2.837   4.381 -0.8863  0.0852 -0.1369
 8939TIP3   OH248307   0.169   2.913  12.683 -0.1426 -0.1342 -0.3987
 8939TIP3    H148308   0.232   2.893  12.752  1.5954  2.7531 -1.0518
 8939TIP3    H248309   0.112   2.836  12.679  0.0604 -0.6049  3.8133
 8940TIP3   OH248310   0.329   3.060   4.402 -0.0674  0.0562  0.2435
 8940TIP3    H148311   0.243   3.073   4.441 -0.8815  0.6643 -1.6928
 8940TIP3    H248312   0.322   2.977   4.354  0.0032  0.7497 -0.9871
 8941TIP3   OH248313   4.626   1.594  17.093 -0.0662  0.6481 -0.0775
 8941TIP3    H148314   4.720   1.597  17.111  0.2115  1.0593 -1.5233
 8941TIP3    H248315   4.615   1.515  17.040 -1.2095 -1.8627  3.6708
 8942TIP3   OH248316   3.199   4.723  10.480  0.0917  0.1772 -0.2523
 8942TIP3    H148317   3.232   4.689  10.397 -1.5248 -1.7747 -0.1482
 8942TIP3    H248318   3.110   4.752  10.461 -0.6557 -1.2269  0.9909
 8943TIP3   OH248319   0.772   2.536   2.416 -0.3889 -0.1747 -0.4499
 8943TIP3    H148320   0.744   2.627   2.403  1.1360  0.7702  2.5353
 8943TIP3    H248321   0.697   2.484   2.388 -1.4805  2.0126 -1.7022
 8944TIP3   OH248322   1.967   1.955   1.300  0.7693 -0.1586  0.0072
 8944TIP3    H148323   1.921   2.039   1.304  2.9845  1.1112  0.0671
 8944TIP3    H248324   1.919   1.903   1.236 -2.4168  0.0098  2.1609
 8945TIP3   OH248325   2.516   6.765   3.613  0.1924 -0.7933  0.1400
 8945TIP3    H148326   2.610   6.771   3.625 -0.1497  1.1747  2.2781
 8945TIP3    H248327   2.496   6.672   3.616  2.0688 -1.2272 -0.5220
 8946TIP3   OH248328   3.856   6.607   3.159 -0.7967 -0.2198  0.2997
 8946TIP3    H148329   3.916   6.641   3.226  0.3842 -2.7052  0.5736
 8946TIP3    H248330   3.824   6.685   3.113  2.8275  1.1606 -0.0141
 8947TIP3   OH248331   2.666   5.192  13.231  0.5870  0.1392 -0.1169
 8947TIP3    H148332   2.605   5.193  13.305  1.0541  1.0506  0.2546
 8947TIP3    H248333   2.634   5.260  13.172  0.9474  0.2761 -0.1566
 8948TIP3   OH248334   5.588   2.529  11.388  0.2768  0.1988  0.2355
 8948TIP3    H148335   5.497   2.511  11.412  0.3397  0.5330  0.7275
 8948TIP3    H248336   5.624   2.443  11.365  0.3633 -0.2292  1.8778
 8949TIP3   OH248337   0.738   3.511  12.332 -0.0561 -0.3220  0.2256
 8949TIP3    H148338   0.817   3.501  12.385  1.0936 -0.9926 -1.5411
 8949TIP3    H248339   0.769   3.553  12.251 -1.6542  0.1590 -0.1574
 8950TIP3   OH248340   3.647   0.865   1.474 -0.5361 -0.0408 -0.4227
 8950TIP3    H148341   3.585   0.793   1.486  1.3096 -1.7094 -0.4943
 8950TIP3    H248342   3.655   0.874   1.379 -1.6824  1.1061 -0.4230
 8951TIP3   OH248343   4.717   1.347   3.316  0.0347  0.0107 -0.0398
 8951TIP3    H148344   4.745   1.437   3.302 -2.3471  1.1253  1.9399
 8951TIP3    H248345   4.663   1.327   3.239 -0.7439  0.8586  0.2686
 8952TIP3   OH248346   3.981   4.769  12.768 -0.1073  0.3525 -0.0886
 8952TIP3    H148347   3.992   4.773  12.863 -0.8784  0.0888  0.0157
 8952TIP3    H248348   3.886   4.767  12.755  0.0061 -2.4962 -0.7372
 8953TIP3   OH248349   5.521   5.197   1.760 -0.4987  0.0270 -0.5622
 8953TIP3    H148350   5.476   5.269   1.716  0.3398 -0.4545 -2.2422
 8953TIP3    H248351   5.457   5.126   1.761 -1.4965  0.8937  1.5183
 8954TIP3   OH248352   6.298   6.437  11.200  0.2174 -0.2525 -0.2511
 8954TIP3    H148353   6.364   6.506  11.195  1.7556 -1.7970 -2.3573
 8954TIP3    H248354   6.308   6.402  11.289  2.8590 -0.9756 -0.7685
 8955TIP3   OH248355   6.365   2.364  13.758 -0.2755 -0.0630 -0.1560
 8955TIP3    H148356   6.273   2.386  13.751 -0.0535  0.9405  0.0373
 8955TIP3    H248357   6.407   2.408  13.684 -0.0312 -0.9628 -0.5605
 8956TIP3   OH248358   1.787   1.841   1.033 -0.7761  0.0951  0.1887
 8956TIP3    H148359   1.701   1.829   0.994 -0.8929  0.0025  0.4714
 8956TIP3    H248360   1.823   1.920   0.991 -2.0312  1.6094  1.8840
 8957TIP3   OH248361   1.967   0.410  15.010 -0.2965  0.6098  0.4472
 8957TIP3    H148362   1.959   0.479  15.076  1.0635  1.0108  0.2125
 8957TIP3    H248363   1.943   0.453  14.928 -2.1645  0.0635  0.6927
 8958TIP3   OH248364   1.210   0.037   2.416  0.1388  0.3487  0.1695
 8958TIP3    H148365   1.305   0.043   2.421  0.1653  0.4067 -0.3770
 8958TIP3    H248366   1.187   0.081   2.334 -0.5291  2.1797  1.2964
 8959TIP3   OH248367   3.866   3.626  13.261  0.8051  0.2113 -0.1310
 8959TIP3    H148368   3.888   3.719  13.259 -0.0192  0.4658  1.3394
 8959TIP3    H248369   3.863   3.605  13.354  2.7329 -1.7302 -0.4716
 8960TIP3   OH248370   0.456   4.109  11.103 -0.0897  0.0324 -0.2265
 8960TIP3    H148371   0.388   4.175  11.091 -1.6915 -1.5413 -0.0257
 8960TIP3    H248372   0.474   4.076  11.015  0.3317  0.3491 -0.2622
 8961TIP3   OH248373   6.533   6.620  15.312 -0.4646  0.2525 -0.9102
 8961TIP3    H148374   6.601   6.613  15.245  0.6201 -0.6104  0.2560
 8961TIP3    H248375   6.580   6.618  15.395 -1.9145 -0.4089 -0.0725
 8962TIP3   OH248376   2.452   6.012   1.039 -0.2233  0.3864  0.0157
 8962TIP3    H148377   2.487   5.923   1.030  1.1340  1.0288 -1.3366
 8962TIP3    H248378   2.371   6.011   0.989 -1.3133 -0.6406  1.7359
 8963TIP3   OH248379   4.389   6.579   4.709 -0.9188  0.4165  0.4673
 8963TIP3    H148380   4.396   6.512   4.777  2.5710 -0.2239 -0.4160
 8963TIP3    H248381   4.479   6.611   4.698 -2.0019  2.9087 -1.4507
 8964TIP3   OH248382   3.873   6.638  17.271 -0.1628 -0.2343 -0.7362
 8964TIP3    H148383   3.803   6.673  17.215 -1.5800 -0.5162  0.8199
 8964TIP3    H248384   3.829   6.575  17.328  1.0523  0.7279  1.3388
 8965TIP3   OH248385   2.451   3.293  14.153  0.2591  0.3020  0.2118
 8965TIP3    H148386   2.523   3.234  14.130 -1.1250 -2.2095  2.0046
 8965TIP3    H248387   2.475   3.377  14.115  1.2411 -1.9430 -4.3836
 8966TIP3   OH248388   5.625   6.230   3.962  0.3203 -0.7049 -0.2090
 8966TIP3    H148389   5.577   6.156   3.998  1.2344 -1.3876 -0.3743
 8966TIP3    H248390   5.627   6.295   4.032 -1.3328 -0.4393 -0.3992
 8967TIP3   OH248391   3.509   2.134  15.411 -0.2694  0.2280  0.3253
 8967TIP3    H148392   3.583   2.108  15.357  0.4246 -0.1714  1.4607
 8967TIP3    H248393   3.494   2.060  15.470 -2.5225 -0.3168 -0.8869
 8968TIP3   OH248394   0.710   6.378  13.085  0.0888  0.1120 -0.6452
 8968TIP3    H148395   0.726   6.404  13.176 -0.0091  0.5405 -0.7528
 8968TIP3    H248396   0.783   6.416  13.035  0.0862 -0.0366 -0.7640
 8969TIP3   OH248397   1.760   6.014  15.526  0.0105 -0.1694  0.1729
 8969TIP3    H148398   1.780   6.081  15.460 -0.9050 -0.6845 -0.6325
 8969TIP3    H248399   1.684   6.049  15.573 -0.0620 -0.3429  0.1844
 8970TIP3   OH248400   4.936   2.237   2.550 -0.5050 -0.2657  0.4835
 8970TIP3    H148401   4.962   2.329   2.562 -1.0518 -0.0705  0.1888
 8970TIP3    H248402   4.858   2.228   2.606 -1.4036 -0.1153 -0.7294
 8971TIP3   OH248403   4.967   5.807  16.089 -0.1335 -0.2768 -0.3807
 8971TIP3    H148404   4.973   5.720  16.051 -0.5130 -1.3331  1.9131
 8971TIP3    H248405   5.057   5.830  16.113 -0.4697 -1.5654  2.2688
 8972TIP3   OH248406   0.469   2.465   3.852 -0.5346 -0.2582  0.0874
 8972TIP3    H148407   0.376   2.458   3.875 -0.5967  1.3542  0.3901
 8972TIP3    H248408   0.492   2.555   3.873  1.0899 -0.6216 -0.0638
 8973TIP3   OH248409   2.822   6.024  11.652  0.0887 -0.7210 -0.1266
 8973TIP3    H148410   2.788   6.034  11.562 -0.8733 -0.2190  0.2817
 8973TIP3    H248411   2.912   5.995  11.640 -0.0859 -0.8435 -1.2633
 8974TIP3   OH248412   1.033   5.758   2.374 -0.0287  0.1416 -0.5736
 8974TIP3    H148413   0.957   5.701   2.381 -0.5395  0.5060 -2.5745
 8974TIP3    H248414   1.068   5.739   2.287  0.1905  2.3505 -0.9946
 8975TIP3   OH248415   6.160   5.688  16.543  0.1851  0.3994  0.0839
 8975TIP3    H148416   6.119   5.662  16.626 -0.6646  0.4547 -0.3030
 8975TIP3    H248417   6.088   5.726  16.493  0.6498  0.1497 -0.7724
 8976TIP3   OH248418   6.453   1.995   6.424 -0.1737 -0.8347  0.6009
 8976TIP3    H148419   6.503   2.065   6.381 -0.8715 -0.1351  0.9200
 8976TIP3    H248420   6.405   1.953   6.353 -0.5471 -0.3294  0.5567
 8977TIP3   OH248421   3.668   0.416  12.247  0.2304 -0.5771 -0.2492
 8977TIP3    H148422   3.605   0.448  12.182  0.8225 -2.4834 -1.8111
 8977TIP3    H248423   3.614   0.376  12.315 -0.3351 -0.0334 -0.3754
 8978TIP3   OH248424   0.701   0.582  15.910 -0.1733 -0.0997 -0.0637
 8978TIP3    H148425   0.762   0.510  15.924 -0.1736 -0.0267  0.3445
 8978TIP3    H248426   0.733   0.627  15.832 -0.4156 -0.7881 -0.5585
 8979TIP3   OH248427   0.372   0.093   0.365 -0.5637  1.1641 -0.3359
 8979TIP3    H148428   0.351   0.149   0.290 -0.6088  0.1843 -1.0649
 8979TIP3    H248429   0.391   0.154   0.436  0.9898  2.1186 -1.5463
 8980TIP3   OH248430   6.043   0.947   1.275 -0.4880  0.3117 -0.2968
 8980TIP3    H148431   5.986   0.984   1.344 -1.1329 -0.2248 -0.5324
 8980TIP3    H248432   6.016   0.992   1.195  0.8570  1.5564 -0.0499
 8981TIP3   OH248433   5.586   4.130   5.354  1.3163  0.4234  0.3332
 8981TIP3    H148434   5.629   4.164   5.433 -0.6979  2.0588  0.7663
 8981TIP3    H248435   5.496   4.112   5.382  1.3745 -1.9259 -0.8367
 8982TIP3   OH248436   1.001   4.795   5.326 -0.2853 -0.2885 -0.0428
 8982TIP3    H148437   0.988   4.704   5.298  0.8191 -0.5102  0.1476
 8982TIP3    H248438   0.926   4.841   5.289 -2.2802 -1.7302  2.0789
 8983TIP3   OH248439   3.058   0.172  16.753 -0.2645  0.2295 -0.1312
 8983TIP3    H148440   3.145   0.159  16.791  0.3530 -0.2417 -1.6656
 8983TIP3    H248441   3.066   0.253  16.702 -1.0565  0.8067  0.6476
 8984TIP3   OH248442   0.309   2.732  12.116 -0.3237 -0.6201  0.1320
 8984TIP3    H148443   0.388   2.701  12.160 -0.4963 -1.0630  0.1303
 8984TIP3    H248444   0.249   2.657  12.118 -0.4264 -0.5596 -0.6262
 8985TIP3   OH248445   6.339   1.152   6.012 -0.2905 -0.1857  0.0697
 8985TIP3    H148446   6.278   1.085   5.982  0.1380 -0.0920 -1.0480
 8985TIP3    H248447   6.283   1.219   6.052 -1.0104  0.2705 -1.6433
 8986TIP3   OH248448   2.339   0.766   4.654 -0.1937  0.2611 -0.1505
 8986TIP3    H148449   2.400   0.757   4.582  1.0051  0.3513  0.8419
 8986TIP3    H248450   2.342   0.682   4.699 -1.0620  0.1449 -0.2933
 8987TIP3   OH248451   6.690   5.618   3.058  0.4096  0.0337 -0.6701
 8987TIP3    H148452   6.669   5.540   3.007 -2.1793  0.6213 -0.5614
 8987TIP3    H248453   6.745   5.671   2.999 -4.2284  1.6764 -3.8074
 8988TIP3   OH248454   3.380   0.190   1.306  0.2356  0.5811 -0.7392
 8988TIP3    H148455   3.407   0.236   1.386  0.8123 -0.7896 -0.1266
 8988TIP3    H248456   3.316   0.249   1.265 -1.9748  0.2221  2.0201
 8989TIP3   OH248457   4.454   3.504  17.059  0.2682  0.3489 -0.3506
 8989TIP3    H148458   4.388   3.458  17.008  1.4634 -1.5872 -0.1843
 8989TIP3    H248459   4.468   3.450  17.136  2.1193  0.6623 -0.4314
 8990TIP3   OH248460   0.464   4.955   5.038 -0.3296  0.4419 -0.4258
 8990TIP3    H148461   0.528   5.026   5.045 -1.1886  1.1084  0.9756
 8990TIP3    H248462   0.379   4.999   5.052 -0.7520 -1.1134  2.2496
 8991TIP3   OH248463   2.501   4.533  16.627  0.0072  0.3654  0.7195
 8991TIP3    H148464   2.560   4.505  16.696  1.3518  0.6082 -0.2955
 8991TIP3    H248465   2.446   4.601  16.667  2.2314  2.0619  0.9880
 8992TIP3   OH248466   5.110   6.719  17.244  0.8271 -0.2837 -0.4029
 8992TIP3    H148467   5.170   6.770  17.298  0.0882 -0.7455  0.8727
 8992TIP3    H248468   5.121   6.755  17.156  3.8181 -1.1439 -0.4286
 8993TIP3   OH248469   6.249   1.219  16.975 -0.1785 -0.1061  0.5166
 8993TIP3    H148470   6.275   1.297  16.925 -2.6762 -0.3776 -1.2835
 8993TIP3    H248471   6.303   1.149  16.938  0.1698  0.2672  0.2990
 8994TIP3   OH248472   5.587   4.745  12.614 -0.4196 -0.5810  0.2095
 8994TIP3    H148473   5.678   4.719  12.605  0.0787  1.4793 -1.0346
 8994TIP3    H248474   5.588   4.816  12.679 -0.9436  0.3100 -0.7293
 8995TIP3   OH248475   6.029   0.116  16.484 -0.1927  0.1139 -0.1246
 8995TIP3    H148476   6.064   0.080  16.566  0.5056  1.1574  0.0436
 8995TIP3    H248477   6.014   0.209  16.503 -2.9389 -0.2665 -0.2363
 8996TIP3   OH248478   3.532   1.589  14.574 -0.4038  0.1031  0.7675
 8996TIP3    H148479   3.549   1.496  14.557  2.6047  0.7000  0.2242
 8996TIP3    H248480   3.485   1.619  14.496 -0.6308 -0.7554  0.5652
 8997TIP3   OH248481   1.688   2.893   5.560  0.0431 -0.2551  0.6209
 8997TIP3    H148482   1.721   2.808   5.534  0.8723  0.0913  0.5394
 8997TIP3    H248483   1.608   2.873   5.610  0.2845 -1.0757  0.6874
 8998TIP3   OH248484   5.044   6.109   5.674  0.0899  0.5506  0.3761
 8998TIP3    H148485   4.955   6.118   5.709  0.1059 -0.3570  0.6701
 8998TIP3    H248486   5.063   6.015   5.682  0.7900  0.6263 -0.3817
 8999TIP3   OH248487   6.197   4.958  11.793 -0.2374 -0.0666  0.3833
 8999TIP3    H148488   6.102   4.966  11.787 -0.5176 -2.1327  1.3168
 8999TIP3    H248489   6.217   4.980  11.884  0.0228 -0.6542  0.4742
 9000TIP3   OH248490   3.079   3.259  11.913  0.1875  0.0942  0.6097
 9000TIP3    H148491   3.149   3.239  11.975 -0.9624 -0.7658  1.6464
 9000TIP3    H248492   3.046   3.174  11.885 -0.1222  0.4877 -0.2689
 9001TIP3   OH248493   1.277   2.550  16.460  0.5042  0.0558 -0.0009
 9001TIP3    H148494   1.255   2.516  16.547 -0.0475 -0.3464 -0.2960
 9001TIP3    H248495   1.360   2.508  16.438 -1.2100 -2.8586 -1.2900
 9002TIP3   OH248496   0.401   4.163  13.287 -0.0996  0.1830  0.0439
 9002TIP3    H148497   0.317   4.156  13.331 -1.3993  1.4840 -2.1322
 9002TIP3    H248498   0.430   4.253  13.304  0.7098 -0.1628  0.5293
 9003TIP3   OH248499   0.101   6.212  13.989 -0.5176  0.1506  0.0551
 9003TIP3    H148500   0.100   6.296  13.942  1.1065 -0.4116 -1.0346
 9003TIP3    H248501   0.018   6.210  14.037 -1.2357  1.7239 -1.0847
 9004TIP3   OH248502   6.316   0.088  11.894 -0.2549 -0.4718 -0.1631
 9004TIP3    H148503   6.380   0.151  11.860 -0.4765  0.0993  0.4823
 9004TIP3    H248504   6.354   0.055  11.975 -0.5470 -0.5075 -0.0379
 9005TIP3   OH248505   1.162   5.411   2.226  0.3743  0.1565  0.7099
 9005TIP3    H148506   1.159   5.501   2.195  3.6401  0.3103  0.7596
 9005TIP3    H248507   1.153   5.358   2.147  0.3111  0.5027  0.4849
 9006TIP3   OH248508   4.544   5.904  16.045 -0.7294  0.5676 -0.6065
 9006TIP3    H148509   4.549   5.810  16.026 -1.5585  0.7163 -1.5862
 9006TIP3    H248510   4.616   5.920  16.106  0.1176 -0.4894 -1.3143
 9007TIP3   OH248511   3.959   2.680   2.861 -0.3896  0.3315 -0.0948
 9007TIP3    H148512   3.865   2.662   2.853 -0.5471  1.1933 -0.2996
 9007TIP3    H248513   3.966   2.739   2.936  0.2513 -1.5636  1.3756
 9008TIP3   OH248514   5.763   4.646  16.810 -0.4205  0.4881 -0.0976
 9008TIP3    H148515   5.816   4.567  16.818  0.5769  1.0829 -0.6992
 9008TIP3    H248516   5.788   4.684  16.726 -2.8089  0.0757 -1.0377
 9009TIP3   OH248517   1.049   3.377   3.574  0.1756  0.1785 -0.6657
 9009TIP3    H148518   0.999   3.321   3.515 -1.7561  1.3744 -0.2204
 9009TIP3    H248519   1.084   3.446   3.518  0.9489 -0.4109 -0.9081
 9010TIP3   OH248520   1.110   4.334  13.633 -0.6175 -0.4513 -0.1374
 9010TIP3    H148521   1.181   4.366  13.578  0.3977 -2.2980  0.0771
 9010TIP3    H248522   1.043   4.306  13.571  1.2230 -4.1557 -0.5716
 9011TIP3   OH248523   4.175   3.869   0.202  0.8456  0.2991 -0.1030
 9011TIP3    H148524   4.267   3.841   0.199  0.0419 -2.3164 -2.3143
 9011TIP3    H248525   4.143   3.835   0.286  2.0309  1.8348  1.0081
 9012TIP3   OH248526   5.100   0.819  17.279  0.0441  0.1565 -0.0455
 9012TIP3    H148527   5.043   0.756  17.234 -1.9817  2.1407 -0.3666
 9012TIP3    H248528   5.055   0.836  17.362  0.3259  1.4771 -0.1540
 9013TIP3   OH248529   0.473   3.150  12.603 -0.3287 -0.0727  0.0845
 9013TIP3    H148530   0.509   3.062  12.595  1.7064  0.5559  1.7942
 9013TIP3    H248531   0.526   3.204  12.544 -1.9223 -0.0910 -1.3676
 9014TIP3   OH248532   6.808   0.103   0.716  0.1916  0.0655  0.0545
 9014TIP3    H148533   6.757   0.159   0.656  0.6063 -0.1308 -0.4865
 9014TIP3    H248534   6.832   0.162   0.788  1.0028  0.7183 -0.7270
 9015TIP3   OH248535   4.499   0.280  14.653  0.1762  0.3059 -0.0700
 9015TIP3    H148536   4.513   0.315  14.565 -0.0029  0.1828 -0.1477
 9015TIP3    H248537   4.420   0.228  14.646  0.2725  0.1311  0.1162
 9016TIP3   OH248538   6.806   6.258   0.818  0.3909  0.2604  0.1513
 9016TIP3    H148539   6.850   6.192   0.873  0.9118  0.8185  0.4142
 9016TIP3    H248540   6.783   6.211   0.738 -0.4911 -0.5937  0.8923
 9017TIP3   OH248541   2.725   0.339   0.433 -0.2256 -0.4985  0.2684
 9017TIP3    H148542   2.686   0.334   0.520  0.3169  0.3213  0.5628
 9017TIP3    H248543   2.711   0.429   0.405  3.3745  0.4717  1.2944
 9018TIP3   OH248544   3.505   0.063  12.280  0.0245  0.6216 -0.0264
 9018TIP3    H148545   3.487   0.121  12.207  0.6844  0.8636  0.0012
 9018TIP3    H248546   3.423   0.062  12.331 -0.9929 -0.8128 -1.6149
 9019TIP3   OH248547   5.811   1.573  14.692 -0.0861 -0.3976 -0.7013
 9019TIP3    H148548   5.806   1.656  14.738  0.6186 -1.0368  0.5338
 9019TIP3    H248549   5.804   1.597  14.599 -0.9624  0.9281 -0.3056
 9020TIP3   OH248550   2.863   4.035  13.001 -0.8818 -0.4936 -0.0082
 9020TIP3    H148551   2.951   4.073  13.005 -0.5167 -1.3672  0.3048
 9020TIP3    H248552   2.868   3.966  12.936 -1.0237 -1.3319  0.8536
 9021TIP3   OH248553   1.226   6.321   0.223  0.4759 -0.0428  0.2201
 9021TIP3    H148554   1.177   6.403   0.226  1.0663  0.3250 -0.1042
 9021TIP3    H248555   1.299   6.335   0.284 -0.3857 -0.9667  1.5085
 9022TIP3   OH248556   3.284   2.222  15.978  0.2813  0.1074  1.0022
 9022TIP3    H148557   3.301   2.137  16.018  0.6963  0.3679  1.3734
 9022TIP3    H248558   3.207   2.207  15.923  0.1753 -0.4338  1.2975
 9023TIP3   OH248559   4.194   0.376  11.200 -0.6220 -0.4480  0.5847
 9023TIP3    H148560   4.123   0.415  11.149  0.5929  2.2069  0.8392
 9023TIP3    H248561   4.177   0.405  11.290  1.4570  1.3040  0.4469
 9024TIP3   OH248562   5.895   1.598   0.977  0.3945  0.2855 -0.2150
 9024TIP3    H148563   5.800   1.593   0.972  0.4888 -1.4572 -0.6798
 9024TIP3    H248564   5.924   1.595   0.886  0.8702  1.4435 -0.1038
 9025TIP3   OH248565   6.353   6.677  10.942  0.3960 -0.2356 -0.2273
 9025TIP3    H148566   6.430   6.631  10.975 -0.0361 -0.0787  1.0357
 9025TIP3    H248567   6.361   6.766  10.977  0.1514  0.0597 -0.9144
 9026TIP3   OH248568   2.842   3.352  16.289 -0.3876  0.5322  0.0636
 9026TIP3    H148569   2.919   3.297  16.303 -0.4882  0.6005  0.9428
 9026TIP3    H248570   2.877   3.432  16.250  0.2791  1.3936  2.3365
 9027TIP3   OH248571   3.246   5.634   0.961 -0.4255  0.4876 -0.0326
 9027TIP3    H148572   3.176   5.700   0.960 -1.7237 -0.7045  3.2637
 9027TIP3    H248573   3.207   5.558   0.918 -0.0790  0.8071 -0.9139
 9028TIP3   OH248574   0.712   3.182  17.194 -0.1148  0.4927 -0.3309
 9028TIP3    H148575   0.754   3.256  17.152  0.1487  0.3442 -0.3277
 9028TIP3    H248576   0.650   3.149  17.129 -1.0284  1.3923  0.0664
 9029TIP3   OH248577   0.550   0.688   1.291 -0.5002  0.0521  0.5981
 9029TIP3    H148578   0.455   0.691   1.307 -0.6594 -0.7476 -0.1819
 9029TIP3    H248579   0.580   0.613   1.342 -0.5222 -0.6145 -0.3711
 9030TIP3   OH248580   2.380   0.515   5.818  0.0803 -0.0149 -0.5249
 9030TIP3    H148581   2.325   0.460   5.873 -0.2903 -1.3659 -2.2085
 9030TIP3    H248582   2.431   0.454   5.765  1.7856  1.2395 -0.3931
 9031TIP3   OH248583   5.556   0.676  15.127 -0.3232  0.4195 -0.3215
 9031TIP3    H148584   5.583   0.639  15.212 -0.2728  1.7269  0.2353
 9031TIP3    H248585   5.491   0.613  15.094  0.3692 -0.6070  0.2263
 9032TIP3   OH248586   5.211   4.381   4.432 -0.3411 -0.3708 -0.1676
 9032TIP3    H148587   5.304   4.361   4.436 -0.1747  0.1742 -1.1985
 9032TIP3    H248588   5.174   4.337   4.508  1.1228  1.4250  1.6526
 9033TIP3   OH248589   4.044   5.042  14.512  0.5643  0.0023  0.1658
 9033TIP3    H148590   4.139   5.046  14.508  0.4788  0.8253 -1.5531
 9033TIP3    H248591   4.020   4.982  14.442 -0.2290  0.6187 -0.0977
 9034TIP3   OH248592   2.324   1.456  15.374 -0.4049 -0.1427  0.8787
 9034TIP3    H148593   2.316   1.395  15.300  2.5997  0.2823  0.1441
 9034TIP3    H248594   2.314   1.401  15.452  2.1230 -1.5944  0.2229
 9035TIP3   OH248595   1.319   5.585   3.357 -0.1226 -0.5531  0.5786
 9035TIP3    H148596   1.254   5.544   3.414  0.5048 -1.6032  0.5632
 9035TIP3    H248597   1.352   5.513   3.303  0.0342  0.2352 -0.3985
 9036TIP3   OH248598   5.148   6.067   4.281 -0.4559  0.1264 -0.4520
 9036TIP3    H148599   5.103   6.114   4.211 -0.5394 -0.1542 -0.5869
 9036TIP3    H248600   5.157   6.132   4.351  0.9351  0.8311 -1.2753
 9037TIP3   OH248601   0.459   4.103   4.997  0.5637 -0.1985 -0.3782
 9037TIP3    H148602   0.421   4.057   5.072  1.9091  0.6489  0.8793
 9037TIP3    H248603   0.519   4.040   4.958  0.7343 -0.2730 -0.0064
 9038TIP3   OH248604   1.121   5.887  11.986 -0.2566  0.5788 -0.9503
 9038TIP3    H148605   1.093   5.858  11.900  2.6065 -1.3657 -1.2837
 9038TIP3    H248606   1.208   5.923  11.973  0.5022 -0.3618  1.2148
 9039TIP3   OH248607   0.184   0.502   3.484  0.0371  0.3050  0.3178
 9039TIP3    H148608   0.105   0.491   3.539  0.6890  1.8594  1.6168
 9039TIP3    H248609   0.246   0.438   3.520  0.2668  0.9219  1.0332
 9040TIP3   OH248610   0.677   6.559  10.802 -0.4400 -0.2121 -0.1398
 9040TIP3    H148611   0.616   6.629  10.781 -1.7618 -0.8063  1.6360
 9040TIP3    H248612   0.750   6.603  10.846 -0.8563  0.1428  0.1900
 9041TIP3   OH248613   2.331   1.676   0.632  0.3447 -0.4754  0.4858
 9041TIP3    H148614   2.300   1.655   0.544 -1.2095 -1.8088  1.3286
 9041TIP3    H248615   2.256   1.717   0.675  0.9921 -0.1249  1.3031
 9042TIP3   OH248616   2.777   5.440   1.408  0.2771 -0.3750  0.0965
 9042TIP3    H148617   2.812   5.392   1.483 -1.5432 -0.4611  0.9299
 9042TIP3    H248618   2.749   5.372   1.346  1.8256 -0.3039 -0.6965
 9043TIP3   OH248619   3.494   4.979  15.028 -0.6807 -0.3427 -0.1355
 9043TIP3    H148620   3.507   4.955  14.936  2.2543  1.3585 -0.2100
 9043TIP3    H248621   3.424   5.044  15.026 -0.5619 -0.2346 -1.1897
 9044TIP3   OH248622   4.780   2.031   3.963 -0.5481  0.2599 -0.3399
 9044TIP3    H148623   4.840   2.024   3.889 -1.1231  0.2819 -0.8149
 9044TIP3    H248624   4.747   1.943   3.976 -1.6582  0.5468 -1.1405
 9045TIP3   OH248625   1.997   4.119   4.001  0.3035 -0.5305 -0.0902
 9045TIP3    H148626   1.907   4.142   3.979 -0.1546 -2.2792 -0.1226
 9045TIP3    H248627   2.031   4.077   3.921 -0.3717 -4.0905  1.3803
 9046TIP3   OH248628   1.026   5.083   5.053 -0.0887  0.7598  0.1151
 9046TIP3    H148629   0.953   5.113   4.998  0.2061 -0.0240 -0.7212
 9046TIP3    H248630   1.088   5.046   4.991  0.7992  0.9621  0.8766
 9047TIP3   OH248631   6.393   1.551   0.955  0.8409 -0.4033 -0.3275
 9047TIP3    H148632   6.359   1.631   0.914 -1.5828 -0.9302  0.5657
 9047TIP3    H248633   6.471   1.580   1.002 -0.2786  1.5974  0.4163
 9048TIP3   OH248634   2.817   1.473  16.496  0.7251 -0.3550  0.4970
 9048TIP3    H148635   2.724   1.454  16.482  0.5112 -0.0208  1.4556
 9048TIP3    H248636   2.818   1.561  16.533  1.4387 -0.2977  0.3474
 9049TIP3   OH248637   5.659   3.894   1.390  0.2379 -0.3255 -0.5135
 9049TIP3    H148638   5.744   3.933   1.374  0.0338 -0.1550 -1.1957
 9049TIP3    H248639   5.606   3.918   1.314 -0.9035  0.9269  0.6351
 9050TIP3   OH248640   2.628   3.693   1.298  0.4933 -0.2520  0.0436
 9050TIP3    H148641   2.548   3.652   1.330  1.0143 -0.2179  1.4190
 9050TIP3    H248642   2.690   3.621   1.288  1.3698  0.1475  2.3423
 9051TIP3   OH248643   1.225   1.330   2.647  0.0875 -0.8554  0.2598
 9051TIP3    H148644   1.265   1.244   2.633 -0.1178 -0.8456 -0.3634
 9051TIP3    H248645   1.235   1.346   2.741  0.9692 -1.1485  0.2207
 9052TIP3   OH248646   1.960   3.282   6.005  0.3472 -0.5039 -0.6383
 9052TIP3    H148647   1.922   3.309   5.922  0.2434 -0.9857 -0.7504
 9052TIP3    H248648   2.054   3.293   5.993  0.2348  0.9841 -0.2548
 9053TIP3   OH248649   4.866   0.966   2.002  0.3708  0.0684  0.1199
 9053TIP3    H148650   4.907   0.906   1.939  2.2392  1.6294 -0.1782
 9053TIP3    H248651   4.773   0.967   1.977  0.5279 -1.7785 -0.6009
 9054TIP3   OH248652   3.967   2.709   3.875 -0.0485  0.4356  0.0087
 9054TIP3    H148653   3.931   2.639   3.821 -1.1869  1.7696 -0.9881
 9054TIP3    H248654   3.950   2.680   3.965  1.2851 -1.4834 -0.3421
 9055TIP3   OH248655   4.816   0.480  11.369 -0.1349 -0.3340  0.0782
 9055TIP3    H148656   4.885   0.455  11.431 -0.6479 -2.5933 -0.2247
 9055TIP3    H248657   4.825   0.418  11.297 -1.6205  0.2296 -0.6063
 9056TIP3   OH248658   1.162   5.516   3.775 -0.8693  0.2948 -0.9364
 9056TIP3    H148659   1.123   5.438   3.816  0.1319  0.4357  0.3099
 9056TIP3    H248660   1.113   5.589   3.812 -0.9630  0.3402 -1.1477
 9057TIP3   OH248661   4.595   3.322  16.598  0.1744 -0.5243 -0.4425
 9057TIP3    H148662   4.677   3.297  16.556  0.1366 -0.1256 -0.7626
 9057TIP3    H248663   4.544   3.242  16.601  0.4327 -0.6949 -0.5813
 9058TIP3   OH248664   4.701   4.680   2.367  0.1304  0.5586  0.8862
 9058TIP3    H148665   4.644   4.640   2.433 -2.1239 -0.1770 -1.4502
 9058TIP3    H248666   4.724   4.609   2.307  0.7461  1.5699 -0.1064
 9059TIP3   OH248667   0.889   1.717  13.924  0.2511 -0.0130 -0.0238
 9059TIP3    H148668   0.895   1.655  13.852  0.5058  0.6458 -0.5730
 9059TIP3    H248669   0.904   1.664  14.003  0.2608 -0.6757 -0.4715
 9060TIP3   OH248670   0.885   5.871   1.373  0.5504  0.9858  0.5191
 9060TIP3    H148671   0.908   5.781   1.397 -1.9887  0.8597  2.6575
 9060TIP3    H248672   0.870   5.866   1.278  4.5047  0.1352 -0.1927
 9061TIP3   OH248673   1.332   4.907   5.752 -0.8495 -0.1978 -0.4124
 9061TIP3    H148674   1.295   4.882   5.667 -0.0584 -1.9563 -0.2655
 9061TIP3    H248675   1.411   4.956   5.730 -0.3279 -1.1602 -0.6907
 9062TIP3   OH248676   5.399   1.834  16.710  0.2970 -0.2981  0.2031
 9062TIP3    H148677   5.422   1.869  16.795  2.2227 -1.0975  0.0377
 9062TIP3    H248678   5.481   1.835  16.660 -0.9542  0.9168 -1.9128
 9063TIP3   OH248679   4.794   2.047   1.326 -0.8920 -0.4047 -0.1962
 9063TIP3    H148680   4.754   2.101   1.258  1.1202 -2.5889 -3.2017
 9063TIP3    H248681   4.849   2.107   1.376 -2.4730  1.2418 -0.4039
 9064TIP3   OH248682   0.017   0.236   5.522 -0.4579 -0.0099  0.3779
 9064TIP3    H148683   0.036   0.285   5.442 -0.8590  0.3356  0.4936
 9064TIP3    H248684   0.033   0.299   5.592 -0.0844 -0.3205  0.5710
 9065TIP3   OH248685   5.496   1.395  11.698 -0.1138  0.3303  0.7584
 9065TIP3    H148686   5.553   1.471  11.708  2.4023 -1.4578  0.4557
 9065TIP3    H248687   5.520   1.358  11.614 -1.7500 -0.4659  0.6270
 9066TIP3   OH248688   0.596   0.728  16.725 -0.0815  0.2031 -0.4014
 9066TIP3    H148689   0.623   0.805  16.674  1.2085  0.4818  0.6682
 9066TIP3    H248690   0.576   0.763  16.812  1.2816 -0.7649  0.3279
 9067TIP3   OH248691   5.577   2.997   5.019 -0.3349 -0.3251 -0.2586
 9067TIP3    H148692   5.651   2.949   5.056 -0.9500 -0.0613  1.3193
 9067TIP3    H248693   5.602   3.089   5.028 -1.2213 -0.2084  1.0481
 9068TIP3   OH248694   0.575   5.605  16.975  0.2125 -0.2467  0.3917
 9068TIP3    H148695   0.507   5.655  16.929  0.7401  0.5477  0.4809
 9068TIP3    H248696   0.651   5.663  16.976  1.9481 -2.3394 -2.5181
 9069TIP3   OH248697   3.010   0.886  10.645  0.0203 -0.1620  0.2364
 9069TIP3    H148698   2.967   0.946  10.584  1.7440  0.2411 -0.5917
 9069TIP3    H248699   3.012   0.932  10.728  0.4121  0.5111 -0.1475
 9070TIP3   OH248700   3.705   2.852   2.037 -0.1678  0.6174 -0.2557
 9070TIP3    H148701   3.654   2.781   2.078  1.3441  0.1884  0.9142
 9070TIP3    H248702   3.786   2.856   2.088  0.6367  1.8359 -1.6049
 9071TIP3   OH248703   5.761   6.512  10.682  0.2176 -0.4974  0.1019
 9071TIP3    H148704   5.767   6.608  10.676 -0.1577 -0.4855 -0.1256
 9071TIP3    H248705   5.713   6.487  10.603  2.0704 -1.0582 -0.8683
 9072TIP3   OH248706   1.814   1.929  15.892 -0.0156  0.3552  0.3046
 9072TIP3    H148707   1.805   2.024  15.879  1.3543  0.7654  2.1558
 9072TIP3    H248708   1.837   1.920  15.984  0.0199 -1.7910  0.1041
 9073TIP3   OH248709   5.702   4.604   0.001  0.9295  0.3135  0.4806
 9073TIP3    H148710   5.630   4.545   0.023 -0.1587  1.3766 -0.1868
 9073TIP3    H248711   5.748   4.560  -0.071 -0.4498  0.7137 -0.6652
 9074TIP3   OH248712   1.640   0.140  13.869 -0.2834 -0.0704  0.0050
 9074TIP3    H148713   1.547   0.158  13.883  0.1573  2.3939  0.0861
 9074TIP3    H248714   1.671   0.216  13.820  1.6605 -0.9535 -0.1580
 9075TIP3   OH248715   1.666   6.542   4.986 -0.0377 -0.0757  0.4376
 9075TIP3    H148716   1.736   6.556   5.049 -0.4913  0.8503  0.7421
 9075TIP3    H248717   1.649   6.628   4.948  0.6233 -0.7217 -1.3806
 9076TIP3   OH248718   3.484   4.540  11.863  0.4141  0.3125 -0.5176
 9076TIP3    H148719   3.545   4.587  11.807  0.2738  1.1093 -0.0044
 9076TIP3    H248720   3.461   4.602  11.932  1.6434 -1.0939  1.2032
 9077TIP3   OH248721   4.363   0.779   0.107  0.3467  1.0498 -0.0282
 9077TIP3    H148722   4.317   0.827   0.038 -1.3633  0.8097  0.9064
 9077TIP3    H248723   4.394   0.699   0.064 -1.3608  0.5484 -0.3583
 9078TIP3   OH248724   3.044   3.508   2.842 -0.1746 -0.2400 -0.0033
 9078TIP3    H148725   3.127   3.469   2.870 -1.0349 -1.0069  1.5635
 9078TIP3    H248726   3.030   3.475   2.753  1.2800  0.0316 -0.3312
 9079TIP3   OH248727   3.226   1.239   4.030  0.2369  0.5231  0.2488
 9079TIP3    H148728   3.293   1.212   4.092  0.9224  0.0437 -0.6922
 9079TIP3    H248729   3.144   1.231   4.078  0.7950  0.5705  1.2265
 9080TIP3   OH248730   4.824   3.018  16.673 -0.4430 -0.0784 -0.3289
 9080TIP3    H148731   4.826   3.004  16.768 -0.2571  1.6864 -0.0551
 9080TIP3    H248732   4.901   3.073  16.656  0.0830 -1.2205 -1.6449
 9081TIP3   OH248733   0.782   4.838  11.666  0.2732 -0.0286 -0.3640
 9081TIP3    H148734   0.772   4.778  11.593  0.4445  1.6384 -1.8057
 9081TIP3    H248735   0.876   4.847  11.678  0.2503  0.0270 -0.2138
 9082TIP3   OH248736   5.417   5.547  12.457  0.3190  0.2072 -0.5839
 9082TIP3    H148737   5.393   5.638  12.475 -0.6450 -0.4059  1.2763
 9082TIP3    H248738   5.481   5.525  12.525 -1.3328 -1.2776  0.5149
 9083TIP3   OH248739   4.017   0.279  16.493  0.4926  0.1070  0.2391
 9083TIP3    H148740   4.103   0.239  16.507  0.7353  0.6348  0.2769
 9083TIP3    H248741   4.006   0.281  16.398  0.4172 -0.1804  0.2415
 9084TIP3   OH248742   2.842   1.071  13.517  0.1787 -0.4792  0.0573
 9084TIP3    H148743   2.889   0.993  13.485  0.9513 -0.1379  0.3394
 9084TIP3    H248744   2.907   1.118  13.569 -0.1937  0.5231 -0.3791
 9085TIP3   OH248745   0.570   3.117  16.983 -0.2748  0.0264  0.0279
 9085TIP3    H148746   0.547   3.182  16.916 -2.0635  0.9575  1.5152
 9085TIP3    H248747   0.550   3.033  16.942 -1.6678  0.6037 -0.5212
 9086TIP3   OH248748   4.560   0.406  11.958  0.0545 -0.0058  0.3910
 9086TIP3    H148749   4.594   0.325  11.920  0.9940  1.0468 -1.0663
 9086TIP3    H248750   4.465   0.401  11.944 -0.0268 -1.3589  1.3398
 9087TIP3   OH248751   3.302   2.872  13.264  0.0557 -0.0813  0.7529
 9087TIP3    H148752   3.307   2.961  13.300 -1.9492  0.8700 -1.1985
 9087TIP3    H248753   3.353   2.876  13.183  2.2806 -1.4891  2.0432
 9088TIP3   OH248754   0.301   0.345  11.328 -0.1034 -0.1074 -0.3534
 9088TIP3    H148755   0.302   0.287  11.252 -0.0817 -1.2833  0.5242
 9088TIP3    H248756   0.277   0.430  11.293 -3.7493 -1.3671 -1.1881
 9089TIP3   OH248757   3.020   3.976  11.770  0.2907 -0.0739  0.4077
 9089TIP3    H148758   3.069   3.939  11.843  1.6164 -1.5795 -1.1933
 9089TIP3    H248759   3.071   3.952  11.693 -2.5535 -1.0098 -1.2529
 9090TIP3   OH248760   5.431   3.207   6.395 -0.5069  0.0812 -0.3169
 9090TIP3    H148761   5.437   3.288   6.444  1.5358 -0.2855  0.0752
 9090TIP3    H248762   5.377   3.150   6.449 -0.8425  0.7207  0.0297
 9091TIP3   OH248763   2.026   5.860  12.471  0.1374 -0.2515  0.0675
 9091TIP3    H148764   2.102   5.910  12.440 -0.5528  2.0054  1.8764
 9091TIP3    H248765   1.973   5.924  12.518 -2.1869 -2.1204  0.0737
 9092TIP3   OH248766   4.725   5.716   4.761 -0.5478 -0.5954 -0.0579
 9092TIP3    H148767   4.701   5.765   4.683 -0.3110 -0.9209 -0.3371
 9092TIP3    H248768   4.661   5.743   4.827 -0.3625  0.1482 -0.1818
 9093TIP3   OH248769   6.355   2.033   3.600  0.0556 -0.3501  0.5521
 9093TIP3    H148770   6.261   2.011   3.603  0.7131 -3.3840  1.0871
 9093TIP3    H248771   6.383   2.005   3.513  0.0182  2.6711 -0.4612
 9094TIP3   OH248772   5.083   2.307   1.794  0.1232  0.1459 -0.5760
 9094TIP3    H148773   5.028   2.350   1.859  1.2977  1.4051 -0.3794
 9094TIP3    H248774   5.043   2.221   1.781 -0.8675  0.3771  0.8403
 9095TIP3   OH248775   3.963   3.234   1.756 -0.3778  0.0651 -0.2405
 9095TIP3    H148776   3.967   3.146   1.718 -1.3023  0.0245 -0.2649
 9095TIP3    H248777   4.053   3.253   1.783 -0.3314 -1.2661  0.6150
 9096TIP3   OH248778   5.071   3.617   3.283 -0.1685 -0.1902  0.0136
 9096TIP3    H148779   5.067   3.624   3.378  1.4192  0.1265  0.0661
 9096TIP3    H248780   5.090   3.706   3.253 -1.1055 -0.1995 -0.6400
 9097TIP3   OH248781   3.105   1.304  16.166 -0.8011 -0.3780 -0.0683
 9097TIP3    H148782   3.062   1.348  16.240 -0.4996 -0.5378  0.2004
 9097TIP3    H248783   3.197   1.327  16.174 -0.6576 -0.9660  0.0077
 9098TIP3   OH248784   2.923   3.491  14.989 -0.6710 -0.7196  0.5149
 9098TIP3    H148785   2.948   3.507  15.080 -0.1567  1.4851  0.0013
 9098TIP3    H248786   2.849   3.550  14.973 -0.2147 -0.4724 -0.7379
 9099TIP3   OH248787   0.254   1.588  16.157 -0.4824 -0.3711 -0.8704
 9099TIP3    H148788   0.179   1.550  16.110 -1.7444  2.0559 -0.9016
 9099TIP3    H248789   0.234   1.682  16.163  2.1230  0.1763 -0.0319
 9100TIP3   OH248790   6.733   2.561  14.828 -0.5635 -0.1746  0.1884
 9100TIP3    H148791   6.825   2.580  14.810 -0.7414  1.2536  0.7247
 9100TIP3    H248792   6.695   2.544  14.742 -0.3858  1.8988 -0.3158
 9101TIP3   OH248793   0.208   5.497  15.808  0.5688 -0.3021  0.0288
 9101TIP3    H148794   0.291   5.480  15.852  0.5685  0.3416  0.2876
 9101TIP3    H248795   0.180   5.412  15.774  1.6566 -0.3981 -0.6331
 9102TIP3   OH248796   2.712   6.129  16.424  0.4701 -0.1515 -0.1294
 9102TIP3    H148797   2.793   6.079  16.414  1.1735  0.9122  0.1809
 9102TIP3    H248798   2.666   6.086  16.496  1.2776 -0.0892  0.4315
 9103TIP3   OH248799   6.110   3.533  12.372  0.4562  0.4158  0.2844
 9103TIP3    H148800   6.187   3.589  12.358 -1.2457  2.6185 -0.4998
 9103TIP3    H248801   6.093   3.495  12.286 -0.5496  1.5452 -0.0210
 9104TIP3   OH248802   2.639   6.669  12.928 -0.5677 -0.1655  0.4041
 9104TIP3    H148803   2.568   6.720  12.967 -0.9596  0.0461 -0.5712
 9104TIP3    H248804   2.613   6.578  12.941 -1.4005 -0.0818 -0.6354
 9105TIP3   OH248805   2.482   3.094   3.965  0.4738  0.2369 -0.3291
 9105TIP3    H148806   2.551   3.030   3.950  0.4779  0.3132 -0.6440
 9105TIP3    H248807   2.405   3.042   3.988  1.4819  0.2732  3.5090
 9106TIP3   OH248808   5.368   1.721   3.278  0.3957 -0.0417  0.2787
 9106TIP3    H148809   5.423   1.798   3.272  0.0644  0.4058  2.5236
 9106TIP3    H248810   5.416   1.653   3.229  1.0469  1.3442 -1.0459
 9107TIP3   OH248811   4.353   1.387  16.883 -0.2146  0.3190  0.1136
 9107TIP3    H148812   4.384   1.435  16.959 -1.7920  1.3084  0.1383
 9107TIP3    H248813   4.433   1.350  16.844  0.7851  1.3153  1.1988
 9108TIP3   OH248814   6.455   6.097   2.607  0.0556  0.2293 -0.7168
 9108TIP3    H148815   6.483   6.186   2.630  0.6613 -0.0583 -0.3361
 9108TIP3    H248816   6.463   6.094   2.512 -1.9411  1.2478 -0.9400
 9109TIP3   OH248817   3.077   3.106   3.539  0.1165  0.2815  0.2566
 9109TIP3    H148818   3.064   3.062   3.456  1.2606  1.1206 -0.3911
 9109TIP3    H248819   3.017   3.063   3.600 -1.3814  0.2564 -1.2134
 9110TIP3   OH248820   6.283   4.793   3.626  0.1803 -0.9960  0.2649
 9110TIP3    H148821   6.275   4.721   3.564  0.0807 -1.5203  0.8756
 9110TIP3    H248822   6.295   4.871   3.572  0.3918 -1.4848 -0.4002
 9111TIP3   OH248823   1.519   1.506   4.010 -0.6329 -0.1181  0.1295
 9111TIP3    H148824   1.429   1.538   4.015 -0.4838  0.1713  0.9508
 9111TIP3    H248825   1.560   1.561   3.942 -0.6243  0.8534  0.9162
 9112TIP3   OH248826   4.782   1.345   2.467 -0.3686 -0.5245  0.2261
 9112TIP3    H148827   4.871   1.380   2.471 -0.7650  0.4286  0.9415
 9112TIP3    H248828   4.790   1.257   2.504  0.2829 -0.4545  0.2639
 9113TIP3   OH248829   4.336   4.384   2.166  0.0854  0.2875 -0.4403
 9113TIP3    H148830   4.286   4.369   2.246  0.8178  0.7323  0.1071
 9113TIP3    H248831   4.293   4.329   2.100  0.0624 -0.8213  0.4828
 9114TIP3   OH248832   4.777   6.089  13.406  0.1293  0.1147  0.7499
 9114TIP3    H148833   4.829   6.164  13.377  1.4328 -2.0266 -2.7893
 9114TIP3    H248834   4.691   6.102  13.366  0.1373  0.0999  0.7289
 9115TIP3   OH248835   4.054   5.675  11.295  0.3256 -0.1218 -0.6803
 9115TIP3    H148836   4.057   5.594  11.243  1.4925 -1.2157  1.0627
 9115TIP3    H248837   4.141   5.713  11.285 -0.4347  1.2990 -2.0487
 9116TIP3   OH248838   3.964   4.166  11.678 -0.3580  0.6662 -0.0739
 9116TIP3    H148839   3.936   4.167  11.769 -0.1136 -1.2013  0.0543
 9116TIP3    H248840   3.899   4.218  11.631 -1.5074  0.1018  0.8876
 9117TIP3   OH248841   4.765   1.224   0.927 -0.7196  0.0171  0.3827
 9117TIP3    H148842   4.713   1.280   0.869  1.3398  0.1512 -1.3683
 9117TIP3    H248843   4.700   1.177   0.980 -2.5631  1.3043 -0.7063
 9118TIP3   OH248844   1.707   0.140  16.245  0.0861  0.0968  0.1048
 9118TIP3    H148845   1.729   0.185  16.327  0.7399  1.2445 -0.6728
 9118TIP3    H248846   1.685   0.051  16.271  2.6520 -0.2258  1.2968
 9119TIP3   OH248847   4.176   3.061  13.168  0.3792 -0.0427 -0.1168
 9119TIP3    H148848   4.105   3.000  13.150  1.1459 -1.3773  1.2484
 9119TIP3    H248849   4.170   3.078  13.262  1.8020 -0.0998 -0.0047
 9120TIP3   OH248850   5.052   2.286  13.479 -0.1816  0.3751  0.2611
 9120TIP3    H148851   4.971   2.235  13.479  0.6857 -1.0360  0.6443
 9120TIP3    H248852   5.118   2.225  13.513  0.9121  1.7043  0.5339
 9121TIP3   OH248853   3.187   3.455  16.007  0.3874  0.6103 -0.3102
 9121TIP3    H148854   3.108   3.501  16.037 -0.3612 -0.2085 -0.9833
 9121TIP3    H248855   3.256   3.521  16.009  0.2058  0.7946  2.5055
 9122TIP3   OH248856   4.677   2.411   5.470  0.5570 -0.6248  0.3502
 9122TIP3    H148857   4.766   2.438   5.494  0.4155 -0.1983  0.3944
 9122TIP3    H248858   4.689   2.357   5.392  0.6321  1.5080 -1.1494
 9123TIP3   OH248859   0.949   1.622   6.199 -0.1158 -0.0185 -0.0846
 9123TIP3    H148860   0.889   1.691   6.172  0.4796  0.1046 -1.1188
 9123TIP3    H248861   0.948   1.625   6.295 -1.4047  0.2779 -0.1050
 9124TIP3   OH248862   3.393   3.098   0.659 -0.0874  0.1658 -0.3175
 9124TIP3    H148863   3.414   3.064   0.746  0.4602 -0.0146 -0.5149
 9124TIP3    H248864   3.302   3.072   0.644  0.0178 -0.3684 -0.0599
 9125TIP3   OH248865   0.941   6.497  15.418 -0.1117  0.0149  0.6016
 9125TIP3    H148866   0.993   6.467  15.344  0.0875  0.0075  0.7452
 9125TIP3    H248867   0.892   6.573  15.385 -0.5533 -0.4156  0.2614
 9126TIP3   OH248868   6.552   3.794  16.791  0.1081  0.3781 -0.7576
 9126TIP3    H148869   6.555   3.710  16.837  0.2818  1.4836  1.3249
 9126TIP3    H248870   6.640   3.830  16.803 -0.3942  1.4925 -0.3620
 9127TIP3   OH248871   5.959   0.909   5.760 -0.1480  0.1442  0.2946
 9127TIP3    H148872   5.982   0.821   5.730 -0.8235 -0.0261  0.2568
 9127TIP3    H248873   6.037   0.940   5.806  0.8699  0.3614 -1.5284
 9128TIP3   OH248874   0.360   5.976  14.382  0.2904  0.4331  0.4646
 9128TIP3    H148875   0.298   6.021  14.440  0.1884  0.0126  0.6889
 9128TIP3    H248876   0.322   5.889  14.371 -0.0078  0.7105 -0.7348
 9129TIP3   OH248877   4.794   4.144   4.225 -0.0263 -0.0077 -0.0949
 9129TIP3    H148878   4.782   4.056   4.190  1.0002  0.4929 -1.7410
 9129TIP3    H248879   4.727   4.197   4.182 -0.9999 -0.0738  1.3013
 9130TIP3   OH248880   2.168   5.171   3.005  0.1178 -0.2006 -0.2570
 9130TIP3    H148881   2.193   5.133   3.089  0.3951  0.3214 -0.1068
 9130TIP3    H248882   2.098   5.233   3.026  0.0972 -0.1641 -0.4302
 9131TIP3   OH248883   3.202   2.105  14.595  0.3339 -0.3934 -0.4282
 9131TIP3    H148884   3.235   2.192  14.576 -1.1240  0.2811  0.0270
 9131TIP3    H248885   3.270   2.063  14.648  1.2189  0.3048 -1.0022
 9132TIP3   OH248886   3.879   1.783  11.321  0.0560  0.6424 -1.0255
 9132TIP3    H148887   3.878   1.844  11.396 -1.5674 -1.2300  0.5334
 9132TIP3    H248888   3.816   1.821  11.260 -1.0567  0.5076  0.0028
 9133TIP3   OH248889   4.299   1.083  11.361 -0.0158 -0.3163 -0.3022
 9133TIP3    H148890   4.212   1.117  11.383  0.2548 -0.6067  1.3289
 9133TIP3    H248891   4.291   1.052  11.271 -1.7900 -0.9300  0.0474
 9134TIP3   OH248892   2.150   4.132   2.016 -0.4776  0.5222  0.3016
 9134TIP3    H148893   2.165   4.059   1.956 -0.7498  0.7381 -0.0317
 9134TIP3    H248894   2.120   4.203   1.960 -3.0025  0.0453  0.9699
 9135TIP3   OH248895   4.549   2.793   5.746  0.1747  0.1408  0.7759
 9135TIP3    H148896   4.563   2.887   5.756 -1.4320  0.4847 -0.0200
 9135TIP3    H248897   4.614   2.752   5.804  1.4123  1.7101  0.5304
 9136TIP3   OH248898   0.504   5.299  13.874 -0.0146 -0.2328 -0.2942
 9136TIP3    H148899   0.597   5.294  13.892  0.3895 -0.8358 -2.4023
 9136TIP3    H248900   0.476   5.383  13.910  1.8057  0.9878 -1.6694
 9137TIP3   OH248901   6.115   6.408  16.840 -0.1132  0.0302  0.1867
 9137TIP3    H148902   6.194   6.361  16.865  0.1140  0.9347  1.2154
 9137TIP3    H248903   6.106   6.391  16.747  1.0182 -0.4862  0.1606
 9138TIP3   OH248904   5.563   4.353  16.956 -0.4763 -0.3041  0.3890
 9138TIP3    H148905   5.623   4.394  17.018 -0.5937  0.4440  0.0046
 9138TIP3    H248906   5.617   4.289  16.910  0.6788  2.1958 -1.7988
 9139TIP3   OH248907   6.101   3.143   1.785  0.5697 -0.0253  0.5602
 9139TIP3    H148908   6.176   3.157   1.843  0.5868  2.3327 -0.0016
 9139TIP3    H248909   6.101   3.219   1.727 -0.7442 -1.2764 -1.1232
 9140TIP3   OH248910   6.288   3.172  13.006  0.5139  0.0932  0.2114
 9140TIP3    H148911   6.220   3.210  12.950  0.5627  0.9661  0.7321
 9140TIP3    H248912   6.300   3.236  13.076  0.9056 -0.6999  0.8723
 9141TIP3   OH248913   1.171   4.000  11.818  0.0204 -0.3947 -0.0753
 9141TIP3    H148914   1.156   4.063  11.889  0.6332 -0.7158  0.3421
 9141TIP3    H248915   1.088   3.999  11.770  0.1612  1.0706 -0.3648
 9142TIP3   OH248916   4.055   1.726  11.674  0.0742 -0.1134 -0.1443
 9142TIP3    H148917   3.978   1.780  11.661  1.1336  1.7108  0.9697
 9142TIP3    H248918   4.024   1.650  11.724 -0.6720  1.4827  1.8625
 9143TIP3   OH248919   3.066   5.129   5.400 -0.9689  0.1938  0.1800
 9143TIP3    H148920   3.159   5.122   5.421 -0.9567  1.2696  0.5074
 9143TIP3    H248921   3.022   5.071   5.462 -0.3134 -2.4540 -1.7155
 9144TIP3   OH248922   5.053   5.805  14.842 -0.1433 -0.0211 -0.1699
 9144TIP3    H148923   5.143   5.833  14.851 -0.3837  0.8487 -0.4301
 9144TIP3    H248924   5.004   5.856  14.907 -0.4973 -0.2458 -0.2540
 9145TIP3   OH248925   2.568   2.041   4.884  0.0785 -0.2781 -0.2351
 9145TIP3    H148926   2.482   2.080   4.903  1.0217  1.4727  0.5297
 9145TIP3    H248927   2.548   1.950   4.860 -2.0700  0.3494 -0.9592
 9146TIP3   OH248928   1.037   6.121  11.644  0.4359  1.0964 -0.0011
 9146TIP3    H148929   0.964   6.149  11.699  0.9344  0.8600  0.7876
 9146TIP3    H248930   1.025   6.027  11.633  0.3881  1.1279 -0.2203
 9147TIP3   OH248931   5.359   6.335   1.139  0.1149  0.1440  0.0929
 9147TIP3    H148932   5.332   6.401   1.202 -0.7878 -0.0601 -0.0681
 9147TIP3    H248933   5.403   6.268   1.191  3.4401  2.0945 -0.0525
 9148TIP3   OH248934   2.647   3.908  12.351 -0.4966  0.1917 -0.0916
 9148TIP3    H148935   2.598   3.890  12.431 -0.9811 -1.5647 -0.7594
 9148TIP3    H248936   2.611   3.847  12.286  0.9110  0.5573 -1.2525
 9149TIP3   OH248937   0.228   1.175   6.835 -0.0574  0.6515  0.0366
 9149TIP3    H148938   0.280   1.098   6.811  0.1505  1.1485 -1.1119
 9149TIP3    H248939   0.260   1.199   6.922  0.4030 -0.0986  0.0845
 9150TIP3   OH248940   1.375   1.692  12.532 -0.0696 -0.0532  0.4258
 9150TIP3    H148941   1.419   1.627  12.478 -0.2058  0.2436 -0.0438
 9150TIP3    H248942   1.297   1.717  12.482 -1.0852 -0.9901  1.4965
 9151TIP3   OH248943   2.434   2.342  13.981  0.0952 -0.9282  0.1450
 9151TIP3    H148944   2.414   2.326  14.073  0.6929  0.6257  0.5573
 9151TIP3    H248945   2.526   2.368  13.981  0.0884 -0.8884 -0.8911
 9152TIP3   OH248946   3.299   3.043  13.863  0.0280  0.2462  0.1197
 9152TIP3    H148947   3.339   3.037  13.776  0.4688  2.1442  0.1664
 9152TIP3    H248948   3.220   2.990  13.857 -0.3391  0.9479 -1.6756
 9153TIP3   OH248949   6.457   5.940   2.834  0.6937 -0.2507  0.8441
 9153TIP3    H148950   6.412   5.985   2.763  1.2490  0.9141  1.2098
 9153TIP3    H248951   6.465   6.007   2.903  0.8157 -1.1465  1.7074
 9154TIP3   OH248952   4.441   0.594  15.443  0.5927  0.1105  0.2950
 9154TIP3    H148953   4.494   0.565  15.368 -1.5783  1.6326 -1.9265
 9154TIP3    H248954   4.411   0.512  15.483  0.2894 -0.7748 -1.6499
 9155TIP3   OH248955   1.871   4.410  12.862  0.9196 -0.3031  0.6516
 9155TIP3    H148956   1.841   4.400  12.953  1.9660 -1.8540  0.8505
 9155TIP3    H248957   1.966   4.416  12.868  0.8776  1.5510 -0.2129
 9156TIP3   OH248958   3.704   2.467   2.557  0.3014 -0.1508 -0.1023
 9156TIP3    H148959   3.612   2.492   2.544  0.9502  1.7352 -1.4083
 9156TIP3    H248960   3.738   2.458   2.468  1.3117 -1.1783  0.3812
 9157TIP3   OH248961   2.349   5.346  13.752  0.1652 -0.4317 -0.4449
 9157TIP3    H148962   2.312   5.285  13.688  1.3138 -1.6066 -0.0075
 9157TIP3    H248963   2.296   5.333  13.831 -0.8327  0.5514 -0.9321
 9158TIP3   OH248964   1.875   3.078   1.450  0.3648 -0.1699  0.5316
 9158TIP3    H148965   1.835   3.016   1.389  0.9856  0.5039 -0.5775
 9158TIP3    H248966   1.932   3.131   1.395 -1.2316  2.3243  1.2221
 9159TIP3   OH248967   6.762   2.481  11.266  0.1134  0.9030 -0.2357
 9159TIP3    H148968   6.828   2.472  11.197 -1.0636  0.9394 -1.3802
 9159TIP3    H248969   6.793   2.422  11.336  0.2536 -0.6983 -1.6132
 9160TIP3   OH248970   1.076   0.600  14.175  0.0705  0.0053 -0.3262
 9160TIP3    H148971   1.151   0.577  14.229  0.2470 -1.7979 -1.2765
 9160TIP3    H248972   1.111   0.655  14.105  0.3916 -0.2211 -0.3439
 9161TIP3   OH248973   0.796   0.166   4.167  0.0729  0.2707 -0.1960
 9161TIP3    H148974   0.876   0.205   4.202 -0.0712 -0.6600  1.2047
 9161TIP3    H248975   0.826   0.085   4.125  0.0922  0.8111 -1.2422
 9162TIP3   OH248976   0.577   5.032   2.163 -0.1094  0.1211  0.1629
 9162TIP3    H148977   0.535   5.056   2.080 -0.3019 -1.3428 -0.1781
 9162TIP3    H248978   0.599   5.115   2.204 -2.9206  0.9130  0.1180
 9163TIP3   OH248979   3.825   4.855   2.424  0.2249  0.2835  0.2859
 9163TIP3    H148980   3.872   4.781   2.386  0.9939  1.7333 -1.6865
 9163TIP3    H248981   3.733   4.827   2.425  0.9101 -2.0122  2.8301
 9164TIP3   OH248982   3.628   2.926   4.738 -0.3599  0.3385  0.5202
 9164TIP3    H148983   3.630   2.958   4.828 -0.2528 -0.0901  0.6730
 9164TIP3    H248984   3.712   2.952   4.701 -0.0265 -0.2947  0.8286
 9165TIP3   OH248985   0.694   0.144  16.131 -0.2893 -0.3610 -0.8779
 9165TIP3    H148986   0.619   0.103  16.088 -1.3484 -1.6233  2.0031
 9165TIP3    H248987   0.667   0.235  16.145 -1.5731 -0.9572  0.6742
 9166TIP3   OH248988   2.150   3.691  11.921  0.6270  0.7427 -0.2971
 9166TIP3    H148989   2.094   3.634  11.868 -0.8460 -0.1389  2.1161
 9166TIP3    H248990   2.097   3.769  11.936  1.4658  1.4605 -1.0363
 9167TIP3   OH248991   1.640   4.898  16.605  0.0629 -0.1943  0.5317
 9167TIP3    H148992   1.651   4.917  16.698 -0.1169  1.5053  0.2305
 9167TIP3    H248993   1.649   4.803  16.598 -0.1266 -0.3543  2.3045
 9168TIP3   OH248994   1.883   6.437  16.559 -0.1288 -0.1380  0.4756
 9168TIP3    H148995   1.848   6.408  16.644  0.2974 -1.0149  0.3609
 9168TIP3    H248996   1.842   6.379  16.495 -0.5049  0.5734  0.0709
 9169TIP3   OH248997   0.681   4.637  11.873 -0.4986  0.1462 -0.4529
 9169TIP3    H148998   0.727   4.600  11.949  0.0773  1.6664 -0.0334
 9169TIP3    H248999   0.741   4.703  11.839 -1.4158  0.5486 -1.3127
 9170TIP3   OH249000   1.726   6.510  16.137 -0.3910  0.0527 -0.1871
 9170TIP3    H149001   1.812   6.498  16.175 -1.0436 -0.5495  1.1151
 9170TIP3    H249002   1.709   6.430  16.088  0.8937  1.2499 -2.7073
 9171TIP3   OH249003   2.830   0.655  17.209  0.3874 -0.1360 -0.4008
 9171TIP3    H149004   2.808   0.709  17.134 -0.6435 -1.3532 -1.0026
 9171TIP3    H249005   2.869   0.576  17.172  1.4453 -0.0206  0.4386
 9172TIP3   OH249006   0.073   1.922   2.528 -0.2791  0.6094 -0.1997
 9172TIP3    H149007   0.161   1.953   2.511 -0.0891 -0.2963 -0.8568
 9172TIP3    H249008   0.045   1.881   2.446 -1.5317  1.4168 -0.1959
 9173TIP3   OH249009   3.921   1.619  11.909  0.0185 -0.1209 -0.7557
 9173TIP3    H149010   3.868   1.681  11.859  0.8537 -0.0369 -1.5309
 9173TIP3    H249011   3.927   1.658  11.996 -0.5092  0.2624 -0.8877
 9174TIP3   OH249012   0.940   5.562   3.367  0.4398 -0.5578 -0.6387
 9174TIP3    H149013   0.952   5.642   3.315  1.6430  0.1551  0.7146
 9174TIP3    H249014   1.024   5.548   3.410 -0.0675 -2.0219 -0.1006
 9175TIP3   OH249015   5.438   0.353  14.026  0.0302 -0.1806 -1.0475
 9175TIP3    H149016   5.355   0.306  14.028 -1.1011  1.7784  0.4605
 9175TIP3    H249017   5.488   0.318  14.100 -0.3117  0.0948 -0.6828
 9176TIP3   OH249018   2.988   2.739   5.979 -0.4040  0.0806  0.3366
 9176TIP3    H149019   2.910   2.684   5.975 -0.6236  0.3739  0.5066
 9176TIP3    H249020   2.959   2.817   6.028 -0.5403  1.0599 -1.2651
 9177TIP3   OH249021   2.263   3.097   1.881  0.0352 -0.8471 -0.3350
 9177TIP3    H149022   2.228   3.119   1.795  0.7975  1.4070 -0.0857
 9177TIP3    H249023   2.187   3.067   1.931 -0.9173  0.6058 -0.8985
 9178TIP3   OH249024   1.127   1.794   0.009 -0.4159  0.6116  0.2610
 9178TIP3    H149025   1.086   1.755   0.086  0.8095 -1.4937 -0.1190
 9178TIP3    H249026   1.193   1.731  -0.018 -2.7016 -0.0700 -4.2229
 9179TIP3   OH249027   5.309   1.375   5.132  0.1178 -0.3601 -0.6799
 9179TIP3    H149028   5.222   1.387   5.171  0.7255 -0.8404  0.8813
 9179TIP3    H249029   5.305   1.423   5.049 -1.5729 -0.2253 -0.5453
 9180TIP3   OH249030   2.297   3.174  15.721  0.2634  0.5135  0.1157
 9180TIP3    H149031   2.276   3.266  15.738  1.0546  0.8392 -0.6077
 9180TIP3    H249032   2.281   3.130  15.804 -2.3228  0.9049 -0.1516
 9181TIP3   OH249033   3.392   4.763  14.182  0.2222  0.6358 -0.7010
 9181TIP3    H149034   3.454   4.693  14.201 -0.9612 -0.2187  0.0407
 9181TIP3    H249035   3.356   4.741  14.096 -1.8070 -0.9042  0.5102
 9182TIP3   OH249036   5.799   3.841  10.156 -0.6133 -0.0475 -0.3987
 9182TIP3    H149037   5.858   3.779  10.198 -1.0362  0.1534  0.5130
 9182TIP3    H249038   5.754   3.789  10.089 -1.0182 -0.7570  0.4000
 9183TIP3   OH249039   5.196   0.977   4.332 -0.1172 -0.1013  0.0733
 9183TIP3    H149040   5.271   0.978   4.272 -0.2760 -1.8280 -0.2011
 9183TIP3    H249041   5.218   1.042   4.399  1.1209  0.2041 -0.6049
 9184TIP3   OH249042   0.159   2.372   3.897 -0.0869 -0.0205 -0.2304
 9184TIP3    H149043   0.117   2.293   3.865 -0.9365  0.7125 -0.9389
 9184TIP3    H249044   0.181   2.353   3.988  1.3650 -1.7310 -0.8941
 9185TIP3   OH249045   2.933   6.295   2.899  0.0633  0.5414 -0.3226
 9185TIP3    H149046   2.850   6.248   2.913  0.6656 -0.6697 -0.8011
 9185TIP3    H249047   2.921   6.378   2.946 -1.4922  0.4602 -0.5425
 9186TIP3   OH249048   6.152   1.262   3.429  0.2839 -0.4961  0.5887
 9186TIP3    H149049   6.092   1.320   3.475 -0.8357 -1.1064 -0.0902
 9186TIP3    H249050   6.168   1.191   3.491  1.4946  0.4052  1.3409
 9187TIP3   OH249051   5.265   4.639   5.452  0.2622  0.1919  0.0221
 9187TIP3    H149052   5.178   4.600   5.438  0.2487  0.6933 -1.3914
 9187TIP3    H249053   5.312   4.574   5.504 -0.3408 -0.9346 -0.8052
 9188TIP3   OH249054   0.073   1.797  14.547  0.5032 -0.4479 -0.4663
 9188TIP3    H149055   0.130   1.872  14.530 -0.1552  0.3934  0.9505
 9188TIP3    H249056   0.019   1.789  14.469 -0.1903  1.2554 -0.1675
 9189TIP3   OH249057   1.805   4.180  16.757  0.9432  0.0763  0.1018
 9189TIP3    H149058   1.883   4.223  16.792  0.0226  1.1901  0.8356
 9189TIP3    H249059   1.809   4.197  16.663  2.3118 -1.0880 -0.0664
 9190TIP3   OH249060   1.927   2.989   0.599 -0.1170 -0.5679 -0.2861
 9190TIP3    H149061   2.012   3.015   0.636 -0.8441 -0.8246  1.6127
 9190TIP3    H249062   1.863   3.019   0.664 -1.3020 -2.6670 -0.4591
 9191TIP3   OH249063   0.312   1.992   4.618 -0.8788  0.7319 -0.3454
 9191TIP3    H149064   0.305   2.077   4.661  0.2115 -0.0031  1.3552
 9191TIP3    H249065   0.244   1.938   4.659  0.2814 -0.0283  0.5959
 9192TIP3   OH249066   2.169   5.180  12.422  0.0976 -0.1371  0.1745
 9192TIP3    H149067   2.198   5.262  12.382  1.6196 -1.4175 -1.4186
 9192TIP3    H249068   2.245   5.149  12.470 -1.1195  0.3927  2.5026
 9193TIP3   OH249069   3.760   5.797  16.476 -0.2002  0.2160 -0.3207
 9193TIP3    H149070   3.847   5.788  16.437 -0.2566  1.4823 -0.7743
 9193TIP3    H249071   3.763   5.743  16.555 -0.5345 -3.4683 -2.7382
 9194TIP3   OH249072   4.212   6.805   1.010 -0.0951  0.6868  0.8771
 9194TIP3    H149073   4.149   6.797   0.938  2.2823  0.3876 -1.2519
 9194TIP3    H249074   4.182   6.743   1.076 -0.5370 -1.4458 -1.2546
 9195TIP3   OH249075   6.265   4.286   1.012 -0.7748  0.6744 -1.3428
 9195TIP3    H149076   6.328   4.337   1.062 -0.5811 -0.1513 -0.7266
 9195TIP3    H249077   6.208   4.246   1.078 -0.2079 -0.8320 -1.7404
 9196TIP3   OH249078   4.731   1.920  15.936 -0.0000 -0.9166 -0.1024
 9196TIP3    H149079   4.759   2.001  15.894  1.3734 -0.8057  0.9959
 9196TIP3    H249080   4.707   1.947  16.025 -1.3851 -1.4060 -0.3162
 9197TIP3   OH249081   6.750   2.604   0.176 -0.2412 -0.0168 -0.0846
 9197TIP3    H149082   6.705   2.682   0.208 -0.3858  0.1490 -0.6821
 9197TIP3    H249083   6.842   2.618   0.202 -0.0822  0.8297 -1.0625
 9198TIP3   OH249084   3.737   2.497  11.913  0.3834 -0.2183  0.0340
 9198TIP3    H149085   3.751   2.418  11.966 -0.0989  0.6288  1.4760
 9198TIP3    H249086   3.775   2.477  11.828 -2.6885 -3.2682 -0.7352
 9199TIP3   OH249087   4.330   0.841  11.544  0.2789 -0.4077 -1.0227
 9199TIP3    H149088   4.326   0.918  11.487  0.9014 -0.0907 -0.6430
 9199TIP3    H249089   4.352   0.877  11.630  0.0855 -0.9629 -0.7441
 9200TIP3   OH249090   2.904   5.102  12.458  0.2933  0.0264 -0.4531
 9200TIP3    H149091   2.813   5.126  12.440  0.5334  1.6646  0.4698
 9200TIP3    H249092   2.912   5.110  12.553  1.3914 -0.2028 -0.5188
 9201TIP3   OH249093   3.158   5.626  10.488  0.1708 -0.2278 -0.0342
 9201TIP3    H149094   3.111   5.560  10.538 -1.7114  0.0381 -1.4044
 9201TIP3    H249095   3.250   5.616  10.514 -0.5400 -1.2272  2.1458
 9202TIP3   OH249096   4.359   0.311   0.653 -0.1834  0.4257 -0.1806
 9202TIP3    H149097   4.419   0.238   0.668 -0.5007  0.1444 -0.2738
 9202TIP3    H249098   4.403   0.387   0.691 -0.1883  0.0442  0.5968
 9203TIP3   OH249099   1.294   2.961   6.197 -0.2883  0.4524 -0.0876
 9203TIP3    H149100   1.258   2.909   6.268  0.7577  0.9756  0.8361
 9203TIP3    H249101   1.293   2.902   6.121  2.0216 -1.3467  1.2174
 9204TIP3   OH249102   6.608   1.886  11.484  0.0659  0.1515  0.0775
 9204TIP3    H149103   6.654   1.923  11.409  0.2652 -2.7636 -1.3013
 9204TIP3    H249104   6.516   1.907  11.468  0.0734 -0.6930 -1.1595
 9205TIP3   OH249105   5.312   4.569  11.241  0.2043 -0.0467 -0.5069
 9205TIP3    H149106   5.284   4.527  11.159  0.0518  0.2195 -0.5938
 9205TIP3    H249107   5.264   4.652  11.242 -0.2166 -0.2979  0.1284
 9206TIP3   OH249108   3.483   6.022  14.886 -0.4796  0.4124  0.4897
 9206TIP3    H149109   3.469   5.977  14.803 -0.0026 -0.3771  0.8329
 9206TIP3    H249110   3.430   6.101  14.879 -1.3125 -0.1841 -0.1286
 9207TIP3   OH249111   3.637   1.767   5.134  0.2698 -0.4097  0.1425
 9207TIP3    H149112   3.550   1.806   5.142  0.6919  0.7179 -0.7024
 9207TIP3    H249113   3.677   1.779   5.220  0.4108  1.0443 -0.1268
 9208TIP3   OH249114   1.013   0.168   2.976 -0.0113  0.4766 -0.2663
 9208TIP3    H149115   0.953   0.137   2.909 -0.4860 -1.7425  1.1118
 9208TIP3    H249116   1.099   0.138   2.947 -0.3320 -1.3005  0.5117
 9209TIP3   OH249117   4.860   1.715  16.132  0.1120 -0.7416  0.6846
 9209TIP3    H149118   4.827   1.724  16.222 -0.2883  2.1530  0.3072
 9209TIP3    H249119   4.807   1.646  16.093  0.0631 -1.7903  2.5624
 9210TIP3   OH249120   2.285   3.153  13.183 -0.1667 -0.2215 -0.2182
 9210TIP3    H149121   2.219   3.120  13.122 -2.0795  1.2990  0.9457
 9210TIP3    H249122   2.362   3.168  13.129 -0.3893 -3.0875 -1.4231
 9211TIP3   OH249123   0.064   0.454   0.687  0.2056  0.4888  0.0572
 9211TIP3    H149124   0.074   0.546   0.665 -0.8810  0.6028  0.0219
 9211TIP3    H249125   0.102   0.446   0.775  0.3803  0.9514  0.0253
 9212TIP3   OH249126   3.308   0.280  16.422 -0.0585 -0.4795  0.0578
 9212TIP3    H149127   3.352   0.359  16.391 -0.1384 -0.7898 -0.8495
 9212TIP3    H249128   3.217   0.306  16.436 -0.2925 -0.6391 -1.1293
 9213TIP3   OH249129   2.959   1.553  12.402  0.0467 -0.4011  0.2624
 9213TIP3    H149130   2.947   1.459  12.399  0.4739 -0.4398 -0.2851
 9213TIP3    H249131   2.908   1.582  12.478  0.6686 -1.1769  0.9759
 9214TIP3   OH249132   2.547   3.086  17.287  0.4313 -0.0701  0.5286
 9214TIP3    H149133   2.542   3.170  17.242  2.0921  0.1178  0.6370
 9214TIP3    H249134   2.460   3.072  17.323 -1.1571 -0.5737 -3.2840
 9215TIP3   OH249135   0.249   1.026  14.633 -0.2996  0.4522  0.2434
 9215TIP3    H149136   0.181   1.012  14.699 -0.6367  0.7040 -0.0477
 9215TIP3    H249137   0.329   1.042  14.683 -0.3754 -0.2364  0.5847
 9216TIP3   OH249138   6.679   5.541   1.043  0.6240 -0.2055 -0.2539
 9216TIP3    H149139   6.618   5.613   1.055 -0.7597 -0.7182 -3.5640
 9216TIP3    H249140   6.624   5.468   1.015  2.4408 -1.5051 -0.5184
 9217TIP3   OH249141   1.306   6.538   2.807  0.4845  0.3960 -0.1870
 9217TIP3    H149142   1.215   6.509   2.809 -0.1006  2.0446 -1.0744
 9217TIP3    H249143   1.357   6.458   2.806 -0.9616 -0.5517  0.5316
 9218TIP3   OH249144   3.030   1.235  15.023 -0.1659 -0.4270  0.2903
 9218TIP3    H149145   3.037   1.199  14.934 -2.8480 -0.9681  0.2401
 9218TIP3    H249146   2.948   1.199  15.056  0.7731 -0.1620  2.9855
 9219TIP3   OH249147   2.815   4.364  14.199  0.5884  0.0021  0.4833
 9219TIP3    H149148   2.861   4.435  14.155  0.7319 -1.2895 -1.5467
 9219TIP3    H249149   2.723   4.377  14.175  0.5926 -0.3766  0.2572
 9220TIP3   OH249150   3.069   5.825   4.175 -0.0720 -0.2278  0.0147
 9220TIP3    H149151   3.156   5.805   4.209  0.9748  2.3333 -0.9938
 9220TIP3    H249152   3.084   5.851   4.084 -1.9773 -0.4261 -0.3841
 9221TIP3   OH249153   1.949   5.709  13.751 -1.0515 -0.3469 -0.4286
 9221TIP3    H149154   1.947   5.777  13.683 -1.9327 -0.5889 -0.6597
 9221TIP3    H249155   2.027   5.729  13.802 -0.0243 -0.5255 -1.8781
 9222TIP3   OH249156   3.064   2.425  13.195  0.0138  0.1879  0.2748
 9222TIP3    H149157   3.096   2.513  13.175  0.2251  0.5482  2.1448
 9222TIP3    H249158   2.968   2.434  13.194  0.0435  0.5664  1.0621
 9223TIP3   OH249159   5.992   1.067   2.263 -0.2343 -0.2072 -0.3067
 9223TIP3    H149160   6.043   1.099   2.338 -0.9844 -1.2570  0.6759
 9223TIP3    H249161   6.055   1.016   2.212  0.2886  0.5238 -0.4034
 9224TIP3   OH249162   4.244   4.188  11.635 -0.5318 -0.4220  0.2034
 9224TIP3    H149163   4.157   4.156  11.657 -0.8352  0.5785  0.4830
 9224TIP3    H249164   4.279   4.221  11.718 -1.1081  2.0435 -0.5163
 9225TIP3   OH249165   1.911   6.127  12.532  0.1016 -0.1804 -0.3067
 9225TIP3    H149166   1.940   6.155  12.619  0.3883  2.1359 -1.1263
 9225TIP3    H249167   1.816   6.119  12.539  0.2744 -1.4572  0.6227
 9226TIP3   OH249168   4.786   3.171   4.544  0.1399 -0.1032  0.2576
 9226TIP3    H149169   4.777   3.236   4.614 -0.3682  0.1688 -0.0579
 9226TIP3    H249170   4.732   3.205   4.473  1.1256 -0.0870 -0.4896
 9227TIP3   OH249171   1.263   0.841   1.891  0.1459  0.5630 -0.4480
 9227TIP3    H149172   1.251   0.802   1.978  0.9498  0.4011 -0.4121
 9227TIP3    H249173   1.354   0.870   1.890  0.1693  0.4589 -1.2792
 9228TIP3   OH249174   3.740   5.437  11.426 -0.2482  0.1324 -0.2017
 9228TIP3    H149175   3.659   5.386  11.426  0.0308 -0.3149 -1.0296
 9228TIP3    H249176   3.777   5.422  11.513 -1.2076  0.5958  0.2987
 9229TIP3   OH249177   5.853   5.175   0.735 -0.1425  0.2266 -0.0516
 9229TIP3    H149178   5.786   5.111   0.713 -0.0208  0.3099 -0.6996
 9229TIP3    H249179   5.848   5.240   0.664 -0.3603  1.0039  0.6755
 9230TIP3   OH249180   3.814   5.733   0.673  0.1548 -0.7789  0.0619
 9230TIP3    H149181   3.765   5.776   0.603  0.2987 -0.6310  0.0499
 9230TIP3    H249182   3.903   5.724   0.637  0.3136 -0.3936  0.3538
 9231TIP3   OH249183   0.669   3.822   2.029  0.4714 -0.3444  0.3341
 9231TIP3    H149184   0.683   3.833   2.123  1.9639 -0.9333  0.2052
 9231TIP3    H249185   0.661   3.912   1.996  1.5620 -0.0480  0.8157
 9232TIP3   OH249186   0.308   6.750  13.036  0.0819 -0.5564  0.4488
 9232TIP3    H149187   0.341   6.788  12.955 -1.0674 -0.5006  0.0016
 9232TIP3    H249188   0.291   6.658  13.015 -2.5607  0.0170 -0.0962
 9233TIP3   OH249189   0.488   4.430  12.962 -0.3458 -0.3971 -0.2992
 9233TIP3    H149190   0.470   4.337  12.950 -1.6326 -0.5140  2.2054
 9233TIP3    H249191   0.413   4.475  12.924 -1.1353 -0.5117  1.0957
 9234TIP3   OH249192   6.557   4.566   3.367 -0.0455  0.0499  0.4984
 9234TIP3    H149193   6.642   4.534   3.335  0.0218 -0.5820  1.2805
 9234TIP3    H249194   6.501   4.565   3.290  0.8711  1.2396 -0.2052
 9235TIP3   OH249195   4.794   5.808  14.610 -0.2708 -0.2711 -0.2093
 9235TIP3    H149196   4.746   5.852  14.680 -1.3859  0.4112 -1.3990
 9235TIP3    H249197   4.743   5.824  14.531  1.4328 -0.2863 -1.3503
 9236TIP3   OH249198   1.543   4.845  14.122 -0.3601  0.1032 -0.1406
 9236TIP3    H149199   1.516   4.889  14.202 -0.8491 -0.2567 -0.1130
 9236TIP3    H249200   1.584   4.915  14.070  1.3215  0.0285  1.0483
 9237TIP3   OH249201   5.265   6.181  13.825  0.2267 -0.4602  0.2413
 9237TIP3    H149202   5.180   6.157  13.862 -0.2958 -0.4005 -0.8840
 9237TIP3    H249203   5.243   6.217  13.739  1.3085  0.5254  0.3679
 9238TIP3   OH249204   0.102   1.294   5.263 -0.0289  0.4754  0.0566
 9238TIP3    H149205   0.196   1.286   5.278 -0.4565 -4.1490  0.9826
 9238TIP3    H249206   0.067   1.324   5.347  0.3259 -0.8013  0.6753
 9239TIP3   OH249207   1.145   0.542   1.616 -0.3889 -0.3250  0.5365
 9239TIP3    H149208   1.186   0.457   1.627  2.1509  1.0791  2.5373
 9239TIP3    H249209   1.193   0.583   1.543  0.0252  0.2884  1.1433
 9240TIP3   OH249210   5.689   3.974  16.587  0.4412  0.6816  0.0383
 9240TIP3    H149211   5.773   3.976  16.541  0.3589  0.7663 -0.1081
 9240TIP3    H249212   5.624   3.963  16.517  0.3008  1.0144  0.1139
 9241TIP3   OH249213   2.619   5.407  13.758  0.3297 -0.2806 -0.0397
 9241TIP3    H149214   2.527   5.388  13.743  0.4184  1.8218 -3.6473
 9241TIP3    H249215   2.666   5.349  13.698  1.2725  0.0322  0.3904
 9242TIP3   OH249216   1.723   3.520  12.257 -0.0743 -0.1328  0.0308
 9242TIP3    H149217   1.698   3.445  12.203  4.5545 -1.6868 -0.2127
 9242TIP3    H249218   1.752   3.586  12.195  2.2112 -0.7305  0.3910
 9243TIP3   OH249219   0.645   4.975   1.219 -0.2253  0.3807 -0.1681
 9243TIP3    H149220   0.600   4.910   1.166  1.6691 -1.3614  0.3296
 9243TIP3    H249221   0.605   4.967   1.305 -0.2148  0.0896 -0.1897
 9244TIP3   OH249222   0.768   3.632  16.441  0.1363  0.0575  0.5086
 9244TIP3    H149223   0.779   3.696  16.512 -0.4060  0.1918  0.4683
 9244TIP3    H249224   0.725   3.681  16.371  0.6634 -0.0747  0.0824
 9245TIP3   OH249225   6.413   2.041  15.786 -0.5966  0.3101  0.2843
 9245TIP3    H149226   6.318   2.053  15.785 -1.1151 -2.4721  3.9299
 9245TIP3    H249227   6.426   1.952  15.755  0.9224  0.9699 -1.0215
 9246TIP3   OH249228   4.075   4.885  15.271 -0.1429  0.0678 -0.3369
 9246TIP3    H149229   4.008   4.834  15.226 -1.5722 -0.0692  1.8784
 9246TIP3    H249230   4.109   4.826  15.338 -1.0894  1.6357  1.5813
 9247TIP3   OH249231   6.425   1.333  11.254  0.3845 -0.0504 -0.1345
 9247TIP3    H149232   6.482   1.279  11.309  2.1434  0.8077 -1.0669
 9247TIP3    H249233   6.380   1.271  11.197 -0.5926 -0.8424  1.4606
 9248TIP3   OH249234   6.288   5.392  15.914  0.0052  0.4518 -0.4895
 9248TIP3    H149235   6.197   5.382  15.943  0.5197 -1.4430  0.6013
 9248TIP3    H249236   6.339   5.392  15.995  1.2723 -2.6003 -1.1993
 9249TIP3   OH249237   0.316   2.741   3.356 -0.0895 -0.0623 -0.4145
 9249TIP3    H149238   0.221   2.732   3.367 -0.1251 -0.3837 -0.9417
 9249TIP3    H249239   0.351   2.738   3.445 -0.4769 -1.1357 -0.2895
 9250TIP3   OH249240   0.189   2.047   1.810 -0.0945 -0.4736  0.5396
 9250TIP3    H149241   0.197   1.952   1.799 -0.7888 -0.5393  0.5611
 9250TIP3    H249242   0.201   2.082   1.722 -1.0308 -0.6727  0.3233
 9251TIP3   OH249243   3.748   0.706  16.532 -0.1333 -0.1958 -0.0731
 9251TIP3    H149244   3.666   0.679  16.572 -0.0577 -0.1301  0.1271
 9251TIP3    H249245   3.808   0.718  16.606  0.0118 -0.0939 -0.2066
 9252TIP3   OH249246   4.407   1.125  14.774  0.2665  0.0405 -0.3153
 9252TIP3    H149247   4.344   1.109  14.704  0.1101 -0.8412  0.0281
 9252TIP3    H249248   4.440   1.213  14.755  0.6068 -0.3789 -1.7989
 9253TIP3   OH249249   0.534   1.268   3.169  0.0521  0.3315  0.1167
 9253TIP3    H149250   0.621   1.235   3.147 -0.4690 -1.9939  1.4151
 9253TIP3    H249251   0.481   1.190   3.181 -2.6705  1.7212 -2.2395
 9254TIP3   OH249252   5.015   1.185   5.608 -0.8050  0.0905  0.6091
 9254TIP3    H149253   5.070   1.254   5.646 -0.8149  0.4267  0.0220
 9254TIP3    H249254   4.993   1.218   5.521  0.2373 -1.2402 -0.1602
 9255TIP3   OH249255   0.519   4.660  13.454  0.0582  0.3377  0.0047
 9255TIP3    H149256   0.507   4.745  13.411  1.3224  1.3256  1.5548
 9255TIP3    H249257   0.458   4.663  13.529 -1.4878 -1.0149 -1.1606
 9256TIP3   OH249258   4.276   0.040   0.429  0.5205  0.7638 -0.5432
 9256TIP3    H149259   4.346   0.104   0.442  1.2882 -0.2217  0.3132
 9256TIP3    H249260   4.212   0.061   0.497  0.1148  1.4888 -1.1461
 9257TIP3   OH249261   0.566   6.614   4.850  0.1115  0.2850 -0.0355
 9257TIP3    H149262   0.494   6.572   4.896 -0.7967  1.5063 -0.3079
 9257TIP3    H249263   0.527   6.647   4.769  0.4881  2.7063  0.7221
 9258TIP3   OH249264   0.902   0.297  14.838 -0.2665 -0.2831 -0.5126
 9258TIP3    H149265   0.885   0.306  14.745  3.6566 -0.5660 -1.3657
 9258TIP3    H249266   0.960   0.221  14.844  1.5371  1.2158  1.8571
 9259TIP3   OH249267   6.688   1.873   3.490  0.2650  0.5181  0.1613
 9259TIP3    H149268   6.765   1.890   3.543  0.1122  3.0140 -0.3835
 9259TIP3    H249269   6.625   1.835   3.551  1.9398 -1.7416  0.5725
 9260TIP3   OH249270   5.672   6.286   1.230  0.1125  0.1295 -0.1947
 9260TIP3    H149271   5.666   6.362   1.173 -1.1535 -0.7175 -1.2294
 9260TIP3    H249272   5.614   6.307   1.304  1.6410  1.1658  0.7280
 9261TIP3   OH249273   2.616   5.617  15.792 -0.6555 -0.6091  0.2649
 9261TIP3    H149274   2.631   5.656  15.706 -3.0820 -1.4252 -0.5681
 9261TIP3    H249275   2.628   5.523  15.779 -1.3244 -0.7658  0.7506
 9262TIP3   OH249276   6.002   0.615  16.544  0.7938 -0.3606 -0.3851
 9262TIP3    H149277   6.036   0.674  16.611  3.3871 -0.3774 -1.6439
 9262TIP3    H249278   5.947   0.672  16.489  1.4969  0.4053 -0.3108
 9263TIP3   OH249279   5.874   5.311  14.038 -0.3842 -0.4752 -0.4175
 9263TIP3    H149280   5.959   5.269  14.047  0.1432  0.3963 -1.2862
 9263TIP3    H249281   5.844   5.287  13.950 -0.9611 -0.6463 -0.1751
 9264TIP3   OH249282   2.304   4.774  12.424  0.2934 -0.2875 -0.3808
 9264TIP3    H149283   2.305   4.683  12.451 -2.8467 -0.1644  0.3474
 9264TIP3    H249284   2.225   4.810  12.463  0.5338  2.2900 -2.1218
 9265TIP3   OH249285   5.886   5.101   3.317 -0.4852 -0.1203 -0.8392
 9265TIP3    H149286   5.871   5.007   3.328 -0.8326 -0.1040 -1.1825
 9265TIP3    H249287   5.799   5.140   3.318 -0.2658  0.4108  1.1797
 9266TIP3   OH249288   3.471   1.460   1.181 -0.1176  0.0460  0.2241
 9266TIP3    H149289   3.444   1.500   1.264  2.7140 -2.6079  2.5396
 9266TIP3    H249290   3.489   1.534   1.123 -0.0775  2.0205  2.6743
 9267TIP3   OH249291   4.225   3.722   4.619  0.0292  0.3872 -0.2487
 9267TIP3    H149292   4.277   3.749   4.695 -1.3434  0.1552  0.7838
 9267TIP3    H249293   4.138   3.758   4.635  0.0244  1.3607 -2.3067
 9268TIP3   OH249294   3.496   2.595  13.146  0.7361  0.5221  0.2103
 9268TIP3    H149295   3.566   2.660  13.155  3.3822 -2.3913  1.4913
 9268TIP3    H249296   3.511   2.554  13.061  0.1828  0.3358  0.2010
 9269TIP3   OH249297   5.376   5.440  10.511  0.2772  0.0976 -0.6348
 9269TIP3    H149298   5.341   5.484  10.588  0.1559  0.0138 -0.6421
 9269TIP3    H249299   5.324   5.474  10.438 -0.7584 -1.1104 -0.4678
 9270TIP3   OH249300   2.288   0.192   5.256  0.3857  0.1244  0.3522
 9270TIP3    H149301   2.249   0.138   5.187  0.9359  1.2027 -0.8382
 9270TIP3    H249302   2.213   0.227   5.305 -0.0447  0.0503 -0.2505
 9271TIP3   OH249303   5.709   4.582  16.427 -0.6146  0.5396  0.1913
 9271TIP3    H149304   5.784   4.592  16.368 -1.6421 -0.0586 -1.2451
 9271TIP3    H249305   5.726   4.500  16.473 -0.2975  0.4950 -0.0011
 9272TIP3   OH249306   4.549   6.568   3.821 -0.2832  0.0787  0.2253
 9272TIP3    H149307   4.484   6.619   3.869 -2.2715 -0.2832 -2.0014
 9272TIP3    H249308   4.567   6.619   3.743  0.4195 -0.9025 -0.2620
 9273TIP3   OH249309   1.340   0.320   1.687  0.3430 -0.4988  0.0433
 9273TIP3    H149310   1.425   0.296   1.651  0.5707 -1.2592  1.0714
 9273TIP3    H249311   1.300   0.236   1.712 -0.4455 -0.0994  0.1218
 9274TIP3   OH249312   3.531   0.039   0.171  0.6493 -0.3893  0.2388
 9274TIP3    H149313   3.530   0.119   0.224 -0.6878  0.2892 -0.7902
 9274TIP3    H249314   3.464  -0.017   0.210  2.1124 -1.3259  1.4268
 9275TIP3   OH249315   6.621   2.827  17.250 -0.2470  0.4653 -0.1019
 9275TIP3    H149316   6.604   2.783  17.334 -0.1480 -1.4199 -1.0445
 9275TIP3    H249317   6.620   2.920  17.272 -1.2570  0.0445  1.8069
 9276TIP3   OH249318   6.587   3.410   3.648 -0.7273 -0.4578 -0.1233
 9276TIP3    H149319   6.495   3.390   3.630 -1.4535  1.8587  0.7995
 9276TIP3    H249320   6.605   3.488   3.596  0.6702 -0.7781 -0.1270
 9277TIP3   OH249321   4.571   3.130  10.721  0.0175 -0.5782 -0.1610
 9277TIP3    H149322   4.477   3.148  10.732  0.1865 -0.0527  0.4589
 9277TIP3    H249323   4.577   3.034  10.718 -0.4358 -0.6446  0.7953
 9278TIP3   OH249324   1.036   4.330  14.326 -0.3517 -0.6255  0.4305
 9278TIP3    H149325   0.947   4.365  14.320  0.2176  0.6871 -0.5780
 9278TIP3    H249326   1.086   4.399  14.368  0.4380 -0.8918 -0.0603
 9279TIP3   OH249327   0.910   4.059  14.246 -0.3531 -0.9553 -0.1669
 9279TIP3    H149328   0.841   4.008  14.287  0.3096  0.0015  2.1792
 9279TIP3    H249329   0.867   4.139  14.216 -0.6714 -1.2994 -0.6385
 9280TIP3   OH249330   5.216   3.956   1.528  0.5295 -0.2429 -0.3900
 9280TIP3    H149331   5.170   3.873   1.532  0.4885 -0.1958  0.1675
 9280TIP3    H249332   5.301   3.939   1.569 -0.0242  0.3383  1.0473
 9281TIP3   OH249333   5.977   1.345  11.218  0.2787 -0.4984 -0.2199
 9281TIP3    H149334   6.039   1.376  11.284 -2.0671  0.3946  1.6438
 9281TIP3    H249335   6.009   1.381  11.136  3.5060 -1.9899  0.3438
 9282TIP3   OH249336   4.981   2.445  13.267 -0.3828 -0.3414  0.2656
 9282TIP3    H149337   4.960   2.527  13.311  1.5797  1.7677 -2.4894
 9282TIP3    H249338   5.052   2.407  13.319  0.2510  0.8951  0.3298
 9283TIP3   OH249339   3.978   1.664   3.581  0.0596 -0.1881  0.0824
 9283TIP3    H149340   4.017   1.745   3.548  0.4979 -0.7590 -0.8455
 9283TIP3    H249341   3.889   1.664   3.545  1.2260 -1.8490 -2.9934
 9284TIP3   OH249342   6.687   2.263   2.387  0.3311  0.2074  0.1912
 9284TIP3    H149343   6.653   2.233   2.471 -1.2658  2.5320  0.4239
 9284TIP3    H249344   6.742   2.338   2.409  0.1828  0.6137 -0.8032
 9285TIP3   OH249345   2.474   3.383   0.653 -0.2158 -0.2019  0.2756
 9285TIP3    H149346   2.528   3.344   0.722  0.4414  0.5900  0.2154
 9285TIP3    H249347   2.390   3.402   0.695 -1.0437 -2.9573 -0.0419
 9286TIP3   OH249348   3.787   2.206  14.396 -0.8169  0.3565 -0.1957
 9286TIP3    H149349   3.752   2.196  14.485 -3.2649  1.1135 -1.0414
 9286TIP3    H249350   3.755   2.129  14.349  1.2199 -0.5138 -0.2584
 9287TIP3   OH249351   0.746   0.239  13.441 -0.5569  0.3328  0.0428
 9287TIP3    H149352   0.710   0.275  13.361 -0.5694 -1.6482 -0.8571
 9287TIP3    H249353   0.751   0.314  13.501 -0.9871  1.7188 -1.6290
 9288TIP3   OH249354   0.031   1.538  11.575  0.1761  0.1160  0.3556
 9288TIP3    H149355  -0.051   1.568  11.536  1.0676  1.4289 -0.5291
 9288TIP3    H249356   0.005   1.502  11.660 -1.7022 -2.1604 -1.1193
 9289TIP3   OH249357   6.626   4.617   0.966 -0.0594 -0.1307  0.1754
 9289TIP3    H149358   6.706   4.570   0.989 -1.4407 -2.1257  1.1033
 9289TIP3    H249359   6.634   4.636   0.873  0.9689 -1.3858 -0.0012
 9290TIP3   OH249360   4.583   6.172   4.415  0.4883 -0.1916 -0.3040
 9290TIP3    H149361   4.572   6.091   4.365  1.0120  0.5054 -1.5683
 9290TIP3    H249362   4.502   6.221   4.401  0.1152 -0.5428  0.5709
 9291TIP3   OH249363   6.274   2.150   0.498 -0.5657 -0.3254  0.4832
 9291TIP3    H149364   6.301   2.059   0.485 -1.8808 -0.5311 -0.9524
 9291TIP3    H249365   6.325   2.199   0.434 -1.5241 -0.3587 -0.3180
 9292TIP3   OH249366   4.968   5.933  16.883 -0.4094  0.2978 -0.0456
 9292TIP3    H149367   5.049   5.984  16.894 -1.0457  1.2314  0.3054
 9292TIP3    H249368   4.927   5.935  16.969 -0.3524 -0.9741  0.0201
 9293TIP3   OH249369   2.007   1.079   4.955  0.0089  0.9862  0.2196
 9293TIP3    H149370   2.097   1.106   4.974  1.0889 -1.2971 -1.4186
 9293TIP3    H249371   1.969   1.154   4.910  1.0355  2.0353  1.0645
 9294TIP3   OH249372   1.133   0.946   4.632 -0.4010  0.3782 -0.3897
 9294TIP3    H149373   1.144   0.965   4.725  0.8993  2.2961 -0.9115
 9294TIP3    H249374   1.083   1.020   4.598  1.4962  1.0865 -1.7303
 9295TIP3   OH249375   0.352   5.562  12.119  0.1217  0.4362  0.0307
 9295TIP3    H149376   0.269   5.604  12.099 -0.1978 -0.3959 -0.4189
 9295TIP3    H249377   0.404   5.572  12.040 -0.4022 -1.0752 -0.5162
 9296TIP3   OH249378   6.601   2.114   0.017  0.6101 -0.6890  0.5982
 9296TIP3    H149379   6.695   2.099   0.010  1.0544  1.2250  2.1013
 9296TIP3    H249380   6.589   2.206  -0.005 -1.0406 -1.1157 -0.4237
 9297TIP3   OH249381   2.879   0.279   3.186 -0.0210 -0.1505 -0.5588
 9297TIP3    H149382   2.883   0.286   3.281  0.7404 -1.1751 -0.5017
 9297TIP3    H249383   2.968   0.257   3.159  0.1505  1.8316 -1.6735
 9298TIP3   OH249384   6.660   6.447   4.012  0.3183  0.6133  0.2473
 9298TIP3    H149385   6.614   6.363   4.012 -0.3419  0.9665  0.9303
 9298TIP3    H249386   6.660   6.474   3.920  0.3022 -0.0109  0.0597
 9299TIP3   OH249387   2.202   5.191   1.930 -0.1043 -0.6348 -0.2452
 9299TIP3    H149388   2.212   5.284   1.952 -2.3883 -0.6573  0.9648
 9299TIP3    H249389   2.155   5.153   2.004  0.3822 -2.6790 -0.9528
 9300TIP3   OH249390   0.057   4.020   3.811 -0.3905  0.0885 -0.7155
 9300TIP3    H149391   0.074   3.990   3.722  0.3180  2.2706 -1.3480
 9300TIP3    H249392   0.128   3.983   3.863 -1.1308 -1.6781 -0.9130
 9301TIP3   OH249393   5.217   3.496  10.457  0.1237 -0.1070  0.1364
 9301TIP3    H149394   5.164   3.496  10.377  1.3665 -2.0906 -0.7223
 9301TIP3    H249395   5.227   3.589  10.479 -0.3477  0.4546 -1.9469
 9302TIP3   OH249396   5.254   5.587   2.054  0.3569  0.7042  0.2509
 9302TIP3    H149397   5.175   5.536   2.074 -0.9525  2.4202 -0.5143
 9302TIP3    H249398   5.312   5.569   2.128 -1.2055  0.3504  1.4284
 9303TIP3   OH249399   2.044   1.385  12.112  0.3048  0.2958 -0.1851
 9303TIP3    H149400   2.046   1.322  12.184 -3.1399  0.0347 -0.2344
 9303TIP3    H249401   2.066   1.333  12.035 -0.3501 -0.3709  0.0758
 9304TIP3   OH249402   0.418   1.620  11.255 -0.5973  0.0654  0.4584
 9304TIP3    H149403   0.506   1.657  11.265 -0.8262  0.5490  0.7032
 9304TIP3    H249404   0.422   1.537  11.303 -0.7884  0.9353  2.0195
 9305TIP3   OH249405   3.535   6.294   5.742  0.4370 -0.1404 -0.1244
 9305TIP3    H149406   3.578   6.247   5.814 -0.0343  1.5089  1.2509
 9305TIP3    H249407   3.605   6.344   5.700  0.2709  0.8234  0.7383
 9306TIP3   OH249408   1.634   2.704   0.881  0.2122 -0.2417  0.1471
 9306TIP3    H149409   1.645   2.748   0.797  2.3396  1.6982  1.3661
 9306TIP3    H249410   1.719   2.663   0.898 -0.4344 -1.2413  0.9847
 9307TIP3   OH249411   6.235   3.291   2.265  0.0202 -0.2508  0.0998
 9307TIP3    H149412   6.172   3.338   2.211  0.4891  2.8456  2.1497
 9307TIP3    H249413   6.182   3.251   2.334  0.2526  3.0497  2.3149
 9308TIP3   OH249414   4.910   3.102  14.112  1.1475 -0.1297  0.4741
 9308TIP3    H149415   4.965   3.180  14.103  0.3180  0.2274 -1.9385
 9308TIP3    H249416   4.868   3.112  14.197  2.6839  0.9780  1.1315
 9309TIP3   OH249417   1.910   4.275  14.219  0.0501 -0.4985  0.0869
 9309TIP3    H149418   1.915   4.199  14.161 -1.0841 -0.6309  0.1638
 9309TIP3    H249419   1.898   4.239  14.306  0.5213 -0.2537  0.2595
 9310TIP3   OH249420   4.792   1.525  15.631 -0.2277 -1.0163  0.1128
 9310TIP3    H149421   4.833   1.468  15.696  1.3959  1.0376  0.9650
 9310TIP3    H249422   4.741   1.587  15.683  1.5695  1.0258 -0.4876
 9311TIP3   OH249423   0.409   1.908  15.899  0.2664 -1.0275 -0.2500
 9311TIP3    H149424   0.503   1.891  15.897  1.1106  2.9590  1.5088
 9311TIP3    H249425   0.393   1.952  15.982 -2.9158 -0.3916 -1.0961
 9312TIP3   OH249426   5.257   0.334  15.913  0.1937  0.1529 -0.0147
 9312TIP3    H149427   5.233   0.279  15.838  0.1181 -0.5187  0.4960
 9312TIP3    H249428   5.342   0.371  15.890 -0.5055  1.1570 -1.0846
 9313TIP3   OH249429   6.170   5.297  15.669 -0.0907  0.4713 -0.5285
 9313TIP3    H149430   6.179   5.313  15.763 -1.0672 -0.1905 -0.3181
 9313TIP3    H249431   6.158   5.384  15.631  2.7571  0.9943 -0.3421
 9314TIP3   OH249432   1.047   4.780  11.062 -0.2570  0.0206 -0.8458
 9314TIP3    H149433   0.995   4.700  11.066  0.1290 -0.1576  0.8048
 9314TIP3    H249434   1.063   4.793  10.968 -1.9466 -0.7626 -1.2685
 9315TIP3   OH249435   0.755   0.434  12.938  0.0142  0.2262  0.0950
 9315TIP3    H149436   0.702   0.492  12.992  0.9241  1.3072 -0.1644
 9315TIP3    H249437   0.699   0.413  12.863 -1.9393 -2.7037  2.2392
 9316TIP3   OH249438   1.754   0.902  14.799 -0.3927  0.4734  0.1569
 9316TIP3    H149439   1.778   0.941  14.715 -1.6100 -2.1652 -1.4740
 9316TIP3    H249440   1.658   0.911  14.803 -0.4060  0.0358  0.9648
 9317TIP3   OH249441   4.411   1.925   4.723 -0.5187  0.2869  0.4863
 9317TIP3    H149442   4.431   1.890   4.810 -0.4500 -0.4641  0.1767
 9317TIP3    H249443   4.327   1.969   4.733  0.6495  2.3780  1.5118
 9318TIP3   OH249444   2.457   2.782  16.892  0.3323 -0.1317  0.1843
 9318TIP3    H149445   2.394   2.763  16.822  1.1367  1.7637 -1.0746
 9318TIP3    H249446   2.403   2.786  16.971 -1.0100  0.4729 -0.7330
 9319TIP3   OH249447   0.286   6.764  17.134 -0.1258 -0.4086 -0.0448
 9319TIP3    H149448   0.191   6.751  17.137 -0.2461  0.3420 -0.5855
 9319TIP3    H249449   0.315   6.717  17.056  0.1729 -1.9751  0.9762
 9320TIP3   OH249450   1.629   2.677   4.239 -0.1062 -0.3678 -0.5068
 9320TIP3    H149451   1.539   2.644   4.243  0.2677 -1.8479 -2.7475
 9320TIP3    H249452   1.625   2.750   4.177  0.3566 -0.9499 -1.2322
 9321TIP3   OH249453   2.368   2.947  16.529  0.1221  0.4450 -0.7016
 9321TIP3    H149454   2.373   2.870  16.585  0.9949  0.2774 -0.9977
 9321TIP3    H249455   2.276   2.952  16.503 -0.3895  0.8051  1.1271
 9322TIP3   OH249456   4.018   0.172  13.797 -0.4089 -0.4463 -0.1174
 9322TIP3    H149457   3.972   0.230  13.736 -0.3477 -1.4242 -1.1003
 9322TIP3    H249458   4.029   0.225  13.876  0.8348  1.3515 -1.4612
 9323TIP3   OH249459   0.775   1.134   3.889  0.1174  0.6030 -0.2023
 9323TIP3    H149460   0.864   1.113   3.915  0.1985  1.0176 -0.1437
 9323TIP3    H249461   0.753   1.067   3.824  0.8673  1.1518 -1.0279
 9324TIP3   OH249462   6.232   1.624  17.241  0.2934 -0.2343  0.0935
 9324TIP3    H149463   6.276   1.554  17.290  0.5997  1.3373  2.1476
 9324TIP3    H249464   6.159   1.650  17.297  0.1658  1.0620 -0.6536
 9325TIP3   OH249465   0.026   0.796  16.453  0.1037  0.2339 -0.3488
 9325TIP3    H149466   0.101   0.736  16.440 -0.6270 -0.3837 -1.8112
 9325TIP3    H249467   0.047   0.872  16.399  0.9358  1.2319  1.3562
 9326TIP3   OH249468   6.434   2.430   4.972 -0.3643  0.2703 -0.1607
 9326TIP3    H149469   6.521   2.406   4.941 -1.3975 -2.2905 -1.3196
 9326TIP3    H249470   6.378   2.418   4.895 -1.4931  3.5851  0.0883
 9327TIP3   OH249471   1.443   4.590   2.436  0.8980  0.6852 -0.2323
 9327TIP3    H149472   1.461   4.514   2.490  1.6436 -0.4112 -1.9759
 9327TIP3    H249473   1.512   4.653   2.459  2.0127 -0.2880 -0.8547
 9328TIP3   OH249474   5.393   3.874  13.525  0.0352  0.0421 -0.4946
 9328TIP3    H149475   5.331   3.885  13.453 -0.2100 -2.2451 -0.6789
 9328TIP3    H249476   5.388   3.781  13.546  1.0394  0.4499  1.6494
 9329TIP3   OH249477   6.654   3.145   1.276 -0.5125 -0.1464  0.1668
 9329TIP3    H149478   6.578   3.090   1.258 -0.3297 -0.2118 -0.3970
 9329TIP3    H249479   6.729   3.086   1.271 -0.0571  0.5857 -2.8826
 9330TIP3   OH249480   4.300   0.053  14.744  0.0574  0.3124 -0.2674
 9330TIP3    H149481   4.259   0.072  14.660 -1.9185  0.4891  0.7194
 9330TIP3    H249482   4.308  -0.043  14.746 -0.5411  0.2604 -0.3608
 9331TIP3   OH249483   0.954   1.601   5.896 -0.0293  0.4392 -0.0191
 9331TIP3    H149484   1.012   1.541   5.849  0.7665  0.8946  0.3628
 9331TIP3    H249485   0.978   1.590   5.988 -1.1962 -0.0406  0.2334
 9332TIP3   OH249486   1.739   4.573  11.800  0.4936  0.2742 -0.4333
 9332TIP3    H149487   1.802   4.624  11.749  0.0636  1.4174  0.1589
 9332TIP3    H249488   1.689   4.639  11.848  0.7575 -0.7635  1.3077
 9333TIP3   OH249489   3.545   2.474   5.324 -0.4113  0.5259  0.0896
 9333TIP3    H149490   3.625   2.448   5.278  0.1533  0.1616  1.2715
 9333TIP3    H249491   3.575   2.510   5.407 -1.5443 -1.3029  1.3349
 9334TIP3   OH249492   2.441   5.370   2.933  0.2483 -0.1712 -0.0332
 9334TIP3    H149493   2.523   5.396   2.893 -0.0877 -1.2681 -1.4536
 9334TIP3    H249494   2.384   5.348   2.860  0.3850 -4.5255  1.0107
 9335TIP3   OH249495   5.931   1.083  11.031  0.0737  0.0760  0.3795
 9335TIP3    H149496   6.022   1.052  11.025 -0.2109 -0.8792  0.8983
 9335TIP3    H249497   5.930   1.164  10.980  0.9379 -0.5567 -0.6795
 9336TIP3   OH249498   2.148   2.413  15.306  0.1636  0.0149  0.3049
 9336TIP3    H149499   2.167   2.447  15.394  0.8194  2.6143 -0.8121
 9336TIP3    H249500   2.057   2.438  15.291  0.7450  1.5990 -0.6485
 9337TIP3   OH249501   0.231   3.330   5.134 -0.2865 -0.2773 -0.4502
 9337TIP3    H149502   0.200   3.303   5.220  0.3244  1.6271  0.4010
 9337TIP3    H249503   0.179   3.407   5.113  0.2473 -0.1581 -1.3517
 9338TIP3   OH249504   5.352   1.439  11.920 -0.5438 -0.0351  0.2500
 9338TIP3    H149505   5.318   1.525  11.898 -0.3606 -0.2339 -0.8311
 9338TIP3    H249506   5.385   1.404  11.837  1.9312  0.0060  1.1719
 9339TIP3   OH249507   1.962   3.457   1.962 -0.1599 -0.1550  0.0298
 9339TIP3    H149508   2.007   3.534   1.998  1.4446  0.0279 -2.3095
 9339TIP3    H249509   1.869   3.476   1.977  0.3369  1.0073  1.8804
 9340TIP3   OH249510   4.570   6.611  12.149 -0.1852  0.0815  0.5155
 9340TIP3    H149511   4.523   6.681  12.193  0.8054  0.3080  1.2433
 9340TIP3    H249512   4.593   6.647  12.063 -0.0602  0.4934  0.7203
 9341TIP3   OH249513   4.175   0.976  13.155  0.4185  0.2525  0.2265
 9341TIP3    H149514   4.182   0.964  13.060  2.1592 -0.2830  0.4107
 9341TIP3    H249515   4.157   0.888  13.189 -0.2798  0.4576  0.3812
 9342TIP3   OH249516   3.397   4.481  16.675  0.2128  0.2628 -0.0785
 9342TIP3    H149517   3.381   4.394  16.711 -0.0500 -0.1034 -1.0646
 9342TIP3    H249518   3.492   4.486  16.667  0.3020  0.5193  1.0729
 9343TIP3   OH249519   6.585   2.818  11.711 -0.2087 -0.3059  0.1486
 9343TIP3    H149520   6.590   2.822  11.616 -0.7873 -1.1450  0.0685
 9343TIP3    H249521   6.607   2.906  11.741 -0.1402 -0.0098 -0.7693
 9344TIP3   OH249522   1.881   0.730   0.966  0.4143  0.0144 -0.3540
 9344TIP3    H149523   1.805   0.746   1.022  1.0840  1.2821  0.2370
 9344TIP3    H249524   1.902   0.638   0.979 -0.6051 -0.1680  0.0100
 9345TIP3   OH249525   5.726   4.601   0.272 -0.2236 -0.2341 -0.4596
 9345TIP3    H149526   5.720   4.690   0.307 -1.3660 -0.4579 -0.0546
 9345TIP3    H249527   5.724   4.612   0.177 -0.7295  0.1555 -0.4069
 9346TIP3   OH249528   0.422   0.405  11.597 -0.3673  0.5018  0.1158
 9346TIP3    H149529   0.426   0.393  11.502 -1.0646 -0.3979  0.1964
 9346TIP3    H249530   0.481   0.478  11.614  1.9330 -1.1216 -0.6914
 9347TIP3   OH249531   2.569   6.385   5.666  0.3871 -0.5740 -0.3769
 9347TIP3    H149532   2.607   6.470   5.645 -0.7060  0.1369  0.4641
 9347TIP3    H249533   2.487   6.382   5.616  0.8385 -1.5025 -1.0803
 9348TIP3   OH249534   0.250   3.584  14.697 -0.1567  1.2374 -0.0759
 9348TIP3    H149535   0.215   3.519  14.758  0.1528  1.6407  0.5297
 9348TIP3    H249536   0.341   3.557  14.683 -0.5656  0.4270 -1.3323
 9349TIP3   OH249537   5.625   6.731  11.870  0.3887 -0.0251 -0.1919
 9349TIP3    H149538   5.679   6.745  11.947 -0.2838 -0.2614  0.3313
 9349TIP3    H249539   5.612   6.818  11.833  0.7550  0.0807 -0.0649
 9350TIP3   OH249540   4.449   3.688   4.403 -0.9977  0.3537 -0.6583
 9350TIP3    H149541   4.484   3.751   4.341 -0.5920 -1.1640 -2.0121
 9350TIP3    H249542   4.355   3.707   4.406 -0.9304  0.8103 -1.2975
 9351TIP3   OH249543   2.017   0.205   4.423 -0.1976  0.5033  0.1996
 9351TIP3    H149544   1.957   0.157   4.366 -0.9877 -0.5701  1.8711
 9351TIP3    H249545   1.959   0.249   4.485  0.6851  0.7081  0.8825
 9352TIP3   OH249546   3.715   4.720   5.626  0.0204  0.4269 -0.8934
 9352TIP3    H149547   3.726   4.660   5.700 -1.3251 -0.0277 -1.0446
 9352TIP3    H249548   3.755   4.802   5.655 -0.1722  0.1454  0.1902
 9353TIP3   OH249549   3.461   0.997  12.045  0.2498 -0.0927 -0.2094
 9353TIP3    H149550   3.445   1.025  12.135  1.0855  0.7788 -0.3218
 9353TIP3    H249551   3.508   0.914  12.053  0.5929  0.1361  0.1726
 9354TIP3   OH249552   2.337   5.609  11.328 -0.2509  0.8322  0.0255
 9354TIP3    H149553   2.313   5.541  11.392  0.1947 -0.2237 -0.9007
 9354TIP3    H249554   2.254   5.651  11.306 -0.5096  0.7162  0.7574
 9355TIP3   OH249555   6.207   1.138  12.791  0.1677  0.4500  0.0597
 9355TIP3    H149556   6.231   1.049  12.764 -0.6098  0.0266  0.7278
 9355TIP3    H249557   6.236   1.193  12.719  1.3474 -0.2576 -0.0247
 9356TIP3   OH249558   3.095   4.761   4.033 -0.2647 -0.4566  0.1119
 9356TIP3    H149559   3.064   4.845   4.069  2.6424 -0.1790  2.1400
 9356TIP3    H249560   3.181   4.782   3.997 -0.4640 -2.1457 -1.3966
 9357TIP3   OH249561   4.793   0.553   5.639 -0.3458  0.6387  0.1890
 9357TIP3    H149562   4.770   0.503   5.717  0.2429  0.2264  0.0986
 9357TIP3    H249563   4.864   0.503   5.598  0.9873  2.0752  0.6765
 9358TIP3   OH249564   4.235   0.407   3.294 -0.1487 -0.1556 -0.1640
 9358TIP3    H149565   4.292   0.470   3.249  0.6679 -1.9719 -1.7566
 9358TIP3    H249566   4.251   0.423   3.387 -1.2238  3.1089 -0.4953
 9359TIP3   OH249567   2.649   5.275   5.865  0.1342 -0.4288  0.9982
 9359TIP3    H149568   2.703   5.276   5.785 -0.7994  1.3065  0.3628
 9359TIP3    H249569   2.694   5.335   5.924 -1.4914  1.6439  0.1763
 9360TIP3   OH249570   3.203   0.755   1.486 -0.7593  0.5490 -0.3368
 9360TIP3    H149571   3.160   0.831   1.526 -0.5484 -0.3047  1.5656
 9360TIP3    H249572   3.230   0.701   1.560  0.7048 -0.5159 -1.6133
 9361TIP3   OH249573   5.890   5.168   2.114 -0.1287 -0.1003  0.5431
 9361TIP3    H149574   5.916   5.088   2.160 -2.5581 -2.9955 -2.8940
 9361TIP3    H249575   5.966   5.192   2.062 -0.0280 -1.3172  0.1142
 9362TIP3   OH249576   6.524   2.502  12.144  0.1153 -0.2376 -0.0878
 9362TIP3    H149577   6.430   2.509  12.163 -0.1472  2.0531 -1.9666
 9362TIP3    H249578   6.541   2.575  12.084  2.9286 -1.1584 -0.4463
 9363TIP3   OH249579   4.722   1.491   1.368 -0.2146 -0.6194  0.3123
 9363TIP3    H149580   4.765   1.427   1.426  1.9787  0.0810 -0.5263
 9363TIP3    H249581   4.754   1.576   1.398 -2.6369  0.0801  1.0069
 9364TIP3   OH249582   1.395   3.223   0.192  0.6860 -0.2632 -0.6340
 9364TIP3    H149583   1.342   3.159   0.144 -2.0043  0.2040  1.6013
 9364TIP3    H249584   1.372   3.307   0.153 -0.5042 -0.0255  0.5540
 9365TIP3   OH249585   3.485   2.844  15.270  0.5506  0.0042  0.0153
 9365TIP3    H149586   3.425   2.901  15.222 -1.9073 -3.2747 -0.9723
 9365TIP3    H249587   3.567   2.849  15.222 -0.4760  0.4884 -1.7321
 9366TIP3   OH249588   3.119   3.628  13.223  0.0123  0.3252 -0.0971
 9366TIP3    H149589   3.126   3.534  13.210 -0.9507  0.0620  1.2073
 9366TIP3    H249590   3.146   3.666  13.139 -2.1896 -1.1793 -1.5378
 9367TIP3   OH249591   3.803   4.062  14.460  0.2682 -0.0263 -0.0417
 9367TIP3    H149592   3.843   4.148  14.466  2.3455 -1.0761  1.8131
 9367TIP3    H249593   3.709   4.078  14.474  0.5495  1.9852 -0.3669
 9368TIP3   OH249594   5.917   0.685  15.859 -0.5964  0.1105  0.8801
 9368TIP3    H149595   5.898   0.765  15.810  0.3615  1.1417  2.1232
 9368TIP3    H249596   5.952   0.624  15.794  0.1152  1.2531  0.1744
 9369TIP3   OH249597   2.710   2.160   3.456  0.6267 -0.2608  0.1468
 9369TIP3    H149598   2.797   2.193   3.432  0.4487 -0.0369 -0.1845
 9369TIP3    H249599   2.728   2.078   3.502  1.0025 -0.3227 -0.1084
 9370TIP3   OH249600   2.052   4.511   4.062  0.1752 -0.0288  0.7923
 9370TIP3    H149601   1.970   4.489   4.106 -0.2569  1.3130  0.6952
 9370TIP3    H249602   2.089   4.582   4.114  1.0097 -0.2602  0.5221
 9371TIP3   OH249603   3.376   3.966   4.992 -0.1482 -0.3495 -0.0138
 9371TIP3    H149604   3.297   3.994   5.038  0.1448  0.1657  0.1859
 9371TIP3    H249605   3.374   3.871   4.996 -1.2055 -0.3671 -0.7670
 9372TIP3   OH249606   3.555   4.781   2.414  0.4580 -0.1128  0.2923
 9372TIP3    H149607   3.533   4.715   2.348 -1.1458 -0.4454  1.1315
 9372TIP3    H249608   3.475   4.831   2.427  0.9153  0.3382  1.5369
 9373TIP3   OH249609   5.737   3.058  11.881  0.1211 -0.1883  0.0446
 9373TIP3    H149610   5.751   3.096  11.794  2.1769 -0.5110  0.2113
 9373TIP3    H249611   5.643   3.063  11.893 -0.2120 -0.1307 -2.2060
 9374TIP3   OH249612   1.671   5.144  12.634  0.0166 -0.2523  0.4410
 9374TIP3    H149613   1.688   5.192  12.553  1.9034  0.4343  1.2193
 9374TIP3    H249614   1.621   5.204  12.688 -2.7828 -1.3382 -0.8457
 9375TIP3   OH249615   2.004   1.647  14.842 -0.2841  0.1709 -0.1705
 9375TIP3    H149616   2.095   1.648  14.813  0.0027 -1.6889  0.6042
 9375TIP3    H249617   1.983   1.555  14.852 -1.6238  0.6507  1.6704
 9376TIP3   OH249618   0.459   1.310  13.780 -0.0593  0.3613 -0.2153
 9376TIP3    H149619   0.459   1.306  13.684  0.7674  1.5307 -0.2784
 9376TIP3    H249620   0.385   1.368  13.801 -1.5422 -1.5614 -0.0474
 9377TIP3   OH249621   4.004   1.652  12.348  0.7154 -0.2317  0.3635
 9377TIP3    H149622   3.999   1.747  12.351  0.3528 -0.2253 -0.2633
 9377TIP3    H249623   3.914   1.623  12.329  0.9023 -0.6689  0.1203
 9378TIP3   OH249624   5.015   3.395   5.596 -0.0061  0.1749 -0.1654
 9378TIP3    H149625   4.961   3.434   5.528  1.8249 -0.1686 -1.8894
 9378TIP3    H249626   5.021   3.302   5.572  2.3138  0.4289 -0.7232
 9379TIP3   OH249627   1.145   1.036  15.790  0.1618 -0.2137  0.0845
 9379TIP3    H149628   1.206   1.077  15.851  0.7050  1.5035 -1.5759
 9379TIP3    H249629   1.092   1.109  15.757 -2.6142 -1.6216  1.2820
 9380TIP3   OH249630   0.014   2.800  16.256 -0.5773  0.1522 -0.3246
 9380TIP3    H149631   0.006   2.885  16.214  0.3413  0.6750  0.5461
 9380TIP3    H249632   0.086   2.810  16.318 -0.9696 -1.0221  0.3451
 9381TIP3   OH249633   2.136   6.502   4.336  0.1410 -0.0363 -0.0822
 9381TIP3    H149634   2.188   6.567   4.289  0.5658  0.0943  0.5598
 9381TIP3    H249635   2.116   6.435   4.271 -1.5727  1.4582 -1.1435
 9382TIP3   OH249636   1.787   5.041   1.459 -0.0278  0.3393  0.2062
 9382TIP3    H149637   1.778   5.136   1.465 -0.3551  0.3803 -0.8561
 9382TIP3    H249638   1.880   5.026   1.442 -0.3663  0.6064 -2.0187
 9383TIP3   OH249639   6.205   2.982  11.736  0.1353 -0.2214  0.7633
 9383TIP3    H149640   6.114   2.970  11.761 -0.6091  1.9291 -0.7125
 9383TIP3    H249641   6.237   3.054  11.790  0.1884  0.6830 -0.4325
 9384TIP3   OH249642   3.292   0.297  14.125 -1.0671 -0.2807 -0.2631
 9384TIP3    H149643   3.250   0.267  14.045 -1.3949 -2.3544  0.6511
 9384TIP3    H249644   3.228   0.280  14.194 -0.2589  0.2026  0.6245
 9385TIP3   OH249645   4.482   4.835   6.103  0.0127 -0.4139 -0.3974
 9385TIP3    H149646   4.441   4.920   6.086  1.6862  0.2108 -1.4697
 9385TIP3    H249647   4.540   4.851   6.178 -0.9034 -1.0394  0.4630
 9386TIP3   OH249648   6.215   2.009  13.661  0.1617  0.4052 -0.4710
 9386TIP3    H149649   6.153   2.078  13.637  1.0523  2.1493  1.9598
 9386TIP3    H249650   6.300   2.044  13.634  0.4221 -0.5891 -0.9340
 9387TIP3   OH249651   1.972   5.975  15.707  0.2593  0.1631  0.1607
 9387TIP3    H149652   1.897   6.003  15.653  1.3850  0.9825 -0.9992
 9387TIP3    H249653   2.005   5.897  15.663 -1.4558 -1.7201  2.1091
 9388TIP3   OH249654   2.335   1.618  15.947  0.1141 -0.1097  0.0084
 9388TIP3    H149655   2.298   1.598  16.033  1.7253  0.3263  0.8263
 9388TIP3    H249656   2.346   1.533  15.905 -0.3677 -0.3462  0.3552
 9389TIP3   OH249657   3.005   5.905  15.876 -0.1685 -0.1654 -0.6853
 9389TIP3    H149658   2.917   5.869  15.887 -0.2576 -0.2422 -1.5917
 9389TIP3    H249659   2.999   5.994  15.911 -0.2905 -0.5739  0.3386
 9390TIP3   OH249660   2.038   3.116  13.819 -0.1999 -0.4128  0.4793
 9390TIP3    H149661   1.954   3.107  13.864 -0.0889 -0.2409  0.7198
 9390TIP3    H249662   2.065   3.206  13.836  0.4027 -0.6932  1.0447
 9391TIP3   OH249663   4.777   1.174  16.452  0.0038 -0.1569  0.1136
 9391TIP3    H149664   4.841   1.170  16.524  1.2215  0.3521 -0.9289
 9391TIP3    H249665   4.829   1.158  16.373 -1.2681 -0.3350 -0.6958
 9392TIP3   OH249666   2.332   6.196  16.505  0.0464 -0.1930 -0.0539
 9392TIP3    H149667   2.288   6.281  16.504 -0.4536 -0.4533 -0.4194
 9392TIP3    H249668   2.418   6.213  16.544 -0.0912  0.4603 -0.0402
 9393TIP3   OH249669   4.048   2.767  12.664  0.2268  0.2970 -0.0297
 9393TIP3    H149670   4.080   2.678  12.649 -1.3364 -0.7563  2.6041
 9393TIP3    H249671   4.099   2.821  12.604  0.6315 -2.4608 -2.2830
 9394TIP3   OH249672   5.295   4.080   2.198  0.4675  0.2015 -0.0569
 9394TIP3    H149673   5.285   4.167   2.160 -1.3662  0.1036  0.1564
 9394TIP3    H249674   5.279   4.093   2.292 -0.3844 -0.4352 -0.1011
 9395TIP3   OH249675   2.685   6.643  13.438 -0.0911 -0.8618 -0.1697
 9395TIP3    H149676   2.769   6.677  13.469 -1.0321  0.9647  0.4284
 9395TIP3    H249677   2.701   6.621  13.346  0.2725  2.3001 -0.9253
 9396TIP3   OH249678   1.052   5.259   0.305 -0.2399 -1.0886  0.0742
 9396TIP3    H149679   0.989   5.188   0.316 -1.3535 -0.2404 -0.7994
 9396TIP3    H249680   1.129   5.230   0.354 -1.6372 -1.6981  1.9600
 9397TIP3   OH249681   5.754   5.024  13.431 -0.5494  0.1994  0.1866
 9397TIP3    H149682   5.837   5.002  13.390 -0.1893 -0.4326  1.2289
 9397TIP3    H249683   5.689   5.015  13.362  0.1927  0.2817 -0.5252
 9398TIP3   OH249684   5.756   1.733   5.064  1.0362  0.2914  0.1021
 9398TIP3    H149685   5.767   1.743   4.970  1.4028 -2.1274 -0.1523
 9398TIP3    H249686   5.667   1.762   5.081  1.0662  1.0251 -0.9349
 9399TIP3   OH249687   1.488   6.472  12.939 -0.0921 -0.1127 -0.0968
 9399TIP3    H149688   1.469   6.417  12.862  0.0777  1.7033 -1.4624
 9399TIP3    H249689   1.402   6.500  12.970 -0.1039  0.2917 -0.4856
 9400TIP3   OH249690   3.938   0.600   3.459 -0.3075  0.0797  0.2999
 9400TIP3    H149691   4.030   0.610   3.434 -1.0102  1.5466 -1.8086
 9400TIP3    H249692   3.915   0.511   3.432  0.7890 -0.7508  1.9662
 9401TIP3   OH249693   1.206   6.397  15.806 -0.8865 -0.1957 -0.6693
 9401TIP3    H149694   1.184   6.421  15.716 -1.2955 -1.4858 -0.9111
 9401TIP3    H249695   1.207   6.302  15.807  2.1965 -0.2391 -0.0713
 9402TIP3   OH249696   3.942   4.848  15.893  0.6814 -0.3186  0.8225
 9402TIP3    H149697   3.915   4.934  15.925 -1.6062 -0.8167  0.3341
 9402TIP3    H249698   4.004   4.815  15.959  1.0950  1.4146  1.3187
 9403TIP3   OH249699   4.022   4.249  10.686 -0.2960  0.1718 -0.0283
 9403TIP3    H149700   4.095   4.269  10.628 -0.1729  0.5830  0.2659
 9403TIP3    H249701   3.965   4.325  10.682  0.0457  0.4824  0.8940
 9404TIP3   OH249702   6.570   6.524  11.007 -0.3416  0.1546 -0.0854
 9404TIP3    H149703   6.516   6.445  11.003  1.2601 -0.9032 -1.4042
 9404TIP3    H249704   6.647   6.503  10.954 -0.8737  3.3756 -2.2551
 9405TIP3   OH249705   5.506   3.665   1.150  0.2783 -0.7996  0.2306
 9405TIP3    H149706   5.449   3.736   1.178  0.1066 -1.4393  1.5599
 9405TIP3    H249707   5.571   3.706   1.093 -1.0130  0.0762 -0.6198
 9406TIP3   OH249708   1.771   6.662   2.466  1.0767  0.1265 -0.7521
 9406TIP3    H149709   1.682   6.677   2.495  0.3857 -0.4655 -2.5050
 9406TIP3    H249710   1.826   6.703   2.532 -0.5089  1.0399 -0.0023
 9407TIP3   OH249711   4.479   4.511  15.082  0.5854  0.0277  0.0506
 9407TIP3    H149712   4.495   4.601  15.053 -0.5147  0.4204  0.6227
 9407TIP3    H249713   4.545   4.496  15.150 -0.2387  0.9856  1.0927
 9408TIP3   OH249714   3.938   4.910  16.923  0.2267 -0.6083 -0.3506
 9408TIP3    H149715   3.951   4.819  16.950  0.7014 -0.3979  0.1447
 9408TIP3    H249716   3.915   4.956  17.004 -0.6262 -0.3947 -0.7003
 9409TIP3   OH249717   2.770   4.102  16.588  0.2451  0.1651 -0.1711
 9409TIP3    H149718   2.817   4.062  16.515 -1.7401 -0.4078 -1.1773
 9409TIP3    H249719   2.693   4.046  16.600 -0.7174  1.6471  0.7661
 9410TIP3   OH249720   4.649   0.528  12.196  0.1153 -0.0996  0.3847
 9410TIP3    H149721   4.598   0.580  12.258 -0.5305  1.9199 -1.7784
 9410TIP3    H249722   4.585   0.495  12.134  0.9999 -0.3829 -0.3818
 9411TIP3   OH249723   2.570   1.700  16.827  0.0940 -0.4390 -0.1779
 9411TIP3    H149724   2.480   1.733  16.827 -0.2777 -1.3006 -2.8603
 9411TIP3    H249725   2.561   1.607  16.850  0.3035 -0.4950 -0.3246
 9412TIP3   OH249726   3.307   4.380  12.523  0.0072  0.5445 -0.2793
 9412TIP3    H149727   3.341   4.394  12.435  1.3779 -0.6617  0.0381
 9412TIP3    H249728   3.263   4.295  12.518  1.5674 -0.3423  0.6036
 9413TIP3   OH249729   5.013   2.808  15.585 -0.0632  0.5513  0.0217
 9413TIP3    H149730   4.958   2.786  15.510 -1.0106  0.4892  0.7264
 9413TIP3    H249731   5.102   2.815  15.548 -0.0635 -2.2491 -0.6384
 9414TIP3   OH249732   3.646   6.706  12.777 -0.1326 -0.5956 -0.3085
 9414TIP3    H149733   3.656   6.691  12.871 -0.3192  0.6025 -0.0874
 9414TIP3    H249734   3.714   6.770  12.755 -0.3326 -0.5834 -0.9163
 9415TIP3   OH249735   3.058   5.258   4.784  0.0953  0.5192 -0.1215
 9415TIP3    H149736   3.116   5.193   4.825  0.1507 -0.3934 -1.6001
 9415TIP3    H249737   3.104   5.284   4.704 -1.1447  0.3922 -0.8924
 9416TIP3   OH249738   1.659   2.092   2.552 -0.0289  0.2193 -0.3603
 9416TIP3    H149739   1.607   2.088   2.632 -0.6042 -1.7601 -0.8249
 9416TIP3    H249740   1.664   2.186   2.532 -0.6963  0.6627  1.4424
 9417TIP3   OH249741   4.313   1.817  11.936 -0.0765 -0.1554 -0.5890
 9417TIP3    H149742   4.258   1.740  11.922  1.7429 -1.8054  1.0343
 9417TIP3    H249743   4.330   1.817  12.030 -1.3609  3.1734 -0.3075
 9418TIP3   OH249744   4.007   5.601  12.811 -0.3050  0.7446 -0.2622
 9418TIP3    H149745   4.065   5.563  12.877 -1.1906  1.6674  1.0697
 9418TIP3    H249746   4.064   5.618  12.736  0.3454 -1.9652 -0.4034
 9419TIP3   OH249747   3.228   0.361   6.786 -0.2809  0.0583 -0.0731
 9419TIP3    H149748   3.178   0.359   6.704  0.9858  1.4224 -0.9116
 9419TIP3    H249749   3.187   0.295   6.841 -2.6155  0.6922 -0.9730
 9420TIP3   OH249750   5.694   1.072   0.121 -0.6254  1.0577 -0.1538
 9420TIP3    H149751   5.698   1.064   0.025 -1.0711  1.9066 -0.2533
 9420TIP3    H249752   5.644   0.995   0.149  0.0348  0.4830 -0.5507
 9421TIP3   OH249753   2.539   0.965   2.739 -0.1820 -0.0787 -0.4236
 9421TIP3    H149754   2.548   1.036   2.676  1.2758  0.2566  0.1446
 9421TIP3    H249755   2.455   0.982   2.783  0.0122  1.1171 -0.5068
 9422TIP3   OH249756   4.714   5.861   4.506 -0.1546  0.4747 -0.1188
 9422TIP3    H149757   4.640   5.886   4.451  0.1033  0.0971 -0.6311
 9422TIP3    H249758   4.790   5.895   4.460 -0.1185  2.2235  1.1704
 9423TIP3   OH249759   6.332   2.294  11.213 -0.1533  0.4095  0.3629
 9423TIP3    H149760   6.268   2.308  11.143 -0.5676  1.7309  0.9911
 9423TIP3    H249761   6.389   2.224  11.180 -1.2021  0.0438 -0.6913
 9424TIP3   OH249762   6.172   6.499   6.421 -0.3562  0.1772  0.0059
 9424TIP3    H149763   6.153   6.418   6.469 -2.0280  0.0121 -0.8705
 9424TIP3    H249764   6.085   6.536   6.403  0.2507  0.4852 -2.4235
 9425TIP3   OH249765   3.318   2.246  16.584 -0.3930 -0.4548 -0.0289
 9425TIP3    H149766   3.362   2.268  16.502 -1.3869  1.6511 -0.0058
 9425TIP3    H249767   3.316   2.150  16.584  4.3977 -0.6897  0.0928
 9426TIP3   OH249768   2.862   4.145   5.714 -0.1694 -0.0640  0.1796
 9426TIP3    H149769   2.873   4.065   5.765  0.7237  1.6016  2.6747
 9426TIP3    H249770   2.771   4.141   5.683 -0.4601 -1.5295  1.1685
 9427TIP3   OH249771   2.082   2.866   3.774  0.1098  0.0700  0.3807
 9427TIP3    H149772   2.092   2.957   3.802 -0.8439  0.1384  0.5223
 9427TIP3    H249773   2.017   2.830   3.833 -1.4462  0.0375 -1.2894
 9428TIP3   OH249774   2.445   2.081  12.149  0.3289  0.0751  0.0043
 9428TIP3    H149775   2.448   2.176  12.135 -1.2636  0.3492  1.2106
 9428TIP3    H249776   2.434   2.044  12.062  2.9843  0.8548 -0.6921
 9429TIP3   OH249777   5.591   1.446  11.230  0.2118  0.3770 -0.2235
 9429TIP3    H149778   5.557   1.450  11.140 -1.3171 -1.2840  0.2608
 9429TIP3    H249779   5.618   1.355  11.241  0.3774  0.5706  1.0157
 9430TIP3   OH249780   0.639   1.454   0.003  0.2524 -0.4669  0.1429
 9430TIP3    H149781   0.611   1.539  -0.033 -1.1813 -1.0894 -0.2481
 9430TIP3    H249782   0.685   1.412  -0.070 -0.9699 -0.9252 -0.3853
 9431TIP3   OH249783   1.868   4.408   5.547 -0.4110 -0.0806 -0.5545
 9431TIP3    H149784   1.877   4.385   5.639  1.0924 -1.0486 -0.9186
 9431TIP3    H249785   1.894   4.500   5.543 -2.7053  0.6395  0.3140
 9432TIP3   OH249786   1.516   3.703   2.208 -0.1727 -0.4775 -0.3481
 9432TIP3    H149787   1.429   3.732   2.181  0.0741  0.0009 -0.6418
 9432TIP3    H249788   1.547   3.772   2.266  0.8833  0.4354 -1.9611
 9433TIP3   OH249789   1.130   0.882  13.609 -0.0058  0.3162 -0.2375
 9433TIP3    H149790   1.091   0.885  13.521 -1.8720  1.8010  0.6289
 9433TIP3    H249791   1.223   0.901  13.594 -0.7461  3.0245 -1.6498
 9434TIP3   OH249792   6.235   5.551  17.257  0.2261 -0.4706 -0.7401
 9434TIP3    H149793   6.275   5.569  17.172 -1.7223 -0.9220 -1.7756
 9434TIP3    H249794   6.144   5.577  17.246 -0.2738 -1.4941  0.8900
 9435TIP3   OH249795   0.840   0.662  16.416  0.8953 -0.6364  0.2336
 9435TIP3    H149796   0.769   0.608  16.383 -1.1509  0.3266  2.9101
 9435TIP3    H249797   0.881   0.610  16.485 -0.5383  0.7970  2.2303
 9436TIP3   OH249798   6.761   0.489  13.182  0.0213 -0.3719  0.4544
 9436TIP3    H149799   6.838   0.466  13.233 -0.7197 -2.8978  0.4695
 9436TIP3    H249800   6.701   0.528  13.246  0.3858 -0.5023  0.8778
 9437TIP3   OH249801   2.974   4.645   1.161  0.0494  0.2701  0.4002
 9437TIP3    H149802   3.022   4.632   1.079 -1.1911  2.8837 -0.8062
 9437TIP3    H249803   2.918   4.567   1.168 -2.0638  1.3753 -2.8768
 9438TIP3   OH249804   5.498   3.279  14.989  0.2555  0.2651  0.3023
 9438TIP3    H149805   5.503   3.330  14.908 -0.8192 -0.2130 -0.0724
 9438TIP3    H249806   5.450   3.335  15.050 -2.0324 -0.7788 -0.5008
 9439TIP3   OH249807   5.634   3.303  17.162  0.5660 -0.0014 -0.6929
 9439TIP3    H149808   5.679   3.324  17.080  1.8146 -1.2393 -0.3332
 9439TIP3    H249809   5.665   3.215  17.185 -2.1781 -0.9460 -0.5231
 9440TIP3   OH249810   6.613   0.808   2.116 -0.0580  0.1533  0.6555
 9440TIP3    H149811   6.573   0.738   2.167 -3.1395  2.7751  2.0479
 9440TIP3    H249812   6.651   0.867   2.181  2.1183  0.0709 -0.4676
 9441TIP3   OH249813   6.320   0.339   4.932  0.0970 -0.4716 -0.2050
 9441TIP3    H149814   6.337   0.305   5.020 -0.7547 -0.7966 -0.1550
 9441TIP3    H249815   6.243   0.289   4.902 -1.0562  1.2737 -0.2058
 9442TIP3   OH249816   5.852   1.264  13.912  0.2684  0.1696  0.1539
 9442TIP3    H149817   5.944   1.265  13.886  0.9414  2.4633  2.3382
 9442TIP3    H249818   5.824   1.355  13.903 -1.0347 -0.0310  1.8392
 9443TIP3   OH249819   2.322   4.338  16.515  0.5142  0.2688  0.3344
 9443TIP3    H149820   2.374   4.413  16.547  1.9405 -0.5344 -0.0635
 9443TIP3    H249821   2.364   4.312  16.433 -1.0101  0.0887 -0.4176
 9444TIP3   OH249822   6.096   1.695  13.985 -0.0813 -0.3771 -0.2714
 9444TIP3    H149823   6.041   1.774  13.988  0.3275 -0.0715 -0.6818
 9444TIP3    H249824   6.110   1.680  13.891  2.5261  0.9411 -0.1320
 9445TIP3   OH249825   4.431   3.688   0.519  0.1828  0.1758  0.4624
 9445TIP3    H149826   4.400   3.727   0.437 -0.5345  1.7262  1.4491
 9445TIP3    H249827   4.525   3.675   0.505  0.0996  0.5857 -0.5488
 9446TIP3   OH249828   2.252   3.754   3.429  0.5293  0.1269 -0.2966
 9446TIP3    H149829   2.273   3.804   3.508 -1.1558  1.2863 -0.5645
 9446TIP3    H249830   2.337   3.723   3.397  1.1940 -0.8305  2.2673
 9447TIP3   OH249831   2.334   3.057   0.166  0.1234 -0.0546  0.2131
 9447TIP3    H149832   2.360   3.147   0.186  2.3088 -0.9332  1.4349
 9447TIP3    H249833   2.298   3.024   0.249  0.6750 -0.7687  0.1709
 9448TIP3   OH249834   0.598   2.296  10.952 -0.2524 -0.2009 -0.3456
 9448TIP3    H149835   0.506   2.298  10.977 -0.2374  0.7502 -0.3218
 9448TIP3    H249836   0.607   2.217  10.899 -0.9188 -0.6847  0.2547
 9449TIP3   OH249837   3.280   6.563   5.376 -0.1405  0.0228 -0.0114
 9449TIP3    H149838   3.375   6.569   5.385 -0.2428  1.6092  0.1347
 9449TIP3    H249839   3.246   6.622   5.443 -1.1530  1.6943 -1.9340
 9450TIP3   OH249840   2.866   0.746   2.615  0.0571  0.5011  0.6666
 9450TIP3    H149841   2.797   0.705   2.667  0.0084 -1.4117 -0.8449
 9450TIP3    H249842   2.945   0.736   2.668 -0.4804  0.9931  1.5642
 9451TIP3   OH249843   3.448   2.362  16.372 -0.2820  0.2208  0.8196
 9451TIP3    H149844   3.379   2.400  16.318 -0.4128  1.8480  2.0747
 9451TIP3    H249845   3.509   2.435  16.388 -0.3516 -0.1480  2.9853
 9452TIP3   OH249846   5.610   5.773   5.656  0.0369  0.3481  0.1525
 9452TIP3    H149847   5.697   5.769   5.616 -0.6022 -0.4144 -1.1801
 9452TIP3    H249848   5.622   5.733   5.742  0.7661 -0.8665 -0.4961
 9453TIP3   OH249849   2.724   2.895  17.206 -0.0285 -0.2456  0.2745
 9453TIP3    H149850   2.673   2.969  17.240  0.5587 -0.1920  1.0323
 9453TIP3    H249851   2.660   2.824  17.200 -0.1904 -0.1927  1.2640
 9454TIP3   OH249852   4.501   6.276   3.855  0.0878 -0.2983 -1.0898
 9454TIP3    H149853   4.419   6.236   3.828 -0.5601  0.0412  0.3697
 9454TIP3    H249854   4.496   6.366   3.823 -1.7328  0.8361  2.1733
 9455TIP3   OH249855   0.440   6.509   1.500  0.3665 -0.3130  0.5324
 9455TIP3    H149856   0.426   6.501   1.405  0.2292  0.1174  0.5146
 9455TIP3    H249857   0.414   6.424   1.535  1.1012 -0.7232  0.1064
 9456TIP3   OH249858   0.570   4.096   1.132 -0.9722  0.6409  0.2496
 9456TIP3    H149859   0.661   4.117   1.150 -0.5138 -1.7754  0.9233
 9456TIP3    H249860   0.520   4.154   1.191  0.1548  1.0270  0.8414
 9457TIP3   OH249861   4.365   0.549  11.519 -0.4435  0.4059 -0.7979
 9457TIP3    H149862   4.290   0.540  11.459 -0.4105 -0.3164 -0.7385
 9457TIP3    H249863   4.359   0.638  11.552 -2.1566 -0.1233  0.3738
 9458TIP3   OH249864   3.671   5.667   1.209  0.2633  0.6892 -0.8486
 9458TIP3    H149865   3.626   5.699   1.131  1.0318  0.8909 -1.2127
 9458TIP3    H249866   3.763   5.660   1.183  0.1916 -1.3750 -0.6412
 9459TIP3   OH249867   2.550   2.984  11.827 -0.1704 -0.4965 -0.2062
 9459TIP3    H149868   2.490   2.931  11.878 -0.0246 -0.2906  0.1773
 9459TIP3    H249869   2.622   2.925  11.806  0.5256 -0.1465  1.1599
 9460TIP3   OH249870   3.994   4.877  14.284 -0.4729  0.8460  0.1559
 9460TIP3    H149871   4.005   4.925  14.202  0.1735 -0.1270 -0.3443
 9460TIP3    H249872   4.014   4.786  14.261 -0.5772  0.5193  1.3258
 9461TIP3   OH249873   3.325   3.980  13.630 -0.6455  0.2366  0.0154
 9461TIP3    H149874   3.230   3.974  13.625 -0.6718 -0.1047  0.8377
 9461TIP3    H249875   3.355   3.972  13.540 -1.1103 -4.8615  0.2004
 9462TIP3   OH249876   5.731   3.372   0.519 -0.1126 -0.8795  0.8700
 9462TIP3    H149877   5.734   3.345   0.611 -3.1659 -0.4121  1.1369
 9462TIP3    H249878   5.664   3.440   0.516  1.5140  0.6960 -1.3397
 9463TIP3   OH249879   2.697   0.909  12.969  0.0029  0.2035 -0.2223
 9463TIP3    H149880   2.641   0.853  13.022 -2.2021  1.3161 -1.3231
 9463TIP3    H249881   2.709   0.988  13.021  1.4197 -0.4161  0.4375
 9464TIP3   OH249882   6.107   3.355  10.606 -0.7413 -0.1942  0.3064
 9464TIP3    H149883   6.078   3.382  10.518 -3.0625  0.7978  1.3469
 9464TIP3    H249884   6.066   3.269  10.619  1.9685 -1.6887 -0.7039
 9465TIP3   OH249885   6.198   3.970   4.501  0.4416 -0.3681  0.2073
 9465TIP3    H149886   6.258   3.987   4.573  1.3101 -2.2704 -0.0592
 9465TIP3    H249887   6.118   3.939   4.542  0.9115 -1.3810  0.3599
 9466TIP3   OH249888   5.755   3.442  11.233 -0.1412 -0.0910  0.0049
 9466TIP3    H149889   5.814   3.517  11.223  0.7348 -0.7170  0.4185
 9466TIP3    H249890   5.811   3.372  11.267 -1.0250 -0.8350 -0.0585
 9467TIP3   OH249891   5.408   6.466  14.261 -0.0552 -0.6134  0.3709
 9467TIP3    H149892   5.441   6.427  14.180 -1.0223 -1.2563  0.2664
 9467TIP3    H249893   5.456   6.548  14.270 -0.2853 -0.2882 -1.1273
 9468TIP3   OH249894   4.496   1.996   3.211  0.3796 -1.0804 -0.0320
 9468TIP3    H149895   4.559   1.929   3.183  1.8672  0.4638 -0.4301
 9468TIP3    H249896   4.532   2.030   3.293  0.5493  0.4591 -0.7344
 9469TIP3   OH249897   5.173   6.658  13.289  0.0309 -0.0753  0.1074
 9469TIP3    H149898   5.264   6.629  13.282  0.5888  1.4038  0.9362
 9469TIP3    H249899   5.160   6.671  13.383 -0.2090  2.2033 -0.1977
 9470TIP3   OH249900   1.313   0.179  16.475 -0.3806 -0.5656 -0.0279
 9470TIP3    H149901   1.359   0.116  16.530  0.4795 -0.4020 -0.5596
 9470TIP3    H249902   1.244   0.214  16.532  0.8772  0.0408  1.1545
 9471TIP3   OH249903   6.812   4.207   5.058 -0.0538 -0.0911  0.5979
 9471TIP3    H149904   6.815   4.177   4.968  1.1804 -1.6208  1.1297
 9471TIP3    H249905   6.760   4.287   5.055 -0.0146 -0.1222 -1.4645
 9472TIP3   OH249906   3.584   4.214   3.360  0.1822 -0.3063  0.1197
 9472TIP3    H149907   3.666   4.165   3.351 -0.1699 -0.7815 -0.5381
 9472TIP3    H249908   3.577   4.264   3.279  1.1117  1.7439  1.2636
 9473TIP3   OH249909   5.792   0.919  14.817 -0.9266  0.7851  0.2893
 9473TIP3    H149910   5.719   0.889  14.764 -0.3223  1.2277 -0.8135
 9473TIP3    H249911   5.842   0.976  14.759 -0.2236  1.2355  1.3217
 9474TIP3   OH249912   3.943   4.548   1.400 -0.0813 -0.1015  0.1057
 9474TIP3    H149913   3.967   4.591   1.318  1.7160  3.2982  2.3057
 9474TIP3    H249914   3.861   4.589   1.426  0.0700 -0.1540  0.6853
 9475TIP3   OH249915   5.131   5.814  17.211 -0.2993 -0.1420  0.1582
 9475TIP3    H149916   5.151   5.732  17.256  0.2761  0.5017  1.1219
 9475TIP3    H249917   5.066   5.791  17.145 -0.3039 -1.3280  0.5668
 9476TIP3   OH249918   0.312   3.467  12.901  0.1875  0.5742  0.1138
 9476TIP3    H149919   0.356   3.458  12.816 -0.8833 -0.5703 -0.3399
 9476TIP3    H249920   0.367   3.417  12.962  1.7450  2.6064  0.4079
 9477TIP3   OH249921   3.795   3.676  14.596  0.1866  0.2907  0.4485
 9477TIP3    H149922   3.847   3.726  14.533  1.2472 -1.1354  0.1646
 9477TIP3    H249923   3.832   3.701  14.681  0.8930 -0.1959  0.2929
 9478TIP3   OH249924   0.034   0.173   2.990  0.5037  0.1409 -0.6457
 9478TIP3    H149925  -0.050   0.144   3.026  1.0199 -2.5231 -1.4729
 9478TIP3    H249926   0.011   0.235   2.921 -0.7426  0.2100 -0.1738
 9479TIP3   OH249927   2.469   1.793   0.136  0.5446  0.2524 -0.0386
 9479TIP3    H149928   2.427   1.757   0.058 -0.1135 -0.3693  0.5942
 9479TIP3    H249929   2.555   1.821   0.106  0.2626  0.1042 -1.0116
 9480TIP3   OH249930   1.534   5.079  13.679  0.0125  0.0264 -0.3436
 9480TIP3    H149931   1.439   5.084  13.686 -0.0606  1.5769 -2.1859
 9480TIP3    H249932   1.556   5.135  13.605  2.2480 -1.3517 -0.7718
 9481TIP3   OH249933   3.016   4.746  10.709 -0.1450 -0.2680  0.3411
 9481TIP3    H149934   3.015   4.789  10.624 -3.6458  1.0793  0.9692
 9481TIP3    H249935   2.947   4.679  10.702 -0.6118  0.0022  2.1706
 9482TIP3   OH249936   3.466   5.877  15.583  0.0590  0.2459  0.4872
 9482TIP3    H149937   3.534   5.861  15.519 -1.4028  0.4751 -1.1546
 9482TIP3    H249938   3.454   5.972  15.582 -2.0434  0.0068 -1.1391
 9483TIP3   OH249939   5.719   5.332  13.099  0.5773  0.5883  0.5155
 9483TIP3    H149940   5.750   5.244  13.078  0.6188  0.9395 -0.9820
 9483TIP3    H249941   5.702   5.330  13.193 -3.1252 -2.2093 -0.1102
 9484TIP3   OH249942   1.096   0.824  11.288  0.6159 -0.5310  0.2678
 9484TIP3    H149943   1.082   0.758  11.355  1.5124  0.4658  1.4654
 9484TIP3    H249944   1.122   0.775  11.210 -0.7111 -1.7134  0.5609
 9485TIP3   OH249945   3.799   5.858  12.496  0.1497 -0.1768  0.2683
 9485TIP3    H149946   3.890   5.882  12.479  0.2503 -0.6544  0.1342
 9485TIP3    H249947   3.793   5.766  12.472  0.1635 -0.7336  2.3542
 9486TIP3   OH249948   0.901   1.813  12.145 -0.0411  0.5831  0.6768
 9486TIP3    H149949   0.937   1.886  12.095  2.2677 -1.0468 -0.1414
 9486TIP3    H249950   0.879   1.747  12.079 -1.8598  0.4031  1.4207
 9487TIP3   OH249951   2.309   3.043  13.848 -0.1152  0.3168 -0.0767
 9487TIP3    H149952   2.223   3.074  13.818 -1.0025 -1.4033  0.5664
 9487TIP3    H249953   2.319   2.958  13.805  1.4935  0.7191 -0.5129
 9488TIP3   OH249954   1.486   1.530  12.334 -0.0675  0.2267  0.3539
 9488TIP3    H149955   1.566   1.533  12.281 -0.8121 -0.7479 -0.8352
 9488TIP3    H249956   1.415   1.520  12.271 -1.0152 -0.4234  1.4993
 9489TIP3   OH249957   2.981   4.395  11.248 -0.1601  0.1161  0.2111
 9489TIP3    H149958   2.921   4.365  11.180  0.6913 -0.7328 -0.1760
 9489TIP3    H249959   2.924   4.412  11.324 -1.0193  0.4071 -0.4903
 9490TIP3   OH249960   1.143   2.578   3.924  0.0172 -0.3039  0.2051
 9490TIP3    H149961   1.145   2.621   4.010 -0.9629  0.3080 -0.0728
 9490TIP3    H249962   1.051   2.554   3.912  0.1021 -0.1080 -0.8231
 9491TIP3   OH249963   5.697   0.409   1.003 -0.2364  0.2468 -0.5788
 9491TIP3    H149964   5.665   0.351   1.072  1.5404 -0.2288 -0.1470
 9491TIP3    H249965   5.646   0.384   0.926  1.0044 -2.3984 -0.5902
 9492TIP3   OH249966   3.026   1.296  11.514 -0.3053 -0.0256 -0.1060
 9492TIP3    H149967   3.059   1.214  11.478  1.5666  0.8322 -0.3727
 9492TIP3    H249968   2.999   1.274  11.603  1.7969 -0.5553  0.4209
 9493TIP3   OH249969   3.015   0.959  14.551 -0.4095  0.1570  0.0991
 9493TIP3    H149970   3.041   0.991  14.464 -0.0210  1.1557  0.5664
 9493TIP3    H249971   3.086   0.901  14.577  0.4671  1.4091  0.5775
 9494TIP3   OH249972   5.427   2.507  10.360  0.2948  0.1959 -0.0620
 9494TIP3    H149973   5.476   2.426  10.348  0.9309  0.5208  0.3452
 9494TIP3    H249974   5.371   2.490  10.436 -2.4824 -1.2521 -2.3362
 9495TIP3   OH249975   0.157   0.253   2.068  0.0267 -0.1246 -0.2467
 9495TIP3    H149976   0.100   0.283   2.139  2.3021  0.4677  1.3642
 9495TIP3    H249977   0.154   0.323   2.003  1.3667  1.3499  1.2486
 9496TIP3   OH249978   0.748   1.961  14.919  0.1108 -0.0482  0.2116
 9496TIP3    H149979   0.656   1.936  14.917 -0.1571  1.0376 -2.4454
 9496TIP3    H249980   0.796   1.880  14.905 -0.4684 -0.4830  0.7467
 9497TIP3   OH249981   4.722   3.931   1.511  0.4452 -0.2572 -0.4883
 9497TIP3    H149982   4.753   4.012   1.469  1.8495 -0.7330 -0.3829
 9497TIP3    H249983   4.749   3.862   1.451  1.3731 -0.8457  0.5948
 9498TIP3   OH249984   5.631   1.050   0.763  0.0730 -0.3277 -0.0432
 9498TIP3    H149985   5.698   1.117   0.753 -0.7130  0.6259  0.9435
 9498TIP3    H249986   5.579   1.055   0.683 -1.1872  1.6159  0.8703
 9499TIP3   OH249987   3.364   0.847   3.974 -0.7147 -0.2410 -0.0249
 9499TIP3    H149988   3.402   0.825   4.059 -0.2017 -0.8519 -0.4011
 9499TIP3    H249989   3.393   0.776   3.916  0.5063  1.1240 -1.1550
 9500TIP3   OH249990   0.439   3.910   3.310  0.4255 -0.1695 -0.4287
 9500TIP3    H149991   0.403   3.847   3.248 -0.2784  0.8374 -1.0668
 9500TIP3    H249992   0.374   3.981   3.313  0.9452  0.2820  0.6695
 9501TIP3   OH249993   5.745   6.263  15.273 -0.4956  0.6687  0.1011
 9501TIP3    H149994   5.690   6.327  15.227 -0.5279  1.8803  1.7807
 9501TIP3    H249995   5.729   6.281  15.366  2.6460  0.9541  0.6218
 9502TIP3   OH249996   4.363   6.592   0.384  0.0395 -0.0176  0.2459
 9502TIP3    H149997   4.333   6.682   0.390  0.5474  0.2073 -0.4920
 9502TIP3    H249998   4.288   6.543   0.349  0.5701  0.5819 -1.8177
 9503TIP3   OH249999   4.393   6.818   1.510 -0.2360  0.3608 -0.1691
 9503TIP3    H150000   4.451   6.894   1.517  1.2163 -0.5819 -1.5977
 9503TIP3    H250001   4.378   6.808   1.416  0.0908 -1.4582 -0.0563
 9504TIP3   OH250002   2.836   2.104   3.782 -0.7046  0.1706 -0.0782
 9504TIP3    H150003   2.846   2.183   3.729 -1.8170  0.0009 -0.5530
 9504TIP3    H250004   2.776   2.130   3.852 -1.2939 -0.3312 -0.3969
 9505TIP3   OH250005   5.421   4.984   3.463  0.5222 -0.3697  0.0297
 9505TIP3    H150006   5.404   5.074   3.436 -1.5891 -0.6751  0.1853
 9505TIP3    H250007   5.351   4.933   3.421  1.6112 -1.9195  0.0491
 9506TIP3   OH250008   0.789   1.995  15.572 -0.4121  0.1163 -0.6278
 9506TIP3    H150009   0.795   1.993  15.476  3.8331 -3.5972 -0.4632
 9506TIP3    H250010   0.825   2.080  15.596  0.3581  0.2814 -2.2916
 9507TIP3   OH250011   5.638   1.514   5.657  0.2477 -0.5594 -0.6115
 9507TIP3    H150012   5.591   1.557   5.729  0.3979 -0.1888 -0.7336
 9507TIP3    H250013   5.729   1.512   5.685  0.5214  0.7362 -1.3230
 9508TIP3   OH250014   0.345   0.802   0.646  0.7979 -0.0643  0.3100
 9508TIP3    H150015   0.416   0.861   0.622  0.8092 -0.2702 -0.1643
 9508TIP3    H250016   0.334   0.815   0.740 -1.1597  2.7997 -0.2931
 9509TIP3   OH250017   1.757   2.126  12.526 -0.1468  0.0576 -0.6019
 9509TIP3    H150018   1.768   2.088  12.613  1.8344  0.4902 -0.6362
 9509TIP3    H250019   1.790   2.216  12.535  1.0637 -0.2222 -2.0375
 9510TIP3   OH250020   4.714   1.798   4.689 -0.1778 -0.4193 -0.2737
 9510TIP3    H150021   4.663   1.874   4.662 -0.0051  0.0468  0.7096
 9510TIP3    H250022   4.776   1.784   4.618 -1.2092 -0.5670 -1.1559
 9511TIP3   OH250023   5.796   2.728  16.026 -0.0034 -0.2363  0.5775
 9511TIP3    H150024   5.849   2.651  16.005 -0.8838  0.1865 -3.5249
 9511TIP3    H250025   5.802   2.783  15.949 -1.3890  2.7197  2.5038
 9512TIP3   OH250026   0.294   5.485  13.281 -0.0936  0.0751  0.2532
 9512TIP3    H150027   0.272   5.417  13.344  3.1185 -1.3691 -0.0517
 9512TIP3    H250028   0.342   5.551  13.332  0.5660 -0.0203 -0.2262
 9513TIP3   OH250029   2.104   2.881  13.639  0.3876  0.4578  0.3284
 9513TIP3    H150030   2.110   2.927  13.555  1.9563  1.0926  0.7718
 9513TIP3    H250031   2.036   2.928  13.687 -1.9640 -1.1613 -1.3351
 9514TIP3   OH250032   5.390   2.984   5.277 -0.4409  0.0735  0.1929
 9514TIP3    H150033   5.300   2.962   5.302 -1.5006  1.1562 -2.4980
 9514TIP3    H250034   5.419   2.910   5.224  0.3778 -0.4170  1.3155
 9515TIP3   OH250035   3.942   6.304  16.189  0.4150  0.0564 -0.0943
 9515TIP3    H150036   3.937   6.399  16.201  2.0333 -0.0100  1.3585
 9515TIP3    H250037   3.968   6.270  16.275  3.4755 -1.3454 -1.4705
 9516TIP3   OH250038   2.231   6.752  15.596  0.7483  0.0317  0.2876
 9516TIP3    H150039   2.253   6.711  15.512  1.4466 -1.7221  1.3130
 9516TIP3    H250040   2.297   6.819  15.608 -1.5139  2.8924 -2.3338
 9517TIP3   OH250041   0.280   0.549  13.201 -0.2690 -0.2477 -0.2135
 9517TIP3    H150042   0.319   0.628  13.239  0.4664 -1.0139  0.6585
 9517TIP3    H250043   0.310   0.478  13.258 -0.5510 -1.2117 -1.2484
 9518TIP3   OH250044   6.038   4.533  13.996  0.0380  0.0940  0.0528
 9518TIP3    H150045   6.063   4.462  14.055 -2.8198  0.8663  2.3471
 9518TIP3    H250046   6.014   4.605  14.054 -1.5593  1.3420 -2.0689
 9519TIP3   OH250047   3.543   3.105  12.195  0.3423 -0.3702  0.7585
 9519TIP3    H150048   3.510   3.031  12.247  0.7676 -0.1070  1.4077
 9519TIP3    H250049   3.632   3.080  12.171 -0.9416 -1.9845 -2.7317
 9520TIP3   OH250050   1.644   4.900  11.631 -0.2749  0.2795  0.3845
 9520TIP3    H150051   1.551   4.898  11.651 -0.2117  0.6912  0.7347
 9520TIP3    H250052   1.679   4.818  11.665 -0.4381  0.3076  0.6185
 9521TIP3   OH250053   2.995   4.526  14.725  0.2361 -0.1139  0.7694
 9521TIP3    H150054   3.036   4.610  14.745  0.2249 -0.1558  0.9752
 9521TIP3    H250055   2.903   4.547  14.711 -0.0435 -0.2742  2.2270
 9522TIP3   OH250056   1.244   4.645   3.931  0.6065 -0.3614  0.0672
 9522TIP3    H150057   1.213   4.690   3.852  0.5209  1.0258  0.8866
 9522TIP3    H250058   1.169   4.593   3.960  0.5096 -0.5601 -0.5304
 9523TIP3   OH250059   3.461   4.313   1.953  0.0274  0.2306 -0.3169
 9523TIP3    H150060   3.481   4.360   2.033 -0.9642  1.0002 -0.5073
 9523TIP3    H250061   3.381   4.264   1.973 -0.0423  0.1660 -0.7320
 9524TIP3   OH250062   5.027   2.396   0.706  0.6613 -0.1184 -0.2129
 9524TIP3    H150063   5.011   2.306   0.736  0.5830  0.0534  0.2594
 9524TIP3    H250064   5.076   2.385   0.625  0.6943 -0.5899 -0.1331
 9525TIP3   OH250065   1.823   5.348   5.500  0.3765 -0.1362  0.2564
 9525TIP3    H150066   1.788   5.356   5.589  0.2019  1.0251  0.0989
 9525TIP3    H250067   1.754   5.303   5.452  0.6831 -1.2250  0.8266
 9526TIP3   OH250068   3.601   3.695  12.318  0.0047  0.1913  0.1926
 9526TIP3    H150069   3.575   3.694  12.226 -0.6696 -1.7723  0.3991
 9526TIP3    H250070   3.581   3.785  12.347 -1.1270  0.4010 -1.1794
 9527TIP3   OH250071   2.143   6.441   6.227 -0.2777  0.2336  0.1181
 9527TIP3    H150072   2.160   6.350   6.200  0.5339 -0.0019  1.4027
 9527TIP3    H250073   2.176   6.494   6.154 -1.4048 -0.5092 -0.9663
 9528TIP3   OH250074   5.947   5.707  13.934 -0.1251 -0.2007  0.0999
 9528TIP3    H150075   5.918   5.798  13.936 -0.5584 -0.2646 -2.1140
 9528TIP3    H250076   5.867   5.656  13.924  0.0765 -0.8769  1.7469
 9529TIP3   OH250077   3.388   2.408   1.998  0.4414  0.2806  0.4147
 9529TIP3    H150078   3.428   2.340   1.943  1.1397  0.3228  0.8644
 9529TIP3    H250079   3.389   2.371   2.086 -0.5498  0.2702  0.4270
 9530TIP3   OH250080   2.315   3.950   6.658  0.4307  0.5897 -0.0033
 9530TIP3    H150081   2.298   4.011   6.587  1.8952 -0.0504 -0.9371
 9530TIP3    H250082   2.386   3.990   6.708 -0.4662  0.9498  0.9992
 9531TIP3   OH250083   3.018   2.323   4.758 -0.4046 -0.0232  0.1567
 9531TIP3    H150084   3.051   2.268   4.829 -3.1783 -0.7412  0.9451
 9531TIP3    H250085   2.924   2.327   4.773 -0.6997  1.9639 -2.0094
 9532TIP3   OH250086   1.306   3.793  15.200 -0.0059  0.1881  0.2374
 9532TIP3    H150087   1.252   3.724  15.239  1.0113 -0.2152  0.9670
 9532TIP3    H250088   1.251   3.871  15.204 -0.7562 -0.3405  0.4246
 9533TIP3   OH250089   2.605   1.671   2.614  0.0323 -0.0832 -0.8381
 9533TIP3    H150090   2.661   1.715   2.678  0.3812 -0.9783 -0.5257
 9533TIP3    H250091   2.532   1.638   2.666  0.7857 -1.6269 -0.7482
 9534TIP3   OH250092   2.817   0.448   1.813  0.1244 -0.7228  0.1696
 9534TIP3    H150093   2.879   0.520   1.803  1.6746 -2.1658 -0.8228
 9534TIP3    H250094   2.796   0.421   1.723  1.1553 -2.8242  0.5179
 9535TIP3   OH250095   0.152   4.577  13.477  0.1899 -0.2526 -0.2379
 9535TIP3    H150096   0.092   4.649  13.461 -0.1024 -0.3448  0.4145
 9535TIP3    H250097   0.166   4.578  13.572  0.3521 -0.9156 -0.2506
 9536TIP3   OH250098   5.463   3.340   4.141 -0.2286 -0.5837 -0.8093
 9536TIP3    H150099   5.380   3.386   4.150 -0.0076 -0.2558 -0.3971
 9536TIP3    H250100   5.493   3.360   4.053 -0.0592  0.2036 -0.5777
 9537TIP3   OH250101   4.998   4.000   2.453  0.1018  0.6542 -0.2984
 9537TIP3    H150102   4.927   3.939   2.432 -1.3649  2.3390 -0.2733
 9537TIP3    H250103   5.067   3.944   2.490 -1.0616 -1.0464 -0.6561
 9538TIP3   OH250104   3.753   4.156  10.829 -0.5855  0.2398  0.7138
 9538TIP3    H150105   3.830   4.104  10.808  0.1585  0.8204  1.9694
 9538TIP3    H250106   3.785   4.245  10.839 -1.8937  1.0167 -1.6537
 9539TIP3   OH250107   2.249   5.459  16.817  0.2254 -0.1038 -0.4240
 9539TIP3    H150108   2.305   5.453  16.894  0.9418 -0.6736 -0.9866
 9539TIP3    H250109   2.168   5.498  16.850  1.3307  1.7497  0.1903
 9540TIP3   OH250110   0.792   2.679  11.255 -0.1707  0.3033 -0.8422
 9540TIP3    H150111   0.880   2.650  11.280  0.1876  1.4100 -0.8060
 9540TIP3    H250112   0.759   2.608  11.199  1.0351  0.2201 -1.4713
 9541TIP3   OH250113   5.577   5.314   1.410 -0.1273 -0.3212 -0.5916
 9541TIP3    H150114   5.529   5.335   1.330 -1.0662  0.3869  0.1415
 9541TIP3    H250115   5.650   5.375   1.412 -0.0375 -0.4201 -0.9711
 9542TIP3   OH250116   6.641   6.366   0.359  0.3025  0.0098  0.1441
 9542TIP3    H150117   6.612   6.275   0.349 -1.1893  0.7162 -2.3148
 9542TIP3    H250118   6.563   6.412   0.391  0.6999  0.6441  0.2017
 9543TIP3   OH250119   1.634   1.161  16.830 -0.8668  0.0936  0.0746
 9543TIP3    H150120   1.586   1.176  16.912  1.8866  1.3937  1.5018
 9543TIP3    H250121   1.593   1.221  16.768 -2.0453  0.1471  0.8787
 9544TIP3   OH250122   1.819   4.998   4.403 -0.1253 -0.1781 -0.6657
 9544TIP3    H150123   1.850   5.025   4.490  0.9364  1.3534 -1.4924
 9544TIP3    H250124   1.740   4.946   4.421  1.0930 -1.3965  1.2985
 9545TIP3   OH250125   5.849   5.073   1.409 -0.7292 -0.1584  0.2440
 9545TIP3    H150126   5.805   5.097   1.490 -0.5933  1.5907 -0.1825
 9545TIP3    H250127   5.798   5.115   1.340  1.2629  1.5022 -0.2909
 9546TIP3   OH250128   5.646   6.369   0.120  0.2194 -0.6005 -0.1882
 9546TIP3    H150129   5.582   6.413   0.064  1.2107  0.3604 -0.6011
 9546TIP3    H250130   5.595   6.306   0.171 -0.9069 -0.4967 -1.1666
 9547TIP3   OH250131   1.426   1.952   6.789 -0.2801  0.0495  0.2332
 9547TIP3    H150132   1.407   1.913   6.874  0.2543 -0.3192  0.1886
 9547TIP3    H250133   1.520   1.970   6.792 -0.3848  0.6595 -0.0266
 9548TIP3   OH250134   2.030   5.682   1.350  0.1234 -0.1176 -0.3069
 9548TIP3    H150135   2.109   5.661   1.399 -0.1364 -1.7753 -0.5778
 9548TIP3    H250136   2.033   5.777   1.340  1.4108 -0.0256  0.8099
 9549TIP3   OH250137   4.827   0.007  12.691 -0.0510  0.6583 -0.0538
 9549TIP3    H150138   4.892  -0.014  12.757 -1.4586  0.3904  1.2785
 9549TIP3    H250139   4.833   0.102  12.681  0.8098  0.5888 -0.2342
 9550TIP3   OH250140   5.286   4.329  11.429 -0.2052 -0.0035 -1.0834
 9550TIP3    H150141   5.253   4.394  11.491  2.3225 -0.0620  0.3673
 9550TIP3    H250142   5.295   4.377  11.346 -2.2777  0.4147 -1.0971
 9551TIP3   OH250143   2.868   4.529  15.300  0.0570  0.0750 -0.3214
 9551TIP3    H150144   2.822   4.534  15.216 -1.1981 -2.1573  0.1709
 9551TIP3    H250145   2.830   4.599  15.352 -2.2426 -1.1791 -0.2321
 9552TIP3   OH250146   5.019   0.226  12.952  0.6244  0.3883  0.7448
 9552TIP3    H150147   5.031   0.133  12.937  1.1007  0.5492  0.1001
 9552TIP3    H250148   5.000   0.233  13.045 -0.5925 -0.4585  0.5768
 9553TIP3   OH250149   0.333   2.191  14.004 -0.0743 -0.7112 -0.9089
 9553TIP3    H150150   0.362   2.281  13.995  0.4475 -0.9791 -1.9117
 9553TIP3    H250151   0.290   2.188  14.090 -0.4155  0.5693 -1.0280
 9554TIP3   OH250152   1.404   6.700   3.852 -0.2085  0.3107  0.2266
 9554TIP3    H150153   1.345   6.772   3.871 -0.4725  0.3677 -0.8149
 9554TIP3    H250154   1.353   6.640   3.797  0.3492 -0.1597  0.2091
 9555TIP3   OH250155   1.712   0.499   5.044 -0.0749 -0.0858 -0.0340
 9555TIP3    H150156   1.687   0.484   4.953  1.6469 -0.6698 -0.4243
 9555TIP3    H250157   1.788   0.556   5.039 -0.0993  0.0663  1.0604
 9556TIP3   OH250158   6.732   2.870   2.565  0.4435 -0.1897 -0.4922
 9556TIP3    H150159   6.676   2.861   2.642  0.1727  1.4526 -0.4887
 9556TIP3    H250160   6.811   2.913   2.597  0.6774 -0.2568 -0.9701
 9557TIP3   OH250161   5.172   1.461   4.118 -0.2833  0.0319 -0.7013
 9557TIP3    H150162   5.111   1.391   4.095 -1.6893  0.4804  1.4761
 9557TIP3    H250163   5.184   1.510   4.037  0.2607 -2.3497 -2.1255
 9558TIP3   OH250164   4.071   5.132  13.411 -0.7422  0.1367  0.3436
 9558TIP3    H150165   4.076   5.104  13.320 -0.8771  0.7735  0.1364
 9558TIP3    H250166   4.096   5.055  13.462 -0.7963 -0.2556 -0.2275
 9559TIP3   OH250167   3.225   6.817   3.260  0.0093  0.1450  0.3213
 9559TIP3    H150168   3.171   6.889   3.293  0.0401 -0.5834  1.9673
 9559TIP3    H250169   3.240   6.840   3.168 -0.3260  2.0362  0.7095
 9560TIP3   OH250170   3.335   4.550   2.054  0.1831 -0.2527 -0.1356
 9560TIP3    H150171   3.307   4.610   1.986  0.0426  1.0520  1.0623
 9560TIP3    H250172   3.258   4.495   2.071 -0.3208  0.5271  0.1455
 9561TIP3   OH250173   4.940   1.111  16.649  0.3246 -0.0705  0.0424
 9561TIP3    H150174   4.960   1.018  16.655 -3.6217 -0.9035  1.7705
 9561TIP3    H250175   4.947   1.144  16.738  3.3393  1.7583 -0.7859
 9562TIP3   OH250176   1.095   4.354   1.719 -0.0873 -0.4779  0.3601
 9562TIP3    H150177   1.130   4.367   1.807  0.2100 -1.0468  0.3265
 9562TIP3    H250178   1.139   4.276   1.686 -1.5690 -1.3496  0.3986
 9563TIP3   OH250179   6.549   4.806  13.086 -0.3273 -0.2712 -0.2553
 9563TIP3    H150180   6.478   4.868  13.069  0.0739 -0.3172 -2.2524
 9563TIP3    H250181   6.625   4.845  13.043  0.2342 -1.4737 -0.3594
 9564TIP3   OH250182   1.950   2.845  15.171 -0.2336  0.1046 -0.1480
 9564TIP3    H150183   1.988   2.917  15.222 -0.2315  0.5237 -0.7466
 9564TIP3    H250184   2.019   2.779  15.168  0.4168  0.8185 -1.1406
 9565TIP3   OH250185   6.810   5.915  12.341  0.3850 -0.0114 -0.0846
 9565TIP3    H150186   6.882   5.871  12.385 -0.3360 -0.5439  0.5764
 9565TIP3    H250187   6.851   5.961  12.268  1.2592 -1.1116 -0.2995
 9566TIP3   OH250188   6.530   4.164  16.188 -0.3551  0.3741  0.2415
 9566TIP3    H150189   6.523   4.259  16.194  1.1431  0.6292 -1.6727
 9566TIP3    H250190   6.439   4.134  16.182 -0.7993  1.7862 -0.3089
 9567TIP3   OH250191   3.630   5.323  14.842  0.6687  0.2435 -0.0574
 9567TIP3    H150192   3.681   5.270  14.905  0.5839 -0.2154 -0.3713
 9567TIP3    H250193   3.674   5.408  14.842 -0.4833  0.8751  2.0840
 9568TIP3   OH250194   5.610   0.445   6.078 -0.5163  0.4304  0.3894
 9568TIP3    H150195   5.676   0.379   6.098  0.5372  0.9444 -1.2719
 9568TIP3    H250196   5.642   0.525   6.119  0.5817  0.9842 -1.4769
 9569TIP3   OH250197   2.045   1.187   1.227 -0.5841  0.1185 -0.6575
 9569TIP3    H150198   2.133   1.175   1.192 -0.6468 -2.4201 -0.0595
 9569TIP3    H250199   1.992   1.122   1.181 -1.4975 -0.4889  1.1942
 9570TIP3   OH250200   3.701   4.060  12.972  0.7656  0.1646 -0.1012
 9570TIP3    H150201   3.717   4.097  12.886  0.2626 -1.3277 -0.8651
 9570TIP3    H250202   3.690   3.966  12.956 -0.4830  0.0256  1.4257
 9571TIP3   OH250203   0.884   2.880   1.830  0.0870  0.4017  0.2842
 9571TIP3    H150204   0.942   2.910   1.760 -1.3360  0.8452 -0.7285
 9571TIP3    H250205   0.877   2.786   1.816 -1.0269  0.6315 -0.8401
 9572TIP3   OH250206   4.728   6.249  10.676  0.2489 -0.2005 -0.4277
 9572TIP3    H150207   4.772   6.326  10.710  1.3158 -0.5726 -0.9230
 9572TIP3    H250208   4.794   6.207  10.620 -1.0136 -0.3062 -1.8806
 9573TIP3   OH250209   6.714   0.460   6.790 -0.4500  0.5128 -0.1657
 9573TIP3    H150210   6.632   0.422   6.758  0.2625 -0.5280 -0.7863
 9573TIP3    H250211   6.769   0.467   6.711  1.6426 -2.8624  0.9007
 9574TIP3   OH250212   1.550   3.988   2.605  0.0453 -0.2582 -0.4879
 9574TIP3    H150213   1.614   3.917   2.597  1.6140  1.1661 -0.7961
 9574TIP3    H250214   1.531   3.993   2.699 -0.4311 -1.3592 -0.5083
 9575TIP3   OH250215   5.184   5.587  12.080 -0.7734 -0.1786 -0.0953
 9575TIP3    H150216   5.261   5.529  12.076 -1.2341 -0.8881  0.9056
 9575TIP3    H250217   5.220   5.675  12.070  0.0809 -0.5561 -0.4439
 9576TIP3   OH250218   1.292   3.427  14.450 -0.3485 -0.5847 -0.2649
 9576TIP3    H150219   1.327   3.500  14.502 -0.5470 -0.1931 -0.6775
 9576TIP3    H250220   1.219   3.393  14.503 -1.2609  0.5229 -0.7843
 9577TIP3   OH250221   3.342   5.033  12.158 -0.2401  0.6307 -0.3225
 9577TIP3    H150222   3.279   5.093  12.197  0.7890  1.2343  0.4322
 9577TIP3    H250223   3.338   4.954  12.212 -0.2738  0.7069 -0.2137
 9578TIP3   OH250224   6.753   3.658  13.082  0.8348 -0.4192 -0.8615
 9578TIP3    H150225   6.798   3.583  13.044  1.9380 -0.3538  0.2849
 9578TIP3    H250226   6.680   3.620  13.130  1.4507 -0.7742 -0.1993
 9579TIP3   OH250227   3.377   0.881  12.604 -0.0060 -0.1294  0.2339
 9579TIP3    H150228   3.401   0.932  12.681  0.7797 -0.0896 -0.0346
 9579TIP3    H250229   3.460   0.866  12.558 -0.4582 -0.2267 -0.5590
 9580TIP3   OH250230   5.467   3.681   6.688  0.3829  0.1842  0.2608
 9580TIP3    H150231   5.410   3.727   6.750 -0.2248  0.1049 -0.2348
 9580TIP3    H250232   5.507   3.751   6.637 -1.1060  0.1660 -0.9894
 9581TIP3   OH250233   6.592   4.570   3.632  0.1328 -0.4483 -0.1952
 9581TIP3    H150234   6.547   4.574   3.548 -0.5995 -0.7757  0.1714
 9581TIP3    H250235   6.617   4.661   3.650 -0.6263 -0.2138 -0.2831
 9582TIP3   OH250236   0.086   0.880  11.210 -0.3363  0.3017 -0.2403
 9582TIP3    H150237   0.068   0.958  11.262  1.0812 -0.1962  1.0520
 9582TIP3    H250238   0.032   0.811  11.250  0.2543  0.0713  0.1718
 9583TIP3   OH250239   1.201   3.404  11.317 -0.1073 -0.1003  0.1211
 9583TIP3    H150240   1.156   3.342  11.259  1.5831 -0.1438 -1.1632
 9583TIP3    H250241   1.146   3.483  11.315 -0.6345 -0.4764 -0.6612
 9584TIP3   OH250242   0.581   4.960  12.290  0.3442  0.0973 -0.0726
 9584TIP3    H150243   0.550   4.870  12.303  1.1941 -0.2701 -0.5354
 9584TIP3    H250244   0.649   4.953  12.223  1.0321  0.9567  0.5146
 9585TIP3   OH250245   1.350   2.871  12.689 -0.4517 -0.0410 -0.5163
 9585TIP3    H150246   1.389   2.945  12.735 -1.4272 -0.5136  1.1192
 9585TIP3    H250247   1.425   2.817  12.663  0.1169  0.0844  0.8053
 9586TIP3   OH250248   0.806   0.167   3.764 -0.1088 -0.2895  0.0014
 9586TIP3    H150249   0.861   0.118   3.703 -0.9621 -1.2336 -0.0155
 9586TIP3    H250250   0.749   0.101   3.804 -0.1259  0.4334  1.2137
 9587TIP3   OH250251   2.469   6.126   5.277  0.1599 -0.0872  0.2881
 9587TIP3    H150252   2.467   6.127   5.373  1.4253 -1.2422  0.3363
 9587TIP3    H250253   2.416   6.202   5.251 -0.3111  0.1470  1.8937
 9588TIP3   OH250254   2.637   4.201  15.895  0.5337  0.1011  0.1295
 9588TIP3    H150255   2.649   4.111  15.863 -0.1023 -0.5069  1.5485
 9588TIP3    H250256   2.558   4.197  15.949  1.1517  1.2662  1.1419
 9589TIP3   OH250257   4.695   0.705   4.199  0.2012  0.0675 -0.0280
 9589TIP3    H150258   4.690   0.613   4.223  0.0821  0.1523  0.2754
 9589TIP3    H250259   4.789   0.725   4.200  0.3195 -0.3441 -1.2234
 9590TIP3   OH250260   5.062   2.614   3.895 -0.4782  0.1296  0.3633
 9590TIP3    H150261   5.010   2.634   3.973  0.3602  0.5014  0.8291
 9590TIP3    H250262   5.007   2.642   3.821 -1.4692 -0.6651  0.7957
 9591TIP3   OH250263   4.806   2.219   4.194  0.0443 -0.3932 -0.4739
 9591TIP3    H150264   4.782   2.157   4.125 -0.8742 -0.6434  0.0714
 9591TIP3    H250265   4.827   2.163   4.269  0.1028 -0.0782 -0.2582
 9592TIP3   OH250266   2.575   5.997   2.308 -0.4012 -0.7824 -0.0829
 9592TIP3    H150267   2.557   6.013   2.215 -0.5429  0.5802  0.1797
 9592TIP3    H250268   2.494   5.958   2.341 -0.4571 -0.9892 -0.4539
 9593TIP3   OH250269   3.095   3.059   5.853 -0.6174  0.2180  0.1387
 9593TIP3    H150270   3.127   2.969   5.843 -1.1305 -0.2079  2.0351
 9593TIP3    H250271   3.091   3.072   5.948 -0.6210  2.2262 -0.1256
 9594TIP3   OH250272   1.786   1.295  13.766  0.2030 -0.7749  0.0374
 9594TIP3    H150273   1.871   1.290  13.810 -0.4898  0.1617  1.5312
 9594TIP3    H250274   1.760   1.386  13.776 -2.1397 -1.5742  1.8791
 9595TIP3   OH250275   3.023   6.646   5.624 -0.0039 -0.1675 -0.7901
 9595TIP3    H150276   3.009   6.737   5.651 -0.1049 -1.2176  3.0040
 9595TIP3    H250277   3.117   6.631   5.639  0.0095 -0.7177 -1.4011
 9596TIP3   OH250278   1.643   5.814  12.542  0.2614  0.2732  0.6587
 9596TIP3    H150279   1.605   5.864  12.614 -1.3108 -0.9904  0.7287
 9596TIP3    H250280   1.570   5.798  12.483  1.1831 -0.2062 -0.3649
 9597TIP3   OH250281   0.760   6.730   0.959  0.9270  0.3731 -0.3491
 9597TIP3    H150282   0.823   6.676   0.911  1.0309  0.6351 -0.5092
 9597TIP3    H250283   0.814   6.797   1.002  1.0877 -1.1987  1.9852
 9598TIP3   OH250284   1.504   0.659   5.859 -0.6747  0.0524 -0.0279
 9598TIP3    H150285   1.559   0.617   5.925 -0.0219  0.1640 -0.4936
 9598TIP3    H250286   1.477   0.587   5.801 -0.6240  0.0687 -0.0723
 9599TIP3   OH250287   4.486   1.318   4.727 -0.0645 -0.1247  0.0346
 9599TIP3    H150288   4.558   1.260   4.753 -0.1124  0.0165  0.4981
 9599TIP3    H250289   4.461   1.362   4.808  0.8322  1.5004 -0.5296
 9600TIP3   OH250290   0.380   2.727  12.747 -0.3714 -1.0032 -0.6348
 9600TIP3    H150291   0.375   2.652  12.687  3.0738 -1.8865  0.0673
 9600TIP3    H250292   0.343   2.695  12.829 -2.5389 -0.6701 -1.4682
 9601TIP3   OH250293   0.513   3.518   3.224 -0.0191  0.4713  0.5058
 9601TIP3    H150294   0.534   3.432   3.189  1.8138  1.0127  0.2231
 9601TIP3    H250295   0.536   3.512   3.317  0.0855  0.6489  0.4918
 9602TIP3   OH250296   1.114   6.669  17.269  0.1009  0.0494 -0.4485
 9602TIP3    H150297   1.189   6.616  17.296  0.8535  0.4800 -1.6693
 9602TIP3    H250298   1.151   6.755  17.251 -0.9172  0.6462  0.3043
 9603TIP3   OH250299   0.134   1.649   5.416 -0.2458 -0.0457  0.1281
 9603TIP3    H150300   0.207   1.608   5.370  0.4013 -1.2632  2.1671
 9603TIP3    H250301   0.066   1.659   5.350  0.7132 -1.5936 -1.1250
 9604TIP3   OH250302   5.673   2.632   5.279 -0.3022 -0.2081 -0.1609
 9604TIP3    H150303   5.628   2.673   5.352  0.3237 -1.2893  0.8631
 9604TIP3    H250304   5.679   2.700   5.212 -0.0874  1.0817  1.1445
 9605TIP3   OH250305   5.702   0.983   6.725  0.8029 -0.2931 -0.5622
 9605TIP3    H150306   5.684   1.063   6.675  0.6816  0.1542  0.2033
 9605TIP3    H250307   5.647   0.916   6.683 -1.7406  0.7859  0.9935
 9606TIP3   OH250308   1.122   0.058   1.962  0.1565 -0.2009  0.1781
 9606TIP3    H150309   1.138   0.132   2.020  0.2377  0.6887 -0.9662
 9606TIP3    H250310   1.029   0.065   1.939 -0.1510 -1.1947  1.0773
 9607TIP3   OH250311   5.568   3.914  17.014 -0.1584 -0.0162 -0.2115
 9607TIP3    H150312   5.510   3.940  16.942 -0.9877 -1.0519  0.0678
 9607TIP3    H250313   5.652   3.893  16.971  0.1561  1.9226 -0.5660
 9608TIP3   OH250314   1.941   2.203   3.715 -0.6790 -0.1438  0.2882
 9608TIP3    H150315   1.881   2.213   3.641  0.0982  1.1557 -0.1822
 9608TIP3    H250316   1.944   2.289   3.755  0.9138 -0.1773  0.2624
 9609TIP3   OH250317   2.730   0.004  16.774  0.3054 -0.2991 -0.1169
 9609TIP3    H150318   2.729   0.069  16.704  0.3558 -0.2743 -0.0955
 9609TIP3    H250319   2.645  -0.039  16.768  0.1611 -0.0373  0.0471
 9610TIP3   OH250320   3.011   1.228  11.085  0.3329  0.1624  0.4354
 9610TIP3    H150321   3.017   1.311  11.038 -2.8676 -0.2751 -0.8656
 9610TIP3    H250322   3.102   1.207  11.109  1.9590  1.1209 -4.2856
 9611TIP3   OH250323   1.783   2.317   3.968 -0.0637 -0.2620 -0.3457
 9611TIP3    H150324   1.783   2.222   3.978 -1.7064 -0.1046  1.4219
 9611TIP3    H250325   1.691   2.340   3.956  0.3032  1.1109 -0.5988
 9612TIP3   OH250326   3.822   5.109   4.334 -0.5667  0.7387  0.1488
 9612TIP3    H150327   3.842   5.016   4.341  3.3648  1.3940 -1.2861
 9612TIP3    H250328   3.858   5.148   4.413 -1.8896  1.1120  0.5792
 9613TIP3   OH250329   3.863   5.165  11.633  0.7247 -0.6746 -0.2663
 9613TIP3    H150330   3.805   5.232  11.668  0.5409  0.3200 -2.3685
 9613TIP3    H250331   3.950   5.190  11.662  0.8439  1.3527 -2.2710
 9614TIP3   OH250332   6.488   4.324   2.591  0.0174  0.4183  0.1946
 9614TIP3    H150333   6.453   4.397   2.541 -0.8847  0.5614  1.0177
 9614TIP3    H250334   6.581   4.345   2.601 -0.7403  2.9170  2.8180
 9615TIP3   OH250335   5.811   3.893   6.642  0.3563 -0.2162 -0.2160
 9615TIP3    H150336   5.735   3.882   6.585 -0.0449  0.5090  0.1732
 9615TIP3    H250337   5.877   3.833   6.607 -1.5613 -3.4264  1.4730
 9616TIP3   OH250338   1.532   1.533  12.036  0.4542  0.5778  0.5787
 9616TIP3    H150339   1.543   1.626  12.055  1.5914  0.7979 -1.0906
 9616TIP3    H250340   1.446   1.527  11.995  1.0897  1.1614 -0.8768
 9617TIP3   OH250341   0.329   0.792   4.147 -0.4767  0.3276 -0.3959
 9617TIP3    H150342   0.424   0.791   4.150 -0.4851 -1.4529 -0.4452
 9617TIP3    H250343   0.308   0.831   4.062  0.2377 -1.3053 -1.3363
 9618TIP3   OH250344   1.715   0.586  11.894  0.1658 -0.0430 -0.1100
 9618TIP3    H150345   1.633   0.626  11.922 -0.1436  1.2167 -2.7089
 9618TIP3    H250346   1.720   0.504  11.944 -3.3434 -0.8117 -0.8965
 9619TIP3   OH250347   2.779   2.540  14.925 -0.5472  0.0416  0.3012
 9619TIP3    H150348   2.843   2.492  14.873 -1.5714  0.1860 -1.1387
 9619TIP3    H250349   2.712   2.567  14.862 -0.4697  2.5609  1.2471
 9620TIP3   OH250350   1.205   0.518   5.619  0.2722  0.2377 -0.2183
 9620TIP3    H150351   1.177   0.543   5.707  1.8315  0.4712  0.2272
 9620TIP3    H250352   1.139   0.557   5.562 -1.4430 -0.9759  0.9013
 9621TIP3   OH250353   5.001   4.181  15.896 -0.1123 -0.2065 -0.1464
 9621TIP3    H150354   5.090   4.160  15.867  0.5093 -0.3107  1.7660
 9621TIP3    H250355   4.966   4.237  15.827  2.1439  1.4712  0.0045
 9622TIP3   OH250356   4.496   3.387  13.188 -0.1359  0.2228 -0.4796
 9622TIP3    H150357   4.511   3.293  13.197  1.7800  0.5207 -0.3341
 9622TIP3    H250358   4.460   3.397  13.100  0.7057 -0.5358 -0.9193
 9623TIP3   OH250359   2.431   5.262   6.657  0.6549  0.1175 -0.0278
 9623TIP3    H150360   2.464   5.350   6.673  0.1188 -0.0359  2.0056
 9623TIP3    H250361   2.506   5.205   6.673  0.4037  0.0454  0.9216
 9624TIP3   OH250362   6.644   2.927  13.513  0.2398 -0.6526 -0.2967
 9624TIP3    H150363   6.620   2.874  13.438 -0.2115  1.0048 -1.3456
 9624TIP3    H250364   6.584   3.001  13.511  0.2086 -0.5937  1.7107
 9625TIP3   OH250365   3.469   0.497   4.447  0.6126 -0.1552 -0.1355
 9625TIP3    H150366   3.547   0.514   4.499 -0.0305 -0.1701  0.8504
 9625TIP3    H250367   3.501   0.487   4.357  1.6049  0.8852  0.1036
 9626TIP3   OH250368   4.973   3.907  11.496 -0.8235  0.6351  0.3156
 9626TIP3    H150369   5.056   3.944  11.466 -1.1003  0.2457 -0.9362
 9626TIP3    H250370   4.983   3.901  11.591  1.3506 -1.2299  0.0223
 9627TIP3   OH250371   1.727   0.204  12.693  0.1203  0.1263  1.1680
 9627TIP3    H150372   1.818   0.232  12.701  0.0940 -0.1101  2.3240
 9627TIP3    H250373   1.696   0.197  12.783 -0.6383 -1.1293  0.8144
 9628TIP3   OH250374   0.767   6.432  16.210  0.4334  0.6415 -0.2758
 9628TIP3    H150375   0.674   6.447  16.227  0.5696  1.6566 -0.3585
 9628TIP3    H250376   0.792   6.505  16.154  0.9757 -0.3352 -1.3330
 9629TIP3   OH250377   6.159   0.907   5.970  0.2389 -0.5310 -0.5959
 9629TIP3    H150378   6.204   0.832   6.008  1.6029  0.7997  0.5156
 9629TIP3    H250379   6.085   0.923   6.029  0.0573 -0.8970 -0.7283
 9630TIP3   OH250380   2.230   4.391  14.559  0.1541 -0.1161  0.2348
 9630TIP3    H150381   2.200   4.312  14.514 -1.6370  1.0791 -0.7539
 9630TIP3    H250382   2.285   4.436  14.496 -0.9619  0.7075 -0.1724
 9631TIP3   OH250383   1.276   4.475   5.762  0.8406 -0.3618 -0.1669
 9631TIP3    H150384   1.206   4.410   5.758  0.5082 -0.0559  0.4916
 9631TIP3    H250385   1.323   4.456   5.843 -0.3036  1.2441  0.9065
 9632TIP3   OH250386   4.570   6.809  12.784 -0.2488 -0.8337 -0.1235
 9632TIP3    H150387   4.549   6.754  12.860  0.8300 -0.1459  0.6850
 9632TIP3    H250388   4.664   6.796  12.770 -0.4548 -1.0110 -1.3986
 9633TIP3   OH250389   3.959   0.030  12.933 -0.4086  0.2650  0.0050
 9633TIP3    H150390   4.054   0.036  12.947 -0.5863  1.5091  0.7333
 9633TIP3    H250391   3.944  -0.061  12.910  0.7955 -0.2555  1.2194
 9634TIP3   OH250392   4.478   5.469  15.675  0.3606  0.0792  0.3339
 9634TIP3    H150393   4.508   5.457  15.765 -0.9230  0.3027  0.8076
 9634TIP3    H250394   4.398   5.520  15.683  1.1245  1.5272 -1.0624
 9635TIP3   OH250395   1.546   0.561  13.735  0.0022 -0.3763  0.4926
 9635TIP3    H150396   1.592   0.478  13.745  0.6151  0.1070  1.9072
 9635TIP3    H250397   1.600   0.624  13.783 -0.6857  0.7519 -0.1901
 9636TIP3   OH250398   4.997   1.109   0.835  0.0624 -0.0962 -0.2031
 9636TIP3    H150399   4.915   1.151   0.861 -0.5347 -0.4755 -1.4181
 9636TIP3    H250400   5.037   1.169   0.772 -0.7857 -1.2840 -1.9321
 9637TIP3   OH250401   3.104   5.196  13.210  0.1035  0.3107  0.1748
 9637TIP3    H150402   3.119   5.285  13.241  0.7909 -0.1672  1.2267
 9637TIP3    H250403   3.179   5.176  13.154 -1.4258  1.3925 -2.3997
 9638TIP3   OH250404   3.652   4.438  13.274  0.5334 -0.5353  0.0176
 9638TIP3    H150405   3.611   4.389  13.346 -0.3384 -0.1320 -0.2077
 9638TIP3    H250406   3.657   4.375  13.202  0.4769 -0.6374  0.1035
 9639TIP3   OH250407   3.035   4.579   0.177 -0.3487 -0.3298  0.2585
 9639TIP3    H150408   3.022   4.536   0.262 -0.6108 -0.5068  0.1306
 9639TIP3    H250409   2.980   4.529   0.117 -1.0179  0.4768  0.1970
 9640TIP3   OH250410   4.779   5.249  15.006  0.5003  0.4279 -0.1304
 9640TIP3    H150411   4.731   5.177  14.966  2.9918  0.6238 -3.7439
 9640TIP3    H250412   4.862   5.210  15.034  0.9777  1.4269 -0.1175
 9641TIP3   OH250413   3.067   6.070  16.191  0.4292  0.2858  0.1318
 9641TIP3    H150414   3.057   6.095  16.283 -1.3378 -2.2792  0.6867
 9641TIP3    H250415   3.003   6.124  16.144 -1.4236 -1.0946  0.9670
 9642TIP3   OH250416   1.729   6.663   2.020  0.2845  0.4228  0.2366
 9642TIP3    H150417   1.784   6.738   2.045  0.7597  0.3562 -0.5820
 9642TIP3    H250418   1.722   6.670   1.925  2.3973 -1.9459 -0.1515
 9643TIP3   OH250419   0.852   3.969  12.710 -0.0605 -0.3932  0.2059
 9643TIP3    H150420   0.853   3.880  12.744  0.2496 -0.0897  1.0018
 9643TIP3    H250421   0.800   4.018  12.774 -1.8869 -0.3992 -1.2326
 9644TIP3   OH250422   6.672   3.315   1.492  0.0418  0.2785 -0.0631
 9644TIP3    H150423   6.639   3.277   1.411  0.4257 -0.1694 -0.0090
 9644TIP3    H250424   6.761   3.282   1.501 -0.5407 -0.9746  1.3611
 9645TIP3   OH250425   5.809   0.857   3.210  0.4571 -0.0191 -0.0679
 9645TIP3    H150426   5.782   0.903   3.290  1.6030  0.7504 -0.1152
 9645TIP3    H250427   5.730   0.809   3.183  0.1143 -0.4542  1.6191
 9646TIP3   OH250428   4.677   2.218   1.130 -0.3230  0.1707  0.2617
 9646TIP3    H150429   4.583   2.205   1.112  0.0995 -0.3234 -1.6487
 9646TIP3    H250430   4.699   2.299   1.084  0.9214 -1.4583 -2.0865
 9647TIP3   OH250431   1.809   1.102   4.139  0.0526  0.7409 -0.8412
 9647TIP3    H150432   1.856   1.069   4.062  2.2447  3.7549 -0.8324
 9647TIP3    H250433   1.764   1.180   4.107  0.5206  1.6897  0.8039
 9648TIP3   OH250434   6.140   3.628   1.505 -1.0561  0.4637 -0.1272
 9648TIP3    H150435   6.161   3.661   1.593 -1.2190  0.1914  0.0152
 9648TIP3    H250436   6.077   3.691   1.470  0.4805  1.6435 -0.8094
 9649TIP3   OH250437   1.736   4.030  15.821 -0.3122  0.3725 -0.0921
 9649TIP3    H150438   1.643   4.045  15.836 -0.6850  1.1442 -2.8771
 9649TIP3    H250439   1.779   4.072  15.895 -2.1730  0.0657  1.1910
 9650TIP3   OH250440   1.622   2.800   4.698 -0.3027 -0.3808  0.6464
 9650TIP3    H150441   1.697   2.777   4.753  1.1190  0.6033 -0.8352
 9650TIP3    H250442   1.615   2.727   4.636  0.9349  0.6261 -0.7160
 9651TIP3   OH250443   0.942   5.743  13.169 -0.0988 -0.1285 -0.2615
 9651TIP3    H150444   0.852   5.722  13.192  0.0344  2.0039  2.5131
 9651TIP3    H250445   0.979   5.661  13.138 -2.1825 -1.6892  1.2541
 9652TIP3   OH250446   5.833   3.555   0.063 -0.6883  0.5931  0.7705
 9652TIP3    H150447   5.738   3.564   0.075 -1.0035  1.0043 -1.8618
 9652TIP3    H250448   5.869   3.639   0.091 -1.4110  1.5483 -1.0813
 9653TIP3   OH250449   3.248   5.899   4.618  0.0354  0.2737 -0.2640
 9653TIP3    H150450   3.167   5.895   4.566 -1.0868  1.3234  1.3454
 9653TIP3    H250451   3.223   5.866   4.704  0.9651  1.8833  0.6539
 9654TIP3   OH250452   6.774   1.846  16.180 -0.2338  0.0178  0.4627
 9654TIP3    H150453   6.713   1.891  16.123  0.2287  2.0628  1.5180
 9654TIP3    H250454   6.721   1.814  16.253 -0.3933 -0.1790  0.2594
 9655TIP3   OH250455   4.051   2.557  11.296  1.2427  0.3382 -0.2329
 9655TIP3    H150456   4.037   2.532  11.204 -0.9854 -1.9915  0.6882
 9655TIP3    H250457   4.135   2.516  11.319  1.9667  1.1896 -1.2864
 9656TIP3   OH250458   0.500   5.862  16.833 -0.1737 -0.0105  0.0082
 9656TIP3    H150459   0.448   5.879  16.754  0.1985 -0.1882 -0.2745
 9656TIP3    H250460   0.589   5.886  16.809 -0.2823  1.2168  0.8014
 9657TIP3   OH250461   0.895   2.750  11.533  0.4230 -0.4423  0.6528
 9657TIP3    H150462   0.915   2.697  11.456  1.5457  0.2079  0.4881
 9657TIP3    H250463   0.941   2.707  11.605  2.0751  0.7849  0.3604
 9658TIP3   OH250464   1.865   4.417   1.488  0.3796  0.1616  0.0595
 9658TIP3    H150465   1.859   4.496   1.434 -1.7343  1.3145  1.8786
 9658TIP3    H250466   1.948   4.426   1.534 -1.1462  2.8654  2.4615
 9659TIP3   OH250467   5.919   2.649  11.370 -0.3228  0.4206 -0.0747
 9659TIP3    H150468   5.879   2.657  11.456  1.4365  0.0594  0.7992
 9659TIP3    H250469   5.939   2.555  11.361 -0.5673  0.4442 -0.8962
 9660TIP3   OH250470   4.520   3.599  10.504  0.3421  0.4092  0.1911
 9660TIP3    H150471   4.437   3.621  10.545  0.0021 -0.0696 -0.2380
 9660TIP3    H250472   4.522   3.651  10.423 -0.1769 -0.6430 -0.5040
 9661TIP3   OH250473   3.822   4.630   2.273  0.5967  0.0474 -0.8398
 9661TIP3    H150474   3.754   4.666   2.216  1.0921  0.3343 -1.2537
 9661TIP3    H250475   3.904   4.650   2.228  0.8340 -3.0729 -1.9624
 9662TIP3   OH250476   5.774   5.208   1.649 -0.1884  0.3555 -0.1569
 9662TIP3    H150477   5.696   5.200   1.704  0.1941  0.6853  0.4325
 9662TIP3    H250478   5.772   5.298   1.617  0.5755  0.7152  0.7976
 9663TIP3   OH250479   2.420   5.825   3.752 -0.6642 -0.4798  0.1210
 9663TIP3    H150480   2.467   5.755   3.799 -1.2951 -0.6779  0.4588
 9663TIP3    H250481   2.413   5.896   3.816 -1.4175 -0.7049  0.2909
 9664TIP3   OH250482   1.872   1.329  14.041 -0.1504 -0.2435  0.1262
 9664TIP3    H150483   1.784   1.295  14.058  0.0669  0.3642  2.5426
 9664TIP3    H250484   1.872   1.417  14.079  0.8908  0.5522 -1.6279
 9665TIP3   OH250485   1.213   0.510   1.302  0.1614 -0.3012 -0.6620
 9665TIP3    H150486   1.188   0.420   1.282 -0.8849  0.2981 -2.1084
 9665TIP3    H250487   1.136   0.562   1.279  1.0688  1.0631 -0.6573
 9666TIP3   OH250488   4.628   4.267   2.912 -0.4322  0.1793 -0.2563
 9666TIP3    H150489   4.647   4.321   2.836 -0.5343 -0.2787 -0.6043
 9666TIP3    H250490   4.690   4.194   2.906 -0.6534 -0.0247 -0.0746
 9667TIP3   OH250491   5.438   3.318   2.425 -0.1408 -0.2872  0.1418
 9667TIP3    H150492   5.421   3.381   2.355  1.3310  0.1179  0.1303
 9667TIP3    H250493   5.470   3.240   2.379 -0.2070 -0.3985  0.2858
 9668TIP3   OH250494   5.814   4.530  13.288 -0.1242  0.7798 -0.0084
 9668TIP3    H150495   5.861   4.460  13.242 -0.8118 -0.1955  0.7203
 9668TIP3    H250496   5.852   4.530  13.376  0.0624  1.5022 -0.0962
 9669TIP3   OH250497   1.129   3.955  15.864  0.2164 -0.1048 -0.2671
 9669TIP3    H150498   1.219   3.986  15.851 -0.0994  0.5815 -0.8742
 9669TIP3    H250499   1.109   3.909  15.783  0.1792 -0.6568  0.0572
 9670TIP3   OH250500   0.601   6.651  11.523  0.1996 -0.0316 -0.9151
 9670TIP3    H150501   0.549   6.729  11.502  0.6855  0.3030 -0.8948
 9670TIP3    H250502   0.594   6.643  11.618  0.3974  0.1721 -0.8810
 9671TIP3   OH250503   2.735   0.296  15.534  0.1139  0.0120  0.1944
 9671TIP3    H150504   2.643   0.320  15.543 -0.0757 -0.6545  0.1160
 9671TIP3    H250505   2.780   0.349  15.600 -0.4692 -0.4302  0.9707
 9672TIP3   OH250506   0.371   3.234  13.313 -0.0726 -0.1960 -0.2488
 9672TIP3    H150507   0.298   3.263  13.258 -0.6397 -1.6712 -0.2815
 9672TIP3    H250508   0.351   3.143  13.334  2.3517 -0.9637 -1.2027
 9673TIP3   OH250509   5.482   4.769  17.234 -0.1879  0.3176 -0.1393
 9673TIP3    H150510   5.455   4.715  17.160 -0.1567 -0.2815  0.2793
 9673TIP3    H250511   5.562   4.727  17.266  0.4120  1.2240 -0.4541
 9674TIP3   OH250512   4.238   0.408   3.585  0.4028  0.2353 -0.6854
 9674TIP3    H150513   4.310   0.374   3.639 -1.7259 -3.0339  0.2592
 9674TIP3    H250514   4.217   0.493   3.623  1.2464 -0.4781  1.4557
 9675TIP3   OH250515   1.141   3.494  10.738 -0.0527  1.2199  0.3833
 9675TIP3    H150516   1.233   3.495  10.762  0.5564 -1.3270 -1.6243
 9675TIP3    H250517   1.094   3.485  10.821  1.5927  0.7219  1.2711
 9676TIP3   OH250518   2.093   5.570   2.331 -0.3090  0.0045 -0.1176
 9676TIP3    H150519   2.025   5.506   2.309  1.1214 -1.5814  0.0202
 9676TIP3    H250520   2.170   5.540   2.284  0.5880  1.2107  0.5693
 9677TIP3   OH250521   4.081   6.416   0.499 -0.0317 -0.3352  0.8939
 9677TIP3    H150522   4.088   6.496   0.551 -1.2777 -0.4369  1.2358
 9677TIP3    H250523   3.997   6.424   0.454  0.4092 -0.8803 -0.0380
 9678TIP3   OH250524   6.390   6.418  11.929 -0.3904 -0.3338  0.4593
 9678TIP3    H150525   6.391   6.331  11.969 -2.8771 -1.3612 -1.5470
 9678TIP3    H250526   6.310   6.459  11.963  0.9436  1.3654  1.6804
 9679TIP3   OH250527   3.558   1.244   2.314 -0.0615  0.1940 -0.0876
 9679TIP3    H150528   3.592   1.333   2.316 -0.8617  0.5207 -0.7400
 9679TIP3    H250529   3.483   1.246   2.374  0.1896 -0.1549  0.2416
 9680TIP3   OH250530   2.986   0.963  16.330 -0.5371 -0.2741 -0.0344
 9680TIP3    H150531   2.935   0.932  16.405  2.3413 -0.4856  1.9048
 9680TIP3    H250532   2.971   1.057  16.329  1.3333  0.1228  2.4213
 9681TIP3   OH250533   5.520   3.866  13.779  0.2224  0.0436 -0.0753
 9681TIP3    H150534   5.509   3.897  13.690  3.4559  0.6335 -0.3123
 9681TIP3    H250535   5.527   3.945  13.832 -0.1133 -0.2998  0.4877
 9682TIP3   OH250536   3.844   6.021  13.410  0.1587  0.3608 -0.0303
 9682TIP3    H150537   3.879   5.980  13.331 -0.4266 -1.7985  0.8050
 9682TIP3    H250538   3.809   6.105  13.379 -2.0887 -1.3985 -2.4770
 9683TIP3   OH250539   4.078   1.557   0.806 -0.2460  0.3864  0.1763
 9683TIP3    H150540   4.079   1.604   0.890  1.2875  1.1195 -0.2478
 9683TIP3    H250541   4.098   1.467   0.829 -1.3644  0.2743  0.7731
 9684TIP3   OH250542   0.892   6.260   5.688  0.4464 -0.4367  0.0787
 9684TIP3    H150543   0.901   6.248   5.594 -0.0188  1.9599 -0.2915
 9684TIP3    H250544   0.825   6.196   5.714  0.7681 -1.2891 -1.1550
 9685TIP3   OH250545   2.803   6.669  11.006 -0.0987 -0.0521 -0.0443
 9685TIP3    H150546   2.735   6.638  10.946 -1.0775 -1.6655  1.8287
 9685TIP3    H250547   2.880   6.615  10.985 -0.8338 -1.5523  1.0000
 9686TIP3   OH250548   6.092   5.595  14.973  0.2860 -0.5634 -0.4137
 9686TIP3    H150549   6.146   5.600  14.894 -0.1649 -2.1671 -0.8407
 9686TIP3    H250550   6.009   5.636  14.948  0.7663  0.5493 -0.2139
 9687TIP3   OH250551   0.519   0.581   2.899 -0.1901 -0.3952 -0.7215
 9687TIP3    H150552   0.515   0.516   2.970  1.5288 -0.5897 -0.7643
 9687TIP3    H250553   0.438   0.631   2.907 -0.9760 -1.7746  0.0705
 9688TIP3   OH250554   4.692   1.960  11.794 -0.0392  0.2651  0.0038
 9688TIP3    H150555   4.689   2.029  11.861  2.6090  2.2189 -1.7728
 9688TIP3    H250556   4.745   1.891  11.833  0.6440  0.9691  0.3561
 9689TIP3   OH250557   1.265   4.257   1.417  0.1617  0.4798 -0.3431
 9689TIP3    H150558   1.263   4.225   1.507  0.9195  0.0374 -0.4801
 9689TIP3    H250559   1.272   4.352   1.425  3.4669  0.2337  0.0799
 9690TIP3   OH250560   6.105   3.169  12.576  0.5287 -0.4690  0.3406
 9690TIP3    H150561   6.049   3.138  12.647  2.0886 -0.0356  1.7828
 9690TIP3    H250562   6.117   3.262  12.594  0.2927 -0.1706 -0.9491
 9691TIP3   OH250563   4.281   2.929   1.619  0.1113 -0.2260  0.0033
 9691TIP3    H150564   4.335   3.006   1.602 -1.1096  0.4740 -0.8068
 9691TIP3    H250565   4.266   2.930   1.713  0.6219  0.1774  0.0776
 9692TIP3   OH250566   4.128   4.705   0.083 -0.0825 -0.2593  0.6546
 9692TIP3    H150567   4.046   4.656   0.085  0.1030 -0.6802 -1.0537
 9692TIP3    H250568   4.135   4.743   0.170 -1.5892 -1.0404  1.1436
 9693TIP3   OH250569   1.968   2.031   0.292 -0.0736  0.5100 -0.5536
 9693TIP3    H150570   1.985   2.003   0.202 -3.3776 -1.4776 -0.6361
 9693TIP3    H250571   1.883   2.075   0.288 -1.0632 -1.0679  1.8498
 9694TIP3   OH250572   6.405   5.998  16.920 -0.3565 -0.2469 -0.3536
 9694TIP3    H150573   6.465   6.023  16.849 -0.3871 -0.4029 -0.4361
 9694TIP3    H250574   6.333   5.954  16.875 -0.3001 -0.4874 -0.2110
 9695TIP3   OH250575   6.804   0.157  10.698  0.1048 -0.2428 -0.4533
 9695TIP3    H150576   6.884   0.210  10.695  0.5195 -0.7367  1.2642
 9695TIP3    H250577   6.741   0.207  10.646  1.1647  0.7567 -0.8262
 9696TIP3   OH250578   4.703   3.600  14.890 -0.5548  0.0624 -0.3857
 9696TIP3    H150579   4.668   3.521  14.847  2.0682 -1.0684 -0.5024
 9696TIP3    H250580   4.791   3.575  14.918  0.7009  3.2769 -1.2778
 9697TIP3   OH250581   1.205   3.587   0.985 -0.4104 -0.3986  0.4326
 9697TIP3    H150582   1.222   3.644   1.060 -1.9463  0.9056 -0.1806
 9697TIP3    H250583   1.285   3.536   0.974  1.0772  1.8171  0.8454
 9698TIP3   OH250584   5.626   6.697   0.240 -0.1009  0.2204 -0.2061
 9698TIP3    H150585   5.660   6.608   0.235  0.0264  0.1942  0.9995
 9698TIP3    H250586   5.531   6.685   0.248 -0.1164  0.2050 -0.4125
 9699TIP3   OH250587   0.789   6.007   2.105 -0.2716 -0.0823 -0.0623
 9699TIP3    H150588   0.858   6.035   2.166 -0.7158 -0.8216  0.7960
 9699TIP3    H250589   0.836   5.978   2.027  0.3430  0.2991  0.1618
 9700TIP3   OH250590   2.556   6.487   5.290 -0.2491  0.4621  0.1300
 9700TIP3    H150591   2.612   6.548   5.242 -0.0415  0.0677 -0.1320
 9700TIP3    H250592   2.575   6.503   5.382  0.3323  0.2977  0.0389
 9701TIP3   OH250593   3.128   2.921  12.797 -0.2320 -0.0864  0.2370
 9701TIP3    H150594   3.149   2.837  12.757 -2.0930 -0.3540 -0.2220
 9701TIP3    H250595   3.209   2.972  12.790  0.2611 -1.0681 -1.4615
 9702TIP3   OH250596   5.346   3.241  12.823 -0.5528 -0.6391 -0.4763
 9702TIP3    H150597   5.294   3.256  12.902 -0.6299 -2.0512 -0.2461
 9702TIP3    H250598   5.432   3.277  12.844 -0.5706 -1.0184  0.2583
 9703TIP3   OH250599   5.027   2.414  11.338  0.0953 -0.0089  0.4612
 9703TIP3    H150600   5.021   2.320  11.353 -0.8370  0.0611  0.5722
 9703TIP3    H250601   4.958   2.451  11.393 -0.0831  0.6696 -0.2161
 9704TIP3   OH250602   1.230   1.422   2.913  0.5099  0.2519 -0.8308
 9704TIP3    H150603   1.322   1.450   2.910  0.3687  0.7508 -0.5551
 9704TIP3    H250604   1.228   1.353   2.979  0.8167 -0.2515 -1.3428
 9705TIP3   OH250605   5.042   1.767   1.293  0.3796 -0.0080 -0.0923
 9705TIP3    H150606   4.970   1.773   1.355  1.3956  2.0869  0.9499
 9705TIP3    H250607   5.080   1.680   1.307 -0.1411  0.0001  1.3882
 9706TIP3   OH250608   0.836   3.736   6.516 -0.7561  0.3197  0.0273
 9706TIP3    H150609   0.854   3.642   6.523 -0.4369  0.5762  2.9921
 9706TIP3    H250610   0.774   3.743   6.443 -1.3579 -2.2823  0.2448
 9707TIP3   OH250611   1.926   3.829  11.638 -0.1621 -0.0259  0.7137
 9707TIP3    H150612   2.001   3.836  11.578 -0.0415  1.3803  1.0202
 9707TIP3    H250613   1.849   3.842  11.582 -0.0494  1.2900  0.8508
 9708TIP3   OH250614   1.292   1.128  16.005 -0.1762  0.5401  0.3112
 9708TIP3    H150615   1.320   1.215  16.035 -0.2337  0.6663  0.0045
 9708TIP3    H250616   1.317   1.069  16.075  1.0644  0.6155 -0.0577
 9709TIP3   OH250617   0.650   4.135  11.549 -1.0349 -0.0402  0.3501
 9709TIP3    H150618   0.559   4.160  11.529 -1.2098  0.1123  1.2995
 9709TIP3    H250619   0.646   4.041  11.567 -1.1755  0.1370  1.2982
 9710TIP3   OH250620   0.233   5.931   2.781  0.9514  0.2286 -0.1170
 9710TIP3    H150621   0.285   5.889   2.850  1.7182 -1.3480 -1.6396
 9710TIP3    H250622   0.292   5.996   2.743  0.1300  1.9721  1.4832
 9711TIP3   OH250623   1.199   0.866   0.354 -0.3543 -0.3950  0.1885
 9711TIP3    H150624   1.247   0.794   0.311  1.3488  0.0001  1.3771
 9711TIP3    H250625   1.161   0.826   0.432 -1.0683 -0.4413 -0.1727
 9712TIP3   OH250626   4.019   4.534   0.459  0.2030  0.2523  0.2649
 9712TIP3    H150627   4.049   4.462   0.404 -0.1997  0.2671  0.0190
 9712TIP3    H250628   4.059   4.612   0.420  2.2981 -0.0332  1.7370
 9713TIP3   OH250629   6.202   1.425   0.689 -0.2653 -0.3135 -0.3510
 9713TIP3    H150630   6.264   1.495   0.709  0.7702 -1.3713  0.2535
 9713TIP3    H250631   6.245   1.374   0.619 -1.2090 -0.0817 -1.1071
 9714TIP3   OH250632   1.392   1.574   3.692  0.4549 -0.1493  0.0834
 9714TIP3    H150633   1.332   1.615   3.629  0.8160  1.3712  0.7013
 9714TIP3    H250634   1.338   1.558   3.770  0.4155 -0.4432 -0.0051
 9715TIP3   OH250635   5.807   6.283  13.494  0.1793  0.8853  0.1503
 9715TIP3    H150636   5.854   6.339  13.555  0.0999  1.9970 -0.7881
 9715TIP3    H250637   5.798   6.336  13.415  0.7312 -0.7150 -1.0046
 9716TIP3   OH250638   5.732   2.076  15.679  0.3043  0.3298  0.2253
 9716TIP3    H150639   5.663   2.129  15.718  1.6228  0.7323  2.0985
 9716TIP3    H250640   5.688   1.997  15.649 -1.5759  2.1104 -1.9098
 9717TIP3   OH250641   6.373   0.459  16.816  0.0028  0.2518  0.2071
 9717TIP3    H150642   6.329   0.523  16.761 -1.2120  0.2909  1.2097
 9717TIP3    H250643   6.302   0.406  16.853  0.9195 -0.9335  0.2963
 9718TIP3   OH250644   5.242   1.874  15.596  0.2064  0.4771 -0.3493
 9718TIP3    H150645   5.235   1.809  15.526 -1.7544 -0.7163  0.9213
 9718TIP3    H250646   5.183   1.945  15.569 -0.4829  0.0558  0.0332
 9719TIP3   OH250647   0.035   4.187   6.505  0.1698 -0.4361 -0.4919
 9719TIP3    H150648   0.026   4.273   6.464  3.1403 -0.4626 -1.2747
 9719TIP3    H250649  -0.044   4.140   6.478 -1.1199  1.7590 -0.7047
 9720TIP3   OH250650   0.307   2.182  16.086 -0.2940  0.0647  0.3885
 9720TIP3    H150651   0.352   2.193  16.002 -1.9376 -0.5614 -0.5931
 9720TIP3    H250652   0.350   2.244  16.145 -0.3535  1.8395 -1.3983
 9721TIP3   OH250653   1.336   0.746   0.005 -0.1408  0.0881  0.8603
 9721TIP3    H150654   1.310   0.719   0.093  1.5626  0.8677  1.6376
 9721TIP3    H250655   1.432   0.751   0.010  0.2337 -2.9234 -1.9110
 9722TIP3   OH250656   2.666   0.020   5.676 -0.4056  0.7767 -0.3678
 9722TIP3    H150657   2.690   0.020   5.769  0.3844 -0.6976 -0.5635
 9722TIP3    H250658   2.740   0.063   5.633  0.5376 -1.0739 -0.6272
 9723TIP3   OH250659   5.496   3.050  12.009  0.6647  0.3430 -0.1309
 9723TIP3    H150660   5.433   2.995  11.964  2.3390 -0.5659 -1.4363
 9723TIP3    H250661   5.444   3.120  12.048 -1.2130 -0.8367 -0.4791
 9724TIP3   OH250662   4.306   3.608  12.005 -0.5466 -0.6398  0.1126
 9724TIP3    H150663   4.230   3.596  11.948  1.0014 -0.5186 -2.0638
 9724TIP3    H250664   4.322   3.702  12.004 -1.3708 -0.4690  1.9364
 9725TIP3   OH250665   1.027   0.235   0.117  0.3171  0.8764  0.4426
 9725TIP3    H150666   1.067   0.155   0.083 -0.1782  0.8738 -0.1293
 9725TIP3    H250667   0.935   0.230   0.089  0.1742  1.4168  0.8089
 9726TIP3   OH250668   1.689   4.190   5.650  0.1731 -0.2699 -0.1033
 9726TIP3    H150669   1.750   4.247   5.603 -1.0619 -2.2310 -4.3275
 9726TIP3    H250670   1.742   4.116   5.678  0.4390 -0.2601 -0.5779
 9727TIP3   OH250671   2.777   2.239  14.641 -0.3321 -0.2490  0.0168
 9727TIP3    H150672   2.721   2.219  14.716 -0.2453  0.0834  0.1725
 9727TIP3    H250673   2.847   2.173  14.645 -1.1257 -1.1241 -0.6113
 9728TIP3   OH250674   2.743   1.141   0.142 -0.6509 -0.2324 -0.1241
 9728TIP3    H150675   2.745   1.221   0.090 -1.5408  1.9492  3.0445
 9728TIP3    H250676   2.650   1.126   0.159 -0.2885  0.4205  2.6930
 9729TIP3   OH250677   5.574   6.045  15.134  0.2810 -0.0940 -0.0077
 9729TIP3    H150678   5.480   6.065  15.137  0.4634  0.9358 -0.8195
 9729TIP3    H250679   5.612   6.097  15.205  0.5729  1.4340 -1.2712
 9730TIP3   OH250680   5.813   3.821   0.188 -0.1833 -0.2342 -0.1904
 9730TIP3    H150681   5.718   3.826   0.201 -0.2298 -2.4450  0.3816
 9730TIP3    H250682   5.850   3.840   0.274 -0.0707  0.8568 -0.4633
 9731TIP3   OH250683   6.084   2.877   0.969  0.2887  0.1671  0.4953
 9731TIP3    H150684   6.024   2.803   0.953  0.2482  0.3804 -0.3680
 9731TIP3    H250685   6.155   2.839   1.021  0.1453 -0.4326  0.2637
 9732TIP3   OH250686   5.781   4.223  10.318 -0.1627  0.3827 -0.6158
 9732TIP3    H150687   5.774   4.221  10.223 -0.0559  1.1707 -0.6430
 9732TIP3    H250688   5.867   4.185  10.336 -0.0845  0.4475 -0.8461
 9733TIP3   OH250689   0.582   5.555   5.933 -0.3160  0.3703  0.5053
 9733TIP3    H150690   0.490   5.534   5.947 -0.8449  2.5894  0.6231
 9733TIP3    H250691   0.623   5.541   6.019 -0.5462 -0.5688  0.4665
 9734TIP3   OH250692   1.431   2.184   4.673  0.1114  0.3953 -0.1010
 9734TIP3    H150693   1.358   2.235   4.636  1.5822  2.2442 -0.5189
 9734TIP3    H250694   1.389   2.124   4.734 -1.8490  0.9377 -0.8686
 9735TIP3   OH250695   4.669   2.450  12.664 -0.7356  0.4021  0.8692
 9735TIP3    H150696   4.582   2.438  12.627 -0.4369 -0.2606  0.3759
 9735TIP3    H250697   4.715   2.505  12.600 -1.1892  1.8031  1.7367
 9736TIP3   OH250698   4.347   4.713   5.670 -0.3379 -0.5412 -0.3302
 9736TIP3    H150699   4.362   4.804   5.645 -1.6991  0.0205  0.8495
 9736TIP3    H250700   4.427   4.687   5.715  0.2568 -0.0918 -1.1114
 9737TIP3   OH250701   6.014   3.182  15.267  0.2694 -0.0192 -0.1693
 9737TIP3    H150702   5.974   3.237  15.334 -0.8291 -0.5828 -0.3513
 9737TIP3    H250703   6.005   3.093  15.300  1.0094 -0.1941 -0.4115
 9738TIP3   OH250704   3.993   5.066  17.163  0.1198  0.1812  0.2734
 9738TIP3    H150705   4.067   5.119  17.135 -0.8496  1.5432  0.2475
 9738TIP3    H250706   3.945   5.122  17.224 -1.4125 -0.3218 -0.4317
 9739TIP3   OH250707   0.338   3.286   0.708 -0.6059 -0.4334  0.4040
 9739TIP3    H150708   0.268   3.257   0.767 -1.2363  1.2428  0.4844
 9739TIP3    H250709   0.294   3.343   0.645  0.8475  1.2983  0.9488
 9740TIP3   OH250710   2.518   0.603   5.166 -0.3075 -0.0979 -0.1648
 9740TIP3    H150711   2.566   0.614   5.084  2.3098 -0.3038  1.2740
 9740TIP3    H250712   2.515   0.508   5.179  1.1428 -0.0022  0.9922
 9741TIP3   OH250713   1.926   2.617   4.232 -0.6637 -0.0707 -0.1528
 9741TIP3    H150714   1.915   2.599   4.325 -0.6927 -1.7312 -0.4657
 9741TIP3    H250715   1.840   2.650   4.204  0.2119  3.4127  1.0235
 9742TIP3   OH250716   6.511   3.618  14.422 -0.2744  0.5343 -0.5204
 9742TIP3    H150717   6.551   3.697  14.456 -0.7912  1.1089 -1.2350
 9742TIP3    H250718   6.542   3.612  14.332 -0.5105  0.1146 -0.5751
 9743TIP3   OH250719   2.702   4.484  17.114  0.5629 -0.5525  0.5604
 9743TIP3    H150720   2.789   4.501  17.149  0.8249 -0.3032 -0.1965
 9743TIP3    H250721   2.643   4.496  17.189  0.9066  2.0783  0.4451
 9744TIP3   OH250722   2.916   3.583   3.899  0.1700  0.7273  0.4248
 9744TIP3    H150723   2.907   3.517   3.830  1.1223  0.1401  0.8533
 9744TIP3    H250724   2.971   3.541   3.965  0.1427  1.6732  1.0558
 9745TIP3   OH250725   1.822   1.269  16.509  0.4608 -0.3991  0.2404
 9745TIP3    H150726   1.816   1.360  16.538  3.0813 -0.3142  0.5818
 9745TIP3    H250727   1.802   1.217  16.587 -0.6002 -0.1393  0.1507
 9746TIP3   OH250728   1.011   6.065  15.911 -0.4374 -0.3606 -0.5740
 9746TIP3    H150729   0.952   6.139  15.932  0.3493  0.5276 -1.4591
 9746TIP3    H250730   1.089   6.082  15.963  0.4558  0.3989 -2.1462
 9747TIP3   OH250731   3.914   3.453   3.744  0.7478 -0.1111 -0.4746
 9747TIP3    H150732   3.935   3.359   3.737  1.4114  0.0728 -0.9883
 9747TIP3    H250733   3.989   3.490   3.791 -0.2391 -0.0907  1.1133
 9748TIP3   OH250734   5.318   4.462  14.577  0.5077  0.4469 -0.2859
 9748TIP3    H150735   5.302   4.420  14.662 -0.6636  1.5730  0.0670
 9748TIP3    H250736   5.412   4.453  14.564  0.3324 -1.9935 -0.0703
 9749TIP3   OH250737   4.745   2.993   1.624  0.7861 -0.5532  0.1025
 9749TIP3    H150738   4.740   2.985   1.528 -1.4053 -2.1451  0.3146
 9749TIP3    H250739   4.835   2.969   1.645  0.6943 -2.2816 -1.3889
 9750TIP3   OH250740   3.618   0.833  15.353 -0.1347  0.1734 -0.0473
 9750TIP3    H150741   3.584   0.876  15.431  1.6540  0.8164  0.3827
 9750TIP3    H250742   3.710   0.856  15.350  0.6143 -2.6743 -0.4549
 9751TIP3   OH250743   2.622   4.987   4.614 -0.1957 -0.1833 -0.2798
 9751TIP3    H150744   2.663   5.046   4.677 -0.0551 -0.8162  0.2289
 9751TIP3    H250745   2.595   4.911   4.666 -1.6789  0.0680 -0.6691
 9752TIP3   OH250746   0.137   2.821  11.850  0.1204  0.1000 -0.0690
 9752TIP3    H150747   0.187   2.793  11.927 -1.8955 -1.6784  0.6307
 9752TIP3    H250748   0.180   2.777  11.777  1.5416  1.1458  0.1117
 9753TIP3   OH250749   4.806   2.225   6.383  0.1026 -0.5835  0.7489
 9753TIP3    H150750   4.805   2.191   6.294 -1.3764 -0.6248  0.7675
 9753TIP3    H250751   4.814   2.148   6.439  0.0164 -0.6421  0.6807
 9754TIP3   OH250752   6.332   4.829   0.766  0.0991 -0.1131  0.0240
 9754TIP3    H150753   6.389   4.764   0.725 -0.0690 -0.0432 -0.3235
 9754TIP3    H250754   6.374   4.849   0.849  1.1092  0.7010 -0.6820
 9755TIP3   OH250755   4.813   2.915   0.248  0.2787 -0.3799  0.6124
 9755TIP3    H150756   4.902   2.911   0.212  0.4061 -2.0101  1.0999
 9755TIP3    H250757   4.760   2.866   0.185 -0.5752  1.8297 -0.4695
 9756TIP3   OH250758   5.325   6.005  12.286  0.0248  0.3336  0.0566
 9756TIP3    H150759   5.345   6.094  12.257 -0.8759  0.2646 -0.8011
 9756TIP3    H250760   5.340   6.007  12.381 -4.0488  2.5693  0.7572
 9757TIP3   OH250761   5.366   3.197   1.480 -0.4431  0.0500 -0.4900
 9757TIP3    H150762   5.381   3.103   1.469  2.9413  0.1798  2.1883
 9757TIP3    H250763   5.408   3.238   1.405 -2.2493 -0.5525 -1.8609
 9758TIP3   OH250764   4.722   6.170   0.846 -0.3023  0.0019 -0.0919
 9758TIP3    H150765   4.726   6.123   0.929 -1.8995  0.7517  0.4344
 9758TIP3    H250766   4.693   6.105   0.782 -1.0967 -0.0804  0.3515
 9759TIP3   OH250767   3.617   3.977  13.772  0.0093  0.0679 -0.0292
 9759TIP3    H150768   3.670   4.055  13.790 -0.1455  0.5366 -1.5653
 9759TIP3    H250769   3.536   4.012  13.734 -0.5793 -0.7693  0.4425
 9760TIP3   OH250770   0.236   6.047  15.839 -0.4610 -0.3922 -0.4685
 9760TIP3    H150771   0.151   6.088  15.852  0.3159  1.2929 -0.5106
 9760TIP3    H250772   0.237   5.974  15.901 -1.7491 -0.1505 -0.1513
 9761TIP3   OH250773   3.608   1.652  12.729  0.5029  0.0930 -0.3593
 9761TIP3    H150774   3.656   1.611  12.658  0.4055  1.6750 -1.3607
 9761TIP3    H250775   3.516   1.637  12.707  0.4516  1.4309 -1.0970
 9762TIP3   OH250776   3.687   2.533   1.428  0.0440 -0.6890  0.0325
 9762TIP3    H150777   3.615   2.596   1.424  2.0363  1.5823 -1.3247
 9762TIP3    H250778   3.679   2.482   1.348 -1.1191 -1.6564  0.7581
 9763TIP3   OH250779   1.718   5.869  15.139  0.0764 -0.0815 -0.6341
 9763TIP3    H150780   1.748   5.829  15.221  0.8258 -2.5407 -2.0762
 9763TIP3    H250781   1.798   5.880  15.087 -0.3148  1.9947 -0.8619
 9764TIP3   OH250782   1.370   0.436  17.030  0.4836  0.5585  0.1407
 9764TIP3    H150783   1.303   0.389  16.981  0.8347 -0.2205  0.4039
 9764TIP3    H250784   1.350   0.418  17.122  2.6223 -1.9176  0.1850
 9765TIP3   OH250785   1.892   4.990  15.749 -0.6626 -0.3030  0.8150
 9765TIP3    H150786   1.923   5.034  15.828 -1.3319  2.4558 -0.4148
 9765TIP3    H250787   1.797   4.988  15.759 -0.8380  1.1651 -0.4797
 9766TIP3   OH250788   6.059   0.322  13.505 -0.0582  0.1897  0.2984
 9766TIP3    H150789   6.094   0.233  13.497  1.5556  0.6906  1.4878
 9766TIP3    H250790   6.087   0.366  13.425 -0.2493 -0.1579  0.0370
 9767TIP3   OH250791   0.758   3.692  11.555 -0.0349 -0.3043  0.0984
 9767TIP3    H150792   0.687   3.733  11.505  2.4039  2.7674 -1.0523
 9767TIP3    H250793   0.788   3.620  11.499  1.8906  2.3802 -2.4676
 9768TIP3   OH250794   1.568   1.010  11.231 -0.1749  0.4009  0.6150
 9768TIP3    H150795   1.517   0.974  11.303  0.9742 -0.9640  0.7813
 9768TIP3    H250796   1.546   0.955  11.156  0.7858  0.0160  0.6098
 9769TIP3   OH250797   0.958   6.282   1.466  0.2446 -0.1113 -0.2919
 9769TIP3    H150798   0.934   6.298   1.557 -0.8833 -1.8050 -0.2635
 9769TIP3    H250799   0.874   6.277   1.419  0.8160  0.8365 -1.4397
 9770TIP3   OH250800   2.079   0.802  14.895 -0.4451  0.1629  0.1852
 9770TIP3    H150801   2.037   0.840  14.972 -1.0674  0.9848 -0.5529
 9770TIP3    H250802   2.015   0.740  14.861 -0.3164  0.0596  0.1329
 9771TIP3   OH250803   6.250   3.640   6.527  0.0012 -0.3965  0.1943
 9771TIP3    H150804   6.172   3.610   6.573  0.7001 -2.3006  0.1486
 9771TIP3    H250805   6.312   3.663   6.597 -0.2932  0.3411  0.2213
 9772TIP3   OH250806   1.600   5.367   2.662 -0.4734 -0.3576 -0.0951
 9772TIP3    H150807   1.612   5.304   2.590  1.4171  0.6627 -0.6883
 9772TIP3    H250808   1.644   5.327   2.737 -2.3213 -1.3535  0.4886
 9773TIP3   OH250809   1.419   5.488  16.135  0.3493  0.1383  0.3526
 9773TIP3    H150810   1.344   5.455  16.086 -1.7619  0.9956  2.8819
 9773TIP3    H250811   1.476   5.526  16.069 -2.8626  2.2025 -1.3571
 9774TIP3   OH250812   5.878   0.416  14.648 -0.3096 -0.5239  0.2938
 9774TIP3    H150813   5.872   0.507  14.618 -2.4257 -0.6271  0.3206
 9774TIP3    H250814   5.808   0.407  14.712  1.4098 -1.5256  2.1086
 9775TIP3   OH250815   3.024   1.159  14.752 -0.5700  0.3754  0.1325
 9775TIP3    H150816   3.005   1.077  14.707 -1.5990  1.4800 -1.4961
 9775TIP3    H250817   3.000   1.227  14.689  1.5026  1.9235  0.9580
 9776TIP3   OH250818   5.489   2.238   2.427 -0.3308 -0.3410 -0.4392
 9776TIP3    H150819   5.430   2.307   2.459  2.5179  2.0870 -0.2225
 9776TIP3    H250820   5.509   2.186   2.505  0.5653  0.9728  0.2319
 9777TIP3   OH250821   2.219   4.120   0.202 -0.2130 -0.1407 -0.3114
 9777TIP3    H150822   2.284   4.099   0.269  0.3629 -1.2462 -1.2079
 9777TIP3    H250823   2.192   4.210   0.222  0.5901 -0.1581  0.8735
 9778TIP3   OH250824   4.097   3.295   2.328  0.3014  0.0902 -0.3537
 9778TIP3    H150825   4.052   3.256   2.253 -1.3616  1.1656  0.0546
 9778TIP3    H250826   4.040   3.277   2.403  1.0563  0.5749  0.3512
 9779TIP3   OH250827   3.735   6.746   3.640  0.4351  0.1776  0.0670
 9779TIP3    H150828   3.792   6.786   3.575  2.5639 -0.0047  1.7905
 9779TIP3    H250829   3.652   6.793   3.632  1.9090  2.8086 -0.0857
 9780TIP3   OH250830   1.716   6.338   0.266 -0.2891 -0.2427 -0.4535
 9780TIP3    H150831   1.765   6.275   0.212  0.8614  0.3450 -0.1249
 9780TIP3    H250832   1.763   6.338   0.349  0.6328  2.1570 -0.9439
 9781TIP3   OH250833   3.737   3.835   1.390  0.0994 -0.1538  0.2349
 9781TIP3    H150834   3.805   3.901   1.404  0.3439 -0.6057  1.1879
 9781TIP3    H250835   3.778   3.752   1.414 -1.1072 -0.3044  1.8645
 9782TIP3   OH250836   4.743   0.038   4.899  0.0482 -0.5322  0.8065
 9782TIP3    H150837   4.787   0.011   4.979  0.2474 -0.4811  0.7141
 9782TIP3    H250838   4.814   0.058   4.838 -0.0741  1.3892  1.2691
 9783TIP3   OH250839   2.795   6.469   4.137  0.0746 -0.5178 -0.2523
 9783TIP3    H150840   2.887   6.478   4.164  0.2867 -1.5634 -0.6060
 9783TIP3    H250841   2.786   6.531   4.064  0.3420  0.0043  0.1482
 9784TIP3   OH250842   5.591   4.031   3.238  0.2794  0.1612  0.4412
 9784TIP3    H150843   5.679   4.012   3.268  0.7239  0.4752 -0.6262
 9784TIP3    H250844   5.591   4.125   3.221  0.0520 -0.0136 -0.5513
 9785TIP3   OH250845   1.955   5.356  12.504 -0.4798  0.2455 -0.1143
 9785TIP3    H150846   2.004   5.432  12.535  0.2632 -0.3620  0.2227
 9785TIP3    H250847   2.014   5.282  12.518 -0.8245 -0.2723 -1.3100
 9786TIP3   OH250848   6.478   4.998  15.974 -0.0434  0.3444  0.1426
 9786TIP3    H150849   6.417   4.994  15.901  0.0949 -2.2752  0.1278
 9786TIP3    H250850   6.424   5.023  16.049 -0.9154 -0.6649 -0.1322
 9787TIP3   OH250851   4.934   5.098   3.843 -0.2529  0.4191 -0.4570
 9787TIP3    H150852   4.964   5.138   3.761  1.1604  1.0779  0.3594
 9787TIP3    H250853   5.011   5.053   3.877 -0.5208  1.0511  1.0397
 9788TIP3   OH250854   5.791   0.383   2.164 -0.7925 -0.2312  0.4914
 9788TIP3    H150855   5.724   0.325   2.199 -1.7548  1.3096  1.2651
 9788TIP3    H250856   5.749   0.469   2.162  0.6487  0.4672 -0.4957
 9789TIP3   OH250857   3.895   1.963  16.946 -0.3941  0.1489  0.2031
 9789TIP3    H150858   3.912   1.888  16.888 -0.0951 -2.5090  3.5955
 9789TIP3    H250859   3.973   1.970  17.000 -1.3356  1.4932  1.4125
 9790TIP3   OH250860   4.532   6.147   0.085  0.3847 -0.1185  0.5419
 9790TIP3    H150861   4.480   6.220   0.117 -1.3703 -0.5559 -1.2030
 9790TIP3    H250862   4.564   6.103   0.164 -0.2444  1.3189  1.6082
 9791TIP3   OH250863   4.400   1.742   0.961  1.1115  0.0486  0.3545
 9791TIP3    H150864   4.360   1.801   1.024 -1.5753 -0.9282 -0.3607
 9791TIP3    H250865   4.416   1.796   0.884  0.8281  0.3670  0.5227
 9792TIP3   OH250866   3.015   3.989   0.241  0.5385 -0.2235  0.1679
 9792TIP3    H150867   2.958   4.027   0.308  1.5573  2.4145 -0.4077
 9792TIP3    H250868   3.013   3.895   0.259 -0.7486  0.2315  2.6825
 9793TIP3   OH250869   1.556   2.936  11.490  0.1925 -0.5994  0.1852
 9793TIP3    H150870   1.509   2.855  11.513  1.2907 -1.0391  0.9077
 9793TIP3    H250871   1.611   2.954  11.566  0.7892  0.2191 -0.4337
 9794TIP3   OH250872   5.675   4.226   5.071 -0.6380 -0.2778  0.2864
 9794TIP3    H150873   5.762   4.188   5.085 -1.3316 -1.5711  1.1272
 9794TIP3    H250874   5.614   4.160   5.103 -1.9028  1.1822  0.9406
 9795TIP3   OH250875   6.347   0.182  11.596 -0.2989  0.0263  0.3399
 9795TIP3    H150876   6.352   0.210  11.688  0.7930  0.8621  0.0423
 9795TIP3    H250877   6.297   0.250  11.553  1.1980  0.8595 -0.1240
 9796TIP3   OH250878   2.999   4.834   4.395  0.2876  0.0729 -0.0083
 9796TIP3    H150879   2.945   4.777   4.450  0.4530 -0.1159 -0.0407
 9796TIP3    H250880   2.941   4.907   4.372  0.4473  0.5334  1.0246
 9797TIP3   OH250881   2.034   2.552  11.257  0.4065 -0.2776  0.1394
 9797TIP3    H150882   2.051   2.639  11.222 -1.2192 -0.2072 -0.5287
 9797TIP3    H250883   1.976   2.512  11.193 -0.2583 -1.2166  1.3178
 9798TIP3   OH250884   4.135   0.746   3.987 -0.4969  0.3632 -0.5560
 9798TIP3    H150885   4.170   0.800   4.059 -0.9841  0.9440 -0.7497
 9798TIP3    H250886   4.050   0.784   3.968 -0.9696 -0.6606 -0.5106
 9799TIP3   OH250887   6.629   2.949   5.802 -0.4830  0.6122 -0.0169
 9799TIP3    H150888   6.547   2.900   5.802 -0.8854  1.2679 -0.6373
 9799TIP3    H250889   6.622   3.007   5.726  1.1217 -0.2520 -0.8598
 9800TIP3   OH250890   2.208   1.121  14.559 -0.2009 -0.7460  0.5574
 9800TIP3    H150891   2.165   1.202  14.588 -0.4947 -1.5946  2.6437
 9800TIP3    H250892   2.300   1.144  14.551 -0.7612  0.6992 -2.4357
 9801TIP3   OH250893   0.741   0.922  16.199  0.3650 -0.5016 -0.4280
 9801TIP3    H150894   0.821   0.943  16.151 -0.2357  0.1089 -1.1843
 9801TIP3    H250895   0.730   0.827  16.186  0.0115 -0.2897 -1.8479
 9802TIP3   OH250896   0.182   1.510   3.171  0.2257 -0.5257 -0.0342
 9802TIP3    H150897   0.272   1.523   3.142 -0.6416  2.0355 -1.7732
 9802TIP3    H250898   0.134   1.490   3.091 -1.2129  0.8855  0.4521
 9803TIP3   OH250899   5.289   4.214   1.758 -0.1845  0.5064 -0.1614
 9803TIP3    H150900   5.275   4.123   1.786 -0.6011 -0.1581 -2.4092
 9803TIP3    H250901   5.343   4.252   1.827  1.5609 -2.0016 -0.0681
 9804TIP3   OH250902   6.562   2.487  14.353  0.6241  0.3155  0.2495
 9804TIP3    H150903   6.612   2.469  14.274 -0.0578  0.6587 -0.2631
 9804TIP3    H250904   6.574   2.581  14.368 -0.5765  0.5697 -0.3665
 9805TIP3   OH250905   5.018   0.056   4.467  0.1831  0.0734  0.1516
 9805TIP3    H150906   5.012  -0.030   4.427  0.2679 -0.5967  1.5619
 9805TIP3    H250907   5.066   0.109   4.403 -0.9875 -0.5649 -1.2824
 9806TIP3   OH250908   2.633   2.627   5.719  0.1656 -0.0119  0.1506
 9806TIP3    H150909   2.558   2.567   5.714  0.6912 -0.5977 -0.9189
 9806TIP3    H250910   2.653   2.632   5.812  0.1007 -1.5060  0.2601
 9807TIP3   OH250911   1.028   4.194  15.414 -0.2339 -0.0150 -0.1197
 9807TIP3    H150912   1.051   4.126  15.350 -0.5181  0.6165 -0.8986
 9807TIP3    H250913   0.948   4.233  15.380  1.2846  2.4356 -1.0706
 9808TIP3   OH250914   0.378   1.772  16.512  0.3790 -0.5052 -0.0581
 9808TIP3    H150915   0.393   1.844  16.450  0.7528 -0.6656 -0.1570
 9808TIP3    H250916   0.453   1.714  16.499 -0.7847 -1.7801 -1.1809
 9809TIP3   OH250917   3.022   3.588   1.348  0.0477  0.0057 -0.0637
 9809TIP3    H150918   3.021   3.572   1.442  1.6918  0.6386  0.0672
 9809TIP3    H250919   3.100   3.641   1.333 -1.0884  1.2920 -1.5703
 9810TIP3   OH250920   0.774   6.740  14.527  0.4135  0.2229  0.1718
 9810TIP3    H150921   0.701   6.701  14.575  1.5009 -1.6351  0.3426
 9810TIP3    H250922   0.832   6.775  14.594  0.1933  0.8110  0.0648
 9811TIP3   OH250923   6.132   6.470   5.081  0.3320 -0.1893  0.4342
 9811TIP3    H150924   6.225   6.487   5.074 -0.0795  2.1788  0.4286
 9811TIP3    H250925   6.095   6.503   5.000 -0.5109 -1.2799  0.3546
 9812TIP3   OH250926   1.172   3.797   5.782  0.2600 -0.2566  0.1228
 9812TIP3    H150927   1.086   3.832   5.756  0.0856 -1.3355 -0.7503
 9812TIP3    H250928   1.215   3.872   5.824 -0.7144  0.5845 -0.3259
 9813TIP3   OH250929   3.300   6.469  13.986  0.0545 -0.1551 -0.6112
 9813TIP3    H150930   3.365   6.489  14.053 -0.1644 -1.1469 -0.0911
 9813TIP3    H250931   3.334   6.391  13.942 -1.1268 -1.1058  0.1347
 9814TIP3   OH250932   1.779   6.286  12.296 -0.0914  0.3643 -0.6192
 9814TIP3    H150933   1.766   6.198  12.262  0.0289 -0.7900  2.1886
 9814TIP3    H250934   1.822   6.274  12.380 -0.8859  3.0469  0.2532
 9815TIP3   OH250935   5.833   5.365   0.477  0.4251  0.2037 -0.0806
 9815TIP3    H150936   5.768   5.299   0.454  2.2638 -2.3417  1.7509
 9815TIP3    H250937   5.876   5.386   0.394 -1.4560  0.5441 -0.9882
 9816TIP3   OH250938   0.020   5.316   4.645 -0.1028  0.1337 -0.1832
 9816TIP3    H150939  -0.019   5.260   4.713  2.7643 -1.5091  0.1688
 9816TIP3    H250940   0.065   5.385   4.694  2.1150 -1.1500 -0.3533
 9817TIP3   OH250941   0.150   2.115  10.565  0.1876 -0.2339  0.2990
 9817TIP3    H150942   0.212   2.175  10.523  0.1972  0.1007  0.7864
 9817TIP3    H250943   0.185   2.028  10.547  1.0976 -0.0321  1.0189
 9818TIP3   OH250944   5.346   1.378  12.439 -0.0854  0.4332  0.2703
 9818TIP3    H150945   5.402   1.443  12.483  1.1224  0.1933 -0.8670
 9818TIP3    H250946   5.294   1.339  12.509 -0.2326  2.0426  1.0898
 9819TIP3   OH250947   4.832   6.407  15.165  0.5862 -0.0714  0.0243
 9819TIP3    H150948   4.846   6.498  15.141  1.4656 -0.1116  0.3516
 9819TIP3    H250949   4.920   6.373  15.183  0.1862 -0.7385  0.7741
 9820TIP3   OH250950   1.541   3.596  11.915  0.2436  0.5063 -0.4568
 9820TIP3    H150951   1.472   3.610  11.850 -2.1699  0.1155  1.9630
 9820TIP3    H250952   1.511   3.522  11.967  2.4911  0.3263  0.6395
 9821TIP3   OH250953   2.048   0.548  11.490 -0.2469  0.3382  0.3077
 9821TIP3    H150954   2.086   0.487  11.552  1.0406 -0.9079 -1.6364
 9821TIP3    H250955   1.994   0.606  11.543  1.3481 -0.2507  2.6636
 9822TIP3   OH250956   2.045   5.356  15.603  0.5376  0.0280  0.9134
 9822TIP3    H150957   2.111   5.309  15.655  0.2730 -0.9976  0.3318
 9822TIP3    H250958   2.088   5.370  15.518  0.5365  0.6482  1.0181
 9823TIP3   OH250959   6.760   2.898   5.541  0.3151 -0.3259 -0.4992
 9823TIP3    H150960   6.716   2.982   5.554 -0.4799 -0.9316  0.8349
 9823TIP3    H250961   6.784   2.897   5.448 -0.3428  1.0413 -0.6925
 9824TIP3   OH250962   5.615   0.084   3.258  0.2644  0.5082  0.2270
 9824TIP3    H150963   5.634   0.013   3.320  0.6479  0.2691 -0.1567
 9824TIP3    H250964   5.697   0.095   3.209 -0.3702 -0.1017 -1.0166
 9825TIP3   OH250965   4.698   1.160   4.723 -0.2254  0.1584 -0.4425
 9825TIP3    H150966   4.659   1.087   4.772 -2.4471  0.2876 -1.9517
 9825TIP3    H250967   4.750   1.118   4.655 -2.0347 -0.0894 -1.7302
 9826TIP3   OH250968   2.102   1.610  12.470 -0.1331  0.3570  0.2631
 9826TIP3    H150969   2.123   1.534  12.524 -0.2382 -0.1041 -0.3393
 9826TIP3    H250970   2.129   1.585  12.382  0.0496  1.1097  0.1062
 9827TIP3   OH250971   4.185   4.826  11.656  0.2418 -0.6193  0.0347
 9827TIP3    H150972   4.178   4.903  11.712  1.5948 -0.5974  0.1827
 9827TIP3    H250973   4.134   4.848  11.578 -0.8687 -0.2856  0.8497
 9828TIP3   OH250974   5.529   1.196  16.482  0.1869 -0.0284 -0.3500
 9828TIP3    H150975   5.531   1.101  16.496  0.2160 -0.0876 -0.7365
 9828TIP3    H250976   5.513   1.205  16.388  2.5825  0.3333 -0.7637
 9829TIP3   OH250977   3.121   0.091   4.378  0.5173  0.3478 -0.3105
 9829TIP3    H150978   3.176   0.017   4.352  0.0675  0.5928 -2.0125
 9829TIP3    H250979   3.135   0.099   4.473  1.5055 -1.1378 -0.3090
 9830TIP3   OH250980   5.909   0.336   1.583 -0.0718  0.0300  0.3935
 9830TIP3    H150981   5.934   0.283   1.507 -0.7577  2.2360 -1.4154
 9830TIP3    H250982   5.858   0.276   1.637  1.7035 -2.0165 -0.1013
 9831TIP3   OH250983   3.975   2.405   3.233 -0.8125 -0.0789  0.3796
 9831TIP3    H150984   3.979   2.347   3.309  1.2139 -0.5757 -0.0762
 9831TIP3    H250985   3.916   2.361   3.172  1.5669 -2.2301 -0.4145
 9832TIP3   OH250986   0.355   0.729   5.559  0.2408 -0.4163  0.0435
 9832TIP3    H150987   0.336   0.822   5.572 -0.7747 -0.3210 -1.9496
 9832TIP3    H250988   0.398   0.702   5.640  0.0009  1.6393  0.8898
 9833TIP3   OH250989   0.905   2.855  13.977 -0.1068 -0.7277  0.4508
 9833TIP3    H150990   0.996   2.880  13.994  0.0931 -0.8717 -0.3814
 9833TIP3    H250991   0.880   2.802  14.053 -0.1922  1.1042  1.7220
 9834TIP3   OH250992   1.717   0.211  11.346  0.2644  0.1960  0.4440
 9834TIP3    H150993   1.764   0.224  11.264  1.5647 -1.8806  0.8388
 9834TIP3    H250994   1.656   0.139  11.329  0.6152 -0.3177  1.3321
 9835TIP3   OH250995   4.994   6.305  16.646 -0.1323 -0.5692  0.0679
 9835TIP3    H150996   5.071   6.267  16.605 -0.0198 -0.4001  0.1192
 9835TIP3    H250997   4.921   6.280  16.589 -0.1044 -1.1260  0.2719
 9836TIP3   OH250998   4.495   1.934  13.066 -0.4692 -0.3894  0.4546
 9836TIP3    H150999   4.457   2.002  13.122  0.0040 -0.5893  1.0356
 9836TIP3    H251000   4.548   1.981  13.003 -0.1291 -0.2144  0.8677
 9837TIP3   OH251001   2.162   4.550  17.179  0.3655  0.0274 -0.4659
 9837TIP3    H151002   2.108   4.493  17.125  2.0680 -0.3168 -1.8866
 9837TIP3    H251003   2.161   4.634  17.133  1.3945 -0.1145 -0.7732
 9838TIP3   OH251004   2.027   3.780  11.145 -0.3665 -0.4294 -0.0505
 9838TIP3    H151005   2.090   3.724  11.191 -0.4352 -1.7429 -1.5033
 9838TIP3    H251006   2.070   3.803  11.063 -1.2806 -0.3062 -0.4985
 9839TIP3   OH251007   3.598   0.697   2.050 -0.1238 -0.2994 -0.4165
 9839TIP3    H151008   3.637   0.615   2.081 -2.2121 -1.5805 -1.1412
 9839TIP3    H251009   3.549   0.731   2.125  1.1481  0.5768  0.0422
 9840TIP3   OH251010   5.938   3.740   1.723  0.4320 -0.3732 -0.2078
 9840TIP3    H151011   5.993   3.676   1.769 -0.5618 -1.3204 -0.3313
 9840TIP3    H251012   5.864   3.689   1.690 -0.0549  0.7328 -0.8386
 9841TIP3   OH251013   4.642   6.036   3.328 -0.0792 -0.1613 -0.2146
 9841TIP3    H151014   4.554   6.004   3.307 -0.7571  0.5983  1.3922
 9841TIP3    H251015   4.632   6.131   3.332  0.6363 -0.1329  0.7978
 9842TIP3   OH251016   1.830   2.096   3.113  0.5612 -0.0412 -0.4972
 9842TIP3    H151017   1.760   2.147   3.155  0.2062 -0.6817 -0.3103
 9842TIP3    H251018   1.790   2.060   3.035  0.9256  0.2860 -0.8363
 9843TIP3   OH251019   5.557   2.236   0.441 -0.0388  0.0586 -0.0817
 9843TIP3    H151020   5.518   2.313   0.399 -0.1308  0.3992  0.6320
 9843TIP3    H251021   5.587   2.182   0.368  3.0708  2.3320 -0.5511
 9844TIP3   OH251022   0.563   5.186   0.387  0.2232  0.5836  0.3619
 9844TIP3    H151023   0.505   5.157   0.316 -0.5918 -0.6751  1.5251
 9844TIP3    H251024   0.576   5.108   0.441  1.4565  1.3408  1.1900
 9845TIP3   OH251025   3.589   3.499   1.009 -0.3742  0.2222  0.1089
 9845TIP3    H151026   3.668   3.446   1.020  0.7015  1.8399  0.2637
 9845TIP3    H251027   3.548   3.463   0.930  1.1470  0.1540 -0.6846
 9846TIP3   OH251028   0.716   4.535  12.877 -0.3377  0.7923 -0.5789
 9846TIP3    H151029   0.633   4.510  12.917  1.1531 -0.0120  2.1075
 9846TIP3    H251030   0.695   4.613  12.826 -2.4710  1.4072  1.1485
 9847TIP3   OH251031   5.877   2.821  12.761 -0.4562  0.0011  0.2999
 9847TIP3    H151032   5.919   2.752  12.813  1.1064 -0.3700 -1.4216
 9847TIP3    H251033   5.796   2.841  12.809  0.2666 -1.3092  2.1158
 9848TIP3   OH251034   4.427   6.653   1.965 -0.6248 -0.1927  0.3548
 9848TIP3    H151035   4.407   6.742   1.994 -0.0586 -0.3208  1.1631
 9848TIP3    H251036   4.356   6.599   2.001 -1.5135  0.0554 -0.9629
 9849TIP3   OH251037   5.916   4.056   2.890 -0.3337 -0.0963 -0.2776
 9849TIP3    H151038   5.953   4.108   2.818 -0.0618 -1.6150 -1.2580
 9849TIP3    H251039   5.826   4.040   2.864  0.0297 -1.4298 -0.7196
 9850TIP3   OH251040   5.083   1.709  13.590  0.1481 -0.7620  0.4551
 9850TIP3    H151041   5.055   1.738  13.503  0.4587 -0.9048  0.3068
 9850TIP3    H251042   5.042   1.771  13.651  2.4340  1.2688  0.0247
 9851TIP3   OH251043   2.476   5.319  14.056 -0.4582 -0.3952  0.5654
 9851TIP3    H151044   2.495   5.411  14.075  0.4154 -0.1072 -1.4974
 9851TIP3    H251045   2.389   5.320  14.016 -0.2392 -0.3917  0.0823
 9852TIP3   OH251046   5.919   1.632  15.589 -0.7039  0.7069  0.2047
 9852TIP3    H151047   5.860   1.652  15.516 -0.8845 -1.4540 -0.2732
 9852TIP3    H251048   5.870   1.655  15.667 -1.3468  1.0026 -0.2839
 9853TIP3   OH251049   1.237   5.043   6.278  0.2669 -0.5561 -0.2601
 9853TIP3    H151050   1.163   5.101   6.262 -0.2794 -0.9430  0.8491
 9853TIP3    H251051   1.254   5.051   6.372  0.8353 -1.4119 -0.2890
 9854TIP3   OH251052   1.771   6.005  17.128 -0.0230 -0.5032  0.5206
 9854TIP3    H151053   1.715   5.927  17.122 -1.0143  0.2803 -0.3532
 9854TIP3    H251054   1.778   6.021  17.222 -0.5665 -1.1158  0.6714
 9855TIP3   OH251055   2.472   6.312   4.828  0.0981  0.3929  0.0796
 9855TIP3    H151056   2.499   6.229   4.867  1.5764  0.1574 -1.3801
 9855TIP3    H251057   2.376   6.309   4.827  0.1321 -0.9352  0.7867
 9856TIP3   OH251058   1.623   1.222   3.198 -0.2652 -0.2083  0.1096
 9856TIP3    H151059   1.655   1.312   3.203 -1.4062  0.1366  1.3666
 9856TIP3    H251060   1.689   1.176   3.146  0.4504  1.2896 -0.3395
 9857TIP3   OH251061   4.800   0.255  12.175 -0.1348 -0.4859  0.3468
 9857TIP3    H151062   4.883   0.302  12.176 -0.3288 -0.1345 -0.3688
 9857TIP3    H251063   4.800   0.206  12.258  1.3321 -1.4672 -0.2141
 9858TIP3   OH251064   3.969   4.948  10.538  0.8369  0.0584 -0.3125
 9858TIP3    H151065   3.915   5.011  10.585 -0.0499 -0.9569  0.0388
 9858TIP3    H251066   3.911   4.875  10.519  1.7255 -0.4442 -1.1640
 9859TIP3   OH251067   4.101   4.153   0.691  0.2959  0.5279  0.5911
 9859TIP3    H151068   4.041   4.226   0.701 -0.6416 -0.4719  2.5162
 9859TIP3    H251069   4.096   4.130   0.598 -0.1852  2.2181  0.1840
 9860TIP3   OH251070   2.720   4.756  11.463 -0.0211  0.4317 -0.8266
 9860TIP3    H151071   2.778   4.820  11.422 -1.8894  2.5333 -0.3115
 9860TIP3    H251072   2.759   4.740  11.549  1.2481 -0.2660 -1.5167
 9861TIP3   OH251073   3.490   2.668  16.027 -0.2668 -0.2042 -0.0331
 9861TIP3    H151074   3.552   2.619  15.974  0.6272  0.4427  0.3925
 9861TIP3    H251075   3.406   2.658  15.982  0.0771 -1.3649 -0.4309
 9862TIP3   OH251076   5.792   1.649   3.102 -0.3097 -0.2455 -0.1551
 9862TIP3    H151077   5.782   1.574   3.160 -1.3559 -0.4352 -0.5794
 9862TIP3    H251078   5.866   1.626   3.046 -0.6263 -0.9610 -0.2803
 9863TIP3   OH251079   0.632   2.630  16.824 -0.4578  0.1259  0.1206
 9863TIP3    H151080   0.572   2.574  16.872 -0.2782  1.9730  2.5720
 9863TIP3    H251081   0.716   2.617  16.866  0.6915 -1.5890 -2.5810
 9864TIP3   OH251082   3.636   4.043  13.234  0.4763  0.2247  0.1691
 9864TIP3    H151083   3.719   4.019  13.275 -0.9079  0.4751  3.2519
 9864TIP3    H251084   3.659   4.062  13.143  3.9345  1.1458  1.1552
 9865TIP3   OH251085   5.607   5.155   3.646 -0.1290 -0.5634  0.1561
 9865TIP3    H151086   5.544   5.208   3.694 -1.4867 -0.7957 -1.3209
 9865TIP3    H251087   5.657   5.109   3.714 -2.3065 -1.2225  1.3521
 9866TIP3   OH251088   4.839   3.100   0.447 -0.0135  0.0508 -0.6123
 9866TIP3    H151089   4.920   3.141   0.416  0.2228 -0.8348 -1.2138
 9866TIP3    H251090   4.817   3.037   0.378 -1.0533  0.0742 -0.3080
 9867TIP3   OH251091   6.545   2.223  16.540 -0.2820 -0.8535  0.7648
 9867TIP3    H151092   6.636   2.253  16.540 -0.2972 -0.8057  0.6457
 9867TIP3    H251093   6.501   2.279  16.475 -1.0247  1.0540  2.8455
 9868TIP3   OH251094   0.307   3.778  13.442  0.1173 -0.2559  0.2874
 9868TIP3    H151095   0.248   3.823  13.502  0.3214  2.1696 -1.2769
 9868TIP3    H251096   0.251   3.718  13.393 -0.4648 -0.4166  1.1441
 9869TIP3   OH251097   6.449   6.712  16.333  0.0577 -0.4574 -0.3390
 9869TIP3    H151098   6.421   6.803  16.337  1.4828  0.0575 -1.6849
 9869TIP3    H251099   6.368   6.663  16.317 -0.8087  0.4819  1.0053
 9870TIP3   OH251100   1.059   6.774  16.866 -0.5669 -0.5168 -0.5009
 9870TIP3    H151101   1.143   6.729  16.875 -0.1436  0.2797 -0.4289
 9870TIP3    H251102   0.997   6.719  16.913 -0.5468 -2.3473 -2.5078
 9871TIP3   OH251103   5.652   5.408  15.871 -0.3465  0.4501 -0.0587
 9871TIP3    H151104   5.623   5.462  15.798 -2.4146 -1.0054 -0.3544
 9871TIP3    H251105   5.695   5.333  15.830  0.1037  0.5141  0.2863
 9872TIP3   OH251106   4.541   1.360   2.667 -0.3189 -0.5737  0.5700
 9872TIP3    H151107   4.457   1.387   2.630  0.6481  1.7425  0.0450
 9872TIP3    H251108   4.606   1.384   2.602  0.8894 -1.3426  1.4604
 9873TIP3   OH251109   2.766   5.570  15.020 -0.3217  0.1666  0.0660
 9873TIP3    H151110   2.847   5.562  14.970 -0.6956 -0.9448 -0.3956
 9873TIP3    H251111   2.724   5.484  15.011 -0.7651  0.2014  1.6539
 9874TIP3   OH251112   2.298   2.594  14.737 -0.0021  0.0522  0.3002
 9874TIP3    H151113   2.260   2.507  14.722  0.7479 -0.1434 -0.5163
 9874TIP3    H251114   2.298   2.604  14.832  3.3721 -2.4199  0.6409
 9875TIP3   OH251115   5.161   0.489   1.401  0.7124 -0.2309  0.2092
 9875TIP3    H151116   5.230   0.536   1.355 -0.6548  1.1294 -0.4794
 9875TIP3    H251117   5.102   0.459   1.333 -1.4245  1.9626  1.0472
 9876TIP3   OH251118   6.678   5.263  11.649 -0.3474  0.4307 -0.2996
 9876TIP3    H151119   6.625   5.342  11.662 -0.7543  0.0709  0.2721
 9876TIP3    H251120   6.703   5.266  11.557  0.3050  1.6331 -0.0997
 9877TIP3   OH251121   4.388   5.603  11.956 -0.3385  0.0015 -0.3048
 9877TIP3    H151122   4.340   5.667  11.904  1.6130  0.7537 -1.1954
 9877TIP3    H251123   4.397   5.527  11.899 -0.5191 -0.1661 -0.1124
 9878TIP3   OH251124   1.854   0.644  12.397 -0.1296 -0.7423 -0.4505
 9878TIP3    H151125   1.802   0.670  12.321 -2.7144 -2.0023  0.8373
 9878TIP3    H251126   1.791   0.606  12.457  2.1441 -1.2892  1.6521
 9879TIP3   OH251127   4.058   2.587  12.252  0.2847 -0.3579 -0.0912
 9879TIP3    H151128   4.106   2.516  12.295 -1.1198 -1.5132 -0.3798
 9879TIP3    H251129   4.046   2.653  12.320  0.2817 -1.0765  0.6140
 9880TIP3   OH251130   0.710   2.147   5.571 -0.4732 -0.0998  0.0286
 9880TIP3    H151131   0.711   2.146   5.475 -0.9155 -0.6007  0.0260
 9880TIP3    H251132   0.681   2.059   5.595  0.4224 -0.2294  0.6315
 9881TIP3   OH251133   3.611   4.714   3.242 -0.1245  0.1772  0.1578
 9881TIP3    H151134   3.636   4.708   3.334  0.7159 -0.2837 -0.0934
 9881TIP3    H251135   3.534   4.771   3.242 -0.9118 -0.8452  1.2889
 9882TIP3   OH251136   2.170   2.668   3.003  0.9240 -0.1931 -0.2843
 9882TIP3    H151137   2.168   2.663   3.099 -0.8430 -1.1880 -0.3430
 9882TIP3    H251138   2.096   2.724   2.980  0.9145 -0.5293 -1.0967
 9883TIP3   OH251139   4.575   3.688   2.822 -0.4956 -0.6105 -0.1064
 9883TIP3    H151140   4.655   3.728   2.854 -0.1157 -0.2765 -1.4553
 9883TIP3    H251141   4.527   3.759   2.778 -2.2714 -0.4335  2.0109
 9884TIP3   OH251142   5.618   3.086  13.444  0.3427  0.1945  0.3063
 9884TIP3    H151143   5.576   3.061  13.527  0.5655  1.3586  0.7768
 9884TIP3    H251144   5.710   3.066  13.457  0.2748 -0.2782  0.0786
 9885TIP3   OH251145   3.733   2.175   4.531 -0.2243 -0.2130 -0.1673
 9885TIP3    H151146   3.700   2.258   4.498 -0.3746 -0.2196 -0.0330
 9885TIP3    H251147   3.724   2.114   4.458  1.0225  0.1813 -0.6718
 9886TIP3   OH251148   6.349   1.799   4.433 -0.5532  0.0610 -0.3234
 9886TIP3    H151149   6.414   1.796   4.502 -0.6573  2.8897 -0.0530
 9886TIP3    H251150   6.354   1.712   4.392  2.5601 -0.1691  0.4046
 9887TIP3   OH251151   1.200   3.894   3.619  0.9122 -0.8144 -0.6906
 9887TIP3    H151152   1.165   3.950   3.549  1.2359  0.0932 -0.1278
 9887TIP3    H251153   1.295   3.907   3.615  0.8585  0.0099  0.5631
 9888TIP3   OH251154   5.588   0.866  10.535 -0.1844  0.0378  0.1076
 9888TIP3    H151155   5.492   0.864  10.542 -0.3447  0.6748 -1.6069
 9888TIP3    H251156   5.609   0.796  10.474 -0.0078  3.0057 -3.4052
 9889TIP3   OH251157   0.073   5.586   6.467  0.3229 -0.4812 -0.4474
 9889TIP3    H151158   0.140   5.544   6.412  0.0897  0.2455 -1.2930
 9889TIP3    H251159   0.112   5.669   6.494  0.1787 -0.5406 -0.0567
 9890TIP3   OH251160   2.306   0.527  13.335  0.5111  0.0083 -0.1892
 9890TIP3    H151161   2.330   0.442  13.299  3.7308  0.7675  0.0439
 9890TIP3    H251162   2.327   0.521  13.429  2.2288  1.5353 -0.4508
 9891TIP3   OH251163   5.611   3.772  14.765 -0.6036  0.1649  0.4014
 9891TIP3    H151164   5.626   3.863  14.790 -3.0772  0.0857  2.4084
 9891TIP3    H251165   5.519   3.770  14.737  0.1128 -1.2333 -1.9623
 9892TIP3   OH251166   6.484   0.175   1.077 -0.0838 -0.0240 -0.4782
 9892TIP3    H151167   6.419   0.222   1.025  0.4105  0.3020 -0.8069
 9892TIP3    H251168   6.432   0.121   1.137 -0.7018 -1.8109 -2.5575
 9893TIP3   OH251169   5.375   1.536  17.115  0.2378  0.1357  0.5450
 9893TIP3    H151170   5.315   1.471  17.078 -2.5779  1.1495  3.0956
 9893TIP3    H251171   5.420   1.490  17.186  0.1503  0.2276  0.6599
 9894TIP3   OH251172   2.784   4.732  11.773  0.2496  0.3802 -0.0291
 9894TIP3    H151173   2.839   4.805  11.800  0.4648 -0.0365  0.6761
 9894TIP3    H251174   2.805   4.662  11.835  1.5746 -0.9780 -1.9861
 9895TIP3   OH251175   2.327   2.463   5.604  0.6289 -0.4252  0.4853
 9895TIP3    H151176   2.244   2.484   5.646  0.5871 -0.5385  0.4591
 9895TIP3    H251177   2.383   2.431   5.676  1.0057  0.6696  0.6935
 9896TIP3   OH251178   3.852   3.145  12.582  0.0666  0.1562 -0.6503
 9896TIP3    H151179   3.894   3.230  12.574 -0.5464  0.3778 -1.5711
 9896TIP3    H251180   3.858   3.107  12.494 -0.1239 -0.5319 -0.3707
 9897TIP3   OH251181   4.859   5.909   3.247  0.3339  0.7143  0.4061
 9897TIP3    H151182   4.924   5.964   3.291 -0.2406  1.4563  0.3555
 9897TIP3    H251183   4.775   5.947   3.273 -0.0411  0.4999 -0.4737
 9898TIP3   OH251184   6.396   2.101   5.381 -0.0086 -0.1574  0.1659
 9898TIP3    H151185   6.318   2.064   5.340 -0.0749 -0.3610  0.4716
 9898TIP3    H251186   6.380   2.093   5.475  0.0893  0.4126  0.2332
 9899TIP3   OH251187   5.488   0.052   1.385 -0.2164 -0.2513  0.2206
 9899TIP3    H151188   5.403   0.041   1.344 -1.3765  0.6978  2.2875
 9899TIP3    H251189   5.501  -0.028   1.436  1.3477 -1.5538 -2.0963
 9900TIP3   OH251190   0.044   6.455   5.505 -0.1829  0.9334  0.1456
 9900TIP3    H151191   0.053   6.454   5.600  0.6971 -3.2126  0.1155
 9900TIP3    H251192  -0.050   6.465   5.490 -0.7494 -1.6571  1.5926
 9901TIP3   OH251193   2.000   0.389  13.838 -0.1427 -0.0947 -0.6376
 9901TIP3    H151194   2.031   0.398  13.748  0.4288 -0.3506 -0.4682
 9901TIP3    H251195   1.984   0.295  13.849  3.4690 -0.6343  0.7135
 9902TIP3   OH251196   4.081   1.373  10.713 -0.0893  0.4563  0.3802
 9902TIP3    H151197   4.057   1.437  10.646  0.1694  0.2251  0.0663
 9902TIP3    H251198   4.176   1.370  10.711 -0.0946  0.1414  0.4699
 9903TIP3   OH251199   1.322   1.757   1.810 -0.1944 -0.3088 -0.4075
 9903TIP3    H151200   1.367   1.841   1.800  1.5307 -0.7072  3.0585
 9903TIP3    H251201   1.278   1.763   1.895 -3.5673 -1.4014 -1.9916
 9904TIP3   OH251202   2.595   0.585  16.566  0.4567 -0.0941 -0.3185
 9904TIP3    H151203   2.534   0.530  16.616  3.0788 -1.5506  1.4029
 9904TIP3    H251204   2.557   0.587  16.477 -1.9228 -1.1617  0.6172
 9905TIP3   OH251205   5.871   0.022   3.898  0.0083  0.4480  0.2542
 9905TIP3    H151206   5.929   0.073   3.955  0.5083  0.7753 -0.5378
 9905TIP3    H251207   5.842  -0.051   3.953 -0.2318  1.2491  1.2066
 9906TIP3   OH251208   3.016   1.218   5.439  0.6287  0.2798 -0.1755
 9906TIP3    H151209   3.091   1.217   5.498 -0.0410 -1.1675  0.6818
 9906TIP3    H251210   2.957   1.283   5.476  0.3434 -0.4122  0.5862
 9907TIP3   OH251211   0.194   2.957  14.452 -0.2452 -0.4387 -0.8963
 9907TIP3    H151212   0.136   2.911  14.512  0.1454 -0.4353 -0.5084
 9907TIP3    H251213   0.270   2.899  14.443  0.1018 -0.0231 -0.6669
 9908TIP3   OH251214   1.720   5.878   0.150  0.1421 -0.2650 -0.5936
 9908TIP3    H151215   1.672   5.865   0.232  1.9114 -1.1990  0.3133
 9908TIP3    H251216   1.785   5.807   0.149 -2.0932 -2.4273 -4.4585
 9909TIP3   OH251217   5.651   2.696  17.136  0.1552 -0.3728 -0.1180
 9909TIP3    H151218   5.706   2.653  17.071 -0.8921 -0.0620 -1.2316
 9909TIP3    H251219   5.598   2.758  17.086  2.9068  3.6502  1.6199
 9910TIP3   OH251220   4.723   4.650  14.938  0.7762 -0.0206  0.0739
 9910TIP3    H151221   4.683   4.579  14.889  0.9606  0.4092 -0.7025
 9910TIP3    H251222   4.756   4.608  15.018 -1.5393 -0.3053  0.9248
 9911TIP3   OH251223   3.735   2.090  12.431  0.1391 -0.2460  0.3578
 9911TIP3    H151224   3.673   2.146  12.384  1.7200  0.8956 -0.3964
 9911TIP3    H251225   3.682   2.047  12.499 -1.2663  1.4959  0.3840
 9912TIP3   OH251226   4.146   5.750  14.183  0.3690 -1.1299  0.0677
 9912TIP3    H151227   4.080   5.818  14.196 -0.4355 -1.7108 -0.9455
 9912TIP3    H251228   4.208   5.763  14.255 -0.3033  0.0524  0.4498
 9913TIP3   OH251229   4.094   2.141   2.912 -0.0158  0.1997 -0.4715
 9913TIP3    H151230   4.147   2.171   2.985  1.8999 -0.1484 -1.6989
 9913TIP3    H251231   4.096   2.213   2.849 -1.8679  0.6071 -0.1109
 9914TIP3   OH251232   1.768   4.342  17.242 -0.0295 -0.4771 -0.2144
 9914TIP3    H151233   1.774   4.252  17.210 -0.8717 -0.6944  0.2259
 9914TIP3    H251234   1.732   4.333  17.331  1.9362  0.1383  0.6804
 9915TIP3   OH251235   6.254   2.614  11.126  0.5534 -0.1564 -0.1611
 9915TIP3    H151236   6.250   2.707  11.105 -1.9972 -0.2368 -0.1840
 9915TIP3    H251237   6.270   2.611  11.220  1.7397  0.2802 -0.3392
 9916TIP3   OH251238   2.592   3.832   3.897 -0.1106 -0.4883 -0.3011
 9916TIP3    H151239   2.560   3.786   3.975 -0.4509  2.5908  1.4959
 9916TIP3    H251240   2.514   3.847   3.844 -0.1323 -1.2283 -0.4773
 9917TIP3   OH251241   6.495   4.342  14.448 -0.3937  0.3999  0.1373
 9917TIP3    H151242   6.588   4.360  14.464 -0.5484  0.6480  0.7646
 9917TIP3    H251243   6.463   4.308  14.531 -0.0803 -2.9196 -1.0064
 9918TIP3   OH251244   6.260   6.591   3.257  0.3788 -0.1822  0.3803
 9918TIP3    H151245   6.333   6.599   3.319 -0.9952  0.0529  1.9792
 9918TIP3    H251246   6.264   6.672   3.206  2.3822 -0.9941 -0.8369
 9919TIP3   OH251247   4.245   4.554  12.136 -0.5455 -0.2143 -0.3993
 9919TIP3    H151248   4.247   4.629  12.196 -1.9438  1.2311 -2.0984
 9919TIP3    H251249   4.334   4.548  12.102 -0.4684  0.8056 -0.3963
 9920TIP3   OH251250   6.137   3.698  10.121 -0.2121 -0.2938 -0.0938
 9920TIP3    H151251   6.070   3.662  10.179 -1.4910  0.6028 -1.0139
 9920TIP3    H251252   6.218   3.654  10.149 -0.5831  0.8567  3.0614
 9921TIP3   OH251253   1.952   3.480  14.481  0.0006 -0.1977 -0.4230
 9921TIP3    H151254   1.892   3.530  14.536  0.9842 -1.1163  1.5086
 9921TIP3    H251255   2.018   3.544  14.454  1.7585 -0.5550  2.7766
 9922TIP3   OH251256   0.938   6.518   0.890 -0.0539  0.6448 -0.6747
 9922TIP3    H151257   0.983   6.434   0.886 -0.9494  0.2090 -3.0661
 9922TIP3    H251258   0.860   6.505   0.835 -2.1893  1.9000  1.9316
 9923TIP3   OH251259   4.895   1.567   5.952  0.2440 -0.0651  0.5773
 9923TIP3    H151260   4.845   1.638   5.911 -0.5270 -0.6109  0.5464
 9923TIP3    H251261   4.837   1.491   5.946  1.3574 -0.8648 -0.0344
 9924TIP3   OH251262   4.023   1.973  15.190 -0.1306  0.5261 -0.4325
 9924TIP3    H151263   3.932   2.000  15.185 -0.4074 -0.1422  0.8622
 9924TIP3    H251264   4.067   2.026  15.123 -1.2746  1.5998 -0.3583
 9925TIP3   OH251265   3.472   1.834  12.402  0.2629  0.3419 -0.0164
 9925TIP3    H151266   3.428   1.766  12.454 -2.5515  0.3128 -2.2970
 9925TIP3    H251267   3.477   1.909  12.461  1.9460 -1.2967  2.0031
 9926TIP3   OH251268   5.262   6.309   1.906 -0.5196 -0.1037  0.0713
 9926TIP3    H151269   5.207   6.386   1.918 -2.8940 -1.4707 -1.7525
 9926TIP3    H251270   5.204   6.235   1.920  1.4637 -1.6058  0.5983
 9927TIP3   OH251271   0.848   0.021  11.588  0.4306 -0.3476 -0.4321
 9927TIP3    H151272   0.754   0.026  11.569  0.2695 -1.6483 -0.0380
 9927TIP3    H251273   0.861   0.080  11.662 -0.2473 -0.8570  0.1017
 9928TIP3   OH251274   6.270   5.439   4.688 -0.6423  0.2260  0.2382
 9928TIP3    H151275   6.177   5.450   4.666 -1.0077 -1.0445  1.0928
 9928TIP3    H251276   6.270   5.379   4.763  0.8934 -0.0639  0.0222
 9929TIP3   OH251277   4.168   2.599   4.541 -0.3354  0.1916 -0.2794
 9929TIP3    H151278   4.155   2.656   4.617 -1.0675 -0.9299  0.4458
 9929TIP3    H251279   4.262   2.601   4.526 -0.1561  0.2583  0.7903
 9930TIP3   OH251280   3.627   5.084  16.937  0.3428 -0.3173 -0.2161
 9930TIP3    H151281   3.660   5.133  16.861  0.5822 -0.9313 -0.5112
 9930TIP3    H251282   3.671   5.125  17.012  1.1887 -0.6263 -0.5372
 9931TIP3   OH251283   2.975   6.503  15.807  0.0032  0.0877 -0.5759
 9931TIP3    H151284   2.995   6.512  15.900 -0.1475  0.4038 -0.5726
 9931TIP3    H251285   2.880   6.498  15.802  0.0215 -0.1541 -0.6946
 9932TIP3   OH251286   5.820   6.293   5.226  0.0162 -0.4876 -0.2380
 9932TIP3    H151287   5.760   6.256   5.290  1.6973 -0.8333  1.1441
 9932TIP3    H251288   5.774   6.371   5.194 -1.7938 -1.5380 -0.2699
 9933TIP3   OH251289   6.207   2.164   2.119 -0.5354 -0.2620 -0.2291
 9933TIP3    H151290   6.166   2.247   2.144 -1.7809 -0.4417 -1.6257
 9933TIP3    H251291   6.300   2.177   2.140 -0.9987  0.7879  1.3236
 9934TIP3   OH251292   6.791   1.560  16.871  0.0959  0.2775  0.8026
 9934TIP3    H151293   6.712   1.560  16.818  0.3304  2.3101  0.4318
 9934TIP3    H251294   6.770   1.503  16.945 -1.1269 -0.5043 -0.1297
 9935TIP3   OH251295   6.123   1.105  16.700  0.6314 -0.3080 -0.1896
 9935TIP3    H151296   6.090   1.142  16.618  0.6467  1.3257  0.5196
 9935TIP3    H251297   6.099   1.169  16.767 -0.7348 -2.3322  1.3321
 9936TIP3   OH251298   5.129   5.202   4.747 -0.3282 -0.8599  0.3791
 9936TIP3    H151299   5.172   5.266   4.690  0.0653 -2.0391 -0.6689
 9936TIP3    H251300   5.185   5.198   4.824 -0.7292  0.5634  0.7556
 9937TIP3   OH251301   3.527   0.450   6.473  0.1607 -0.3413 -0.0238
 9937TIP3    H151302   3.571   0.531   6.447 -0.3108 -0.0859 -0.0287
 9937TIP3    H251303   3.474   0.425   6.398  0.0690 -0.4905  0.0890
 9938TIP3   OH251304   6.703   6.384  15.096 -0.2401 -0.1186  0.2064
 9938TIP3    H151305   6.699   6.337  15.179  0.2673 -1.3643 -0.4545
 9938TIP3    H251306   6.620   6.363  15.052 -0.1750 -0.1100  0.0772
 9939TIP3   OH251307   0.617   1.461   3.906  0.1169  0.1423 -0.5397
 9939TIP3    H151308   0.598   1.488   3.996  1.1232 -2.2513  0.4303
 9939TIP3    H251309   0.713   1.456   3.903  0.0119 -2.1526 -0.9850
 9940TIP3   OH251310   4.975   2.523   1.974  0.1952  0.2697 -0.0900
 9940TIP3    H151311   4.913   2.552   1.907 -0.5484  0.5855  0.7246
 9940TIP3    H251312   4.992   2.602   2.027 -0.0380 -0.2158  0.7205
 9941TIP3   OH251313   6.279   6.475  15.431  0.0023  0.5222 -0.8924
 9941TIP3    H151314   6.192   6.437  15.434  0.3658 -0.3335 -1.1392
 9941TIP3    H251315   6.285   6.514  15.344 -0.4873  1.4481 -0.5220
 9942TIP3   OH251316   0.508   2.745  16.068  0.0683 -0.1808  0.6773
 9942TIP3    H151317   0.489   2.785  16.153  0.0421 -0.6568  0.9022
 9942TIP3    H251318   0.599   2.716  16.076 -0.2492 -1.1353  0.9164
 9943TIP3   OH251319   2.193   1.921   6.956  0.2124 -0.7712 -0.1279
 9943TIP3    H151320   2.175   1.882   6.870  1.3342 -0.5312 -0.4830
 9943TIP3    H251321   2.286   1.907   6.969  0.9677  3.0625 -0.9202
 9944TIP3   OH251322   2.577   6.499   0.202  0.7376  0.2382 -0.0372
 9944TIP3    H151323   2.633   6.576   0.204  2.4897 -0.9915 -0.5803
 9944TIP3    H251324   2.637   6.425   0.214 -0.8232 -1.0794 -0.1253
 9945TIP3   OH251325   2.294   5.710   1.950 -0.2309 -0.7966 -0.6213
 9945TIP3    H151326   2.205   5.710   1.915 -1.3700  0.5937  2.0338
 9945TIP3    H251327   2.338   5.780   1.903 -1.3550  0.2486 -0.1584
 9946TIP3   OH251328   3.440   2.792   1.728 -0.1322 -0.5225  0.4671
 9946TIP3    H151329   3.397   2.724   1.675 -0.5663 -0.7445  1.1011
 9946TIP3    H251330   3.368   2.850   1.754  0.3818  0.7907 -0.9528
 9947TIP3   OH251331   6.565   1.559  15.104 -0.2769 -0.1939  0.3576
 9947TIP3    H151332   6.569   1.495  15.175 -1.5728  0.3063  0.8900
 9947TIP3    H251333   6.495   1.527  15.046 -0.2602  0.2151  0.1086
 9948TIP3   OH251334   3.759   2.382   5.161 -0.3008  0.0883 -0.3397
 9948TIP3    H151335   3.769   2.427   5.078 -0.6776 -0.6714 -0.7990
 9948TIP3    H251336   3.763   2.289   5.140 -0.1474 -0.1116  0.5194
 9949TIP3   OH251337   1.288   6.612  13.253  0.1978  0.0222 -0.1700
 9949TIP3    H151338   1.241   6.687  13.216  0.9053  0.3460 -0.4161
 9949TIP3    H251339   1.237   6.536  13.225  0.5147  0.2839 -1.5273
 9950TIP3   OH251340   2.849   6.599   5.333 -0.3553 -0.0414 -0.1796
 9950TIP3    H151341   2.895   6.517   5.314  0.8095  0.4750  0.3436
 9950TIP3    H251342   2.914   6.668   5.314 -0.3593  0.6437  2.1029
 9951TIP3   OH251343   1.383   2.988   5.381 -0.4065 -0.2584  0.1012
 9951TIP3    H151344   1.322   3.056   5.411 -0.3903 -0.2777  0.1765
 9951TIP3    H251345   1.425   3.027   5.304  0.2702  0.1777  0.6815
 9952TIP3   OH251346   2.681   4.926  15.889  0.0715 -0.0094  0.4298
 9952TIP3    H151347   2.730   4.852  15.855 -1.4224 -0.7720 -0.0520
 9952TIP3    H251348   2.728   5.003  15.856 -0.3972 -0.7267 -1.9855
 9953TIP3   OH251349   0.472   4.401  10.825 -0.2490  0.0487  0.1085
 9953TIP3    H151350   0.392   4.427  10.871  0.0804  0.1226  0.6354
 9953TIP3    H251351   0.543   4.422  10.885  0.2319  0.7141 -0.6717
 9954TIP3   OH251352   3.841   6.706   4.791  0.4099  0.1180 -0.1129
 9954TIP3    H151353   3.801   6.752   4.717 -0.0386 -1.4831 -0.8725
 9954TIP3    H251354   3.795   6.742   4.868 -0.4671  0.4002 -0.7536
 9955TIP3   OH251355   2.502   6.106   5.577  0.0397 -0.0784 -0.2181
 9955TIP3    H151356   2.587   6.063   5.583  0.2233  0.3155  0.0619
 9955TIP3    H251357   2.522   6.200   5.586 -0.5276 -0.0601  0.9947
 9956TIP3   OH251358   3.828   6.127   5.690  0.3745  0.4217  0.2573
 9956TIP3    H151359   3.785   6.142   5.605 -0.7616  0.6931  0.8772
 9956TIP3    H251360   3.922   6.130   5.669  0.1231  1.5468 -0.8247
 9957TIP3   OH251361   3.847   1.372   1.526 -0.5535 -0.5657 -0.0682
 9957TIP3    H151362   3.853   1.298   1.465 -1.6459  0.1563 -1.0612
 9957TIP3    H251363   3.774   1.424   1.494 -0.6826  0.2147  1.4488
 9958TIP3   OH251364   0.864   0.564   0.980  0.0130 -0.3350 -0.0130
 9958TIP3    H151365   0.814   0.636   0.941  1.1216  0.5202  0.1065
 9958TIP3    H251366   0.853   0.491   0.919  1.1077  0.7587 -1.5585
 9959TIP3   OH251367   4.061   3.993  15.791 -0.3905 -0.2880 -0.1479
 9959TIP3    H151368   4.028   4.020  15.877  0.5086 -0.6075  0.3044
 9959TIP3    H251369   4.156   3.996  15.800 -0.2909 -0.9480 -0.9483
 9960TIP3   OH251370   6.318   4.467   4.618 -0.0041  0.1475  0.0034
 9960TIP3    H151371   6.300   4.452   4.711 -0.0526  0.2518  0.0120
 9960TIP3    H251372   6.245   4.522   4.589 -0.5130 -0.6894 -0.3269
 9961TIP3   OH251373   2.092   4.083  15.914  0.1313 -0.0168 -0.2824
 9961TIP3    H151374   2.141   4.048  15.989  0.1964  2.4717  0.8684
 9961TIP3    H251375   2.153   4.079  15.841  0.1789 -2.1384 -0.1768
 9962TIP3   OH251376   4.448   0.444  13.293 -0.2961 -0.0670 -0.0862
 9962TIP3    H151377   4.421   0.526  13.334 -0.7209 -0.1647 -0.1702
 9962TIP3    H251378   4.534   0.425  13.331 -0.9243 -0.4408  1.1450
 9963TIP3   OH251379   2.559   1.491  13.486  0.1293 -0.4503  0.6596
 9963TIP3    H151380   2.547   1.560  13.420  2.5981 -0.1091  0.5363
 9963TIP3    H251381   2.592   1.416  13.436  0.0558 -0.8419  1.1971
 9964TIP3   OH251382   4.487   6.565  13.575 -0.0175  0.1943  0.7215
 9964TIP3    H151383   4.474   6.471  13.588 -1.9351  0.2204 -0.7950
 9964TIP3    H251384   4.523   6.572  13.487 -0.1573  0.9061  0.7225
 9965TIP3   OH251385   3.334   0.675  12.297 -0.1781  0.3263  0.5416
 9965TIP3    H151386   3.255   0.721  12.326 -1.5618 -0.6076 -1.6348
 9965TIP3    H251387   3.405   0.716  12.347 -2.4053 -1.4189  5.4308
 9966TIP3   OH251388   0.724   6.479   5.454  0.0025  0.5212 -0.4499
 9966TIP3    H151389   0.802   6.526   5.483  1.4016 -2.4080  0.7599
 9966TIP3    H251390   0.731   6.479   5.358  1.7139  0.0044 -0.3575
 9967TIP3   OH251391   1.293   1.580  16.827 -0.3653 -0.2023  0.5697
 9967TIP3    H151392   1.262   1.657  16.778 -2.5799 -0.7797  0.9942
 9967TIP3    H251393   1.302   1.611  16.917 -0.2706 -0.1873  0.5546
 9968TIP3   OH251394   2.721   1.549  11.472 -0.2444 -0.1350  0.1648
 9968TIP3    H151395   2.762   1.516  11.392  1.2171 -0.6226  1.1007
 9968TIP3    H251396   2.725   1.476  11.533 -0.4931  0.5400  1.0024
 9969TIP3   OH251397   3.595   6.055   3.238 -0.0995  0.4349  0.4187
 9969TIP3    H151398   3.548   6.084   3.316 -0.1205 -2.0104  1.3631
 9969TIP3    H251399   3.526   6.034   3.175 -0.1388  0.6237  0.3986
 9970TIP3   OH251400   5.186   2.147  15.556 -0.1236 -0.6990  0.1844
 9970TIP3    H151401   5.205   2.237  15.582  0.3436 -0.8729  0.4587
 9970TIP3    H251402   5.271   2.111  15.532  0.0015 -1.6552  1.9462
 9971TIP3   OH251403   2.121   0.535  12.574 -0.3458 -0.4376 -0.3099
 9971TIP3    H151404   2.039   0.551  12.527 -0.9356 -0.6494  0.6413
 9971TIP3    H251405   2.165   0.620  12.576 -0.9809 -0.1158  0.0139
 9972TIP3   OH251406   2.707   0.899   3.193 -0.2533 -0.4170 -0.6833
 9972TIP3    H151407   2.781   0.853   3.231  0.4150  0.7437 -0.5388
 9972TIP3    H251408   2.731   0.913   3.102 -0.0965  0.3337 -0.5325
 9973TIP3   OH251409   0.905   0.469  13.220  0.2539 -0.4768  0.1957
 9973TIP3    H151410   0.877   0.485  13.310  0.2017 -1.0917  0.2892
 9973TIP3    H251411   0.839   0.515  13.166 -0.7597 -1.6291  0.4255
 9974TIP3   OH251412   2.710   2.012  11.560 -0.3591 -0.0679  0.4890
 9974TIP3    H151413   2.789   1.989  11.609  0.3229 -0.3384 -0.7011
 9974TIP3    H251414   2.732   2.095  11.517 -1.0068  0.2569  0.7854
 9975TIP3   OH251415   2.319   1.692   5.454  0.5631  0.2579  0.1015
 9975TIP3    H151416   2.389   1.627   5.451 -1.2794 -1.7324 -1.3418
 9975TIP3    H251417   2.298   1.710   5.362 -1.7588 -0.2832  0.4781
 9976TIP3   OH251418   2.722   2.965   2.687 -0.2910  0.1609 -0.3690
 9976TIP3    H151419   2.632   2.996   2.693 -0.0456  0.7366  0.5736
 9976TIP3    H251420   2.720   2.878   2.727 -0.7490 -0.5417 -1.9010
 9977TIP3   OH251421   5.848   1.161   1.181  0.4041  0.1799  0.2796
 9977TIP3    H151422   5.857   1.176   1.087 -4.1916 -0.1889 -0.3736
 9977TIP3    H251423   5.895   1.233   1.222  0.8987  1.4086 -2.3558
 9978TIP3   OH251424   3.946   0.010  14.676  0.5160  0.0245  0.4778
 9978TIP3    H151425   3.892   0.088  14.690 -1.9595 -1.1788 -1.9244
 9978TIP3    H251426   4.018   0.040  14.621 -0.3914  0.6414 -0.3962
 9979TIP3   OH251427   3.089   6.346   5.585 -0.1082  0.0291 -0.2511
 9979TIP3    H151428   3.067   6.351   5.678 -1.5754 -0.9817 -0.5194
 9979TIP3    H251429   3.035   6.414   5.545  1.1573  1.0334 -0.2591
 9980TIP3   OH251430   5.012   5.086  13.319  0.1969 -0.2195 -0.3833
 9980TIP3    H151431   4.970   5.065  13.236 -0.2957 -0.2294 -0.1351
 9980TIP3    H251432   4.999   5.009  13.373  0.2649 -0.1027 -0.1994
 9981TIP3   OH251433   6.742   1.804  12.251 -0.1584  0.3420 -0.4264
 9981TIP3    H151434   6.663   1.752  12.260 -0.6419  1.2794  0.9594
 9981TIP3    H251435   6.722   1.867  12.182  0.3894 -1.2108 -2.0235
 9982TIP3   OH251436   3.974   5.424   3.098  0.1236  0.4297 -0.1779
 9982TIP3    H151437   3.935   5.384   3.021 -0.3297 -0.8602  0.7161
 9982TIP3    H251438   3.913   5.494   3.123 -1.3136 -1.1733  0.8515
 9983TIP3   OH251439   0.174   3.735  12.186  0.1592 -0.0706  0.0186
 9983TIP3    H151440   0.199   3.737  12.279  0.6546  1.8473 -0.1423
 9983TIP3    H251441   0.100   3.795  12.180  1.5049  1.4990 -1.2050
 9984TIP3   OH251442   3.527   0.971  15.593 -0.2394  0.3720 -0.1377
 9984TIP3    H151443   3.433   0.958  15.593  0.0610 -2.0102  0.6477
 9984TIP3    H251444   3.558   0.926  15.671  1.4727  1.8577  0.0910
 9985TIP3   OH251445   4.316   5.322  16.636  0.0939 -0.6350  0.1648
 9985TIP3    H151446   4.381   5.251  16.633 -0.7191 -1.3415 -1.6552
 9985TIP3    H251447   4.349   5.387  16.573 -1.8472 -1.8405 -2.2080
 9986TIP3   OH251448   0.609   2.570   1.477 -0.0731  0.0029  0.4273
 9986TIP3    H151449   0.674   2.500   1.475  0.5821  0.6304 -0.4901
 9986TIP3    H251450   0.526   2.526   1.458  0.1578 -0.7062  1.0168
 9987TIP3   OH251451   2.655   6.316  12.882  0.0899 -0.4277  0.2484
 9987TIP3    H151452   2.703   6.242  12.843  0.5506  0.0532 -0.0970
 9987TIP3    H251453   2.565   6.304  12.853  0.2384 -0.6408 -0.1329
 9988TIP3   OH251454   1.707   4.415  12.611 -0.4281  0.6119 -0.2866
 9988TIP3    H151455   1.714   4.331  12.566  2.1764  1.1483 -0.9398
 9988TIP3    H251456   1.759   4.404  12.691 -0.0749  1.6003 -0.3782
 9989TIP3   OH251457   2.309   3.907  13.734  0.4083  0.2663 -0.2941
 9989TIP3    H151458   2.352   3.984  13.700 -1.0644  0.4430 -1.8331
 9989TIP3    H251459   2.238   3.941  13.789 -0.3311  0.0433 -1.0859
 9990TIP3   OH251460   2.797   1.709  16.633 -0.0327 -0.2344 -0.2924
 9990TIP3    H151461   2.794   1.801  16.610 -0.1940  0.0638  0.9028
 9990TIP3    H251462   2.755   1.704  16.719  1.8572 -1.0999  0.6149
 9991TIP3   OH251463   2.240   0.015   1.411  0.1159 -0.4601 -0.2267
 9991TIP3    H151464   2.304   0.068   1.458  2.3565 -0.1656 -3.3939
 9991TIP3    H251465   2.235   0.055   1.324 -2.0718 -2.3599 -1.0279
 9992TIP3   OH251466   1.441   2.510   5.894 -0.4663 -0.1396 -0.3032
 9992TIP3    H151467   1.498   2.494   5.969 -0.4861 -0.4099 -0.3454
 9992TIP3    H251468   1.353   2.498   5.928 -0.4710 -0.3679 -0.3950
 9993TIP3   OH251469   0.941   3.515   3.320  0.5584  0.2557  0.8210
 9993TIP3    H151470   0.892   3.577   3.265 -0.0341 -1.5975 -0.8122
 9993TIP3    H251471   0.876   3.449   3.345  1.4544 -0.3724  1.5025
 9994TIP3   OH251472   6.776   6.116  12.539 -0.1028 -0.1933  0.3812
 9994TIP3    H151473   6.783   6.066  12.458  1.7707  1.0400 -0.2389
 9994TIP3    H251474   6.845   6.182  12.533 -2.0395  1.9940  1.5205
 9995TIP3   OH251475   3.951   3.513   2.739 -0.2845 -0.1508 -0.7275
 9995TIP3    H151476   3.937   3.554   2.653 -1.2528 -2.4030 -1.6943
 9995TIP3    H251477   3.863   3.507   2.777 -0.3611 -2.4613 -1.1771
 9996TIP3   OH251478   5.914   1.360   1.566  0.2423  0.2392 -0.0944
 9996TIP3    H151479   5.964   1.431   1.605 -0.4930  0.2294  0.8770
 9996TIP3    H251480   5.832   1.358   1.615  0.3571 -1.4468  0.0802
 9997TIP3   OH251481   5.187   1.018  17.087  0.2579  0.2044 -0.2651
 9997TIP3    H151482   5.156   0.935  17.122 -0.6318  1.0892  1.0423
 9997TIP3    H251483   5.271   0.996  17.045  1.0936 -0.9690  1.9324
 9998TIP3   OH251484   6.147   5.894  11.258 -0.1844 -0.2273 -0.0614
 9998TIP3    H151485   6.210   5.965  11.250 -0.5018  0.2509  1.4559
 9998TIP3    H251486   6.093   5.900  11.180 -1.1364  2.1345  0.7431
 9999TIP3   OH251487   4.053   3.734  13.838  0.0034 -0.0098 -0.0900
 9999TIP3    H151488   4.059   3.742  13.933  0.2862 -0.7781 -0.0397
 9999TIP3    H251489   3.980   3.674  13.823 -0.1407  0.2307 -0.3650
10000TIP3   OH251490   3.914   5.141   2.469 -0.1198 -0.0583  0.2731
10000TIP3    H151491   3.886   5.055   2.438 -1.6417  0.5339 -0.0531
10000TIP3    H251492   4.009   5.141   2.457  0.0410 -2.1041  1.3615
10001TIP3   OH251493   2.352   0.146   4.767  0.9279  0.0489  0.0583
10001TIP3    H151494   2.432   0.093   4.773  1.1418  0.0126 -2.4216
10001TIP3    H251495   2.291   0.091   4.717 -0.4833  0.2932  1.4790
10002TIP3   OH251496   3.697   1.383   2.088 -0.2271  0.0991  0.1603
10002TIP3    H151497   3.716   1.399   1.996  0.2811 -0.4671  0.1703
10002TIP3    H251498   3.629   1.316   2.088 -1.1754  1.0482  0.1655
10003TIP3   OH251499   0.998   2.339   5.905 -0.2854  0.5688 -0.5437
10003TIP3    H151500   0.904   2.332   5.921 -0.6558  0.8699 -2.4217
10003TIP3    H251501   1.007   2.414   5.846  0.9030 -0.6917 -2.0189
10004TIP3   OH251502   0.193   6.682   1.177 -0.1026  0.2063  0.3229
10004TIP3    H151503   0.245   6.634   1.242 -0.0114  0.0855  0.1619
10004TIP3    H251504   0.148   6.613   1.128  0.6718  0.2444 -0.4514
10005TIP3   OH251505   5.169   3.972  14.101 -0.1027 -0.8310 -0.0511
10005TIP3    H151506   5.164   4.067  14.092  1.4062 -0.8874 -1.7223
10005TIP3    H251507   5.108   3.939  14.034 -1.7906 -1.0456  1.5489
10006TIP3   OH251508   0.248   5.502  16.757 -0.0855 -0.2644 -0.5953
10006TIP3    H151509   0.286   5.418  16.785 -0.4193 -0.2942 -0.2211
10006TIP3    H251510   0.211   5.539  16.837 -0.0542  0.1815 -0.7854
10007TIP3   OH251511   1.410   2.932   4.166  0.0826  0.4597  0.3672
10007TIP3    H151512   1.396   2.991   4.239  0.7955 -1.6263  2.2488
10007TIP3    H251513   1.502   2.944   4.142  0.3771 -0.2619  1.1125
10008TIP3   OH251514   2.710   5.442   2.842  0.3578  0.2800 -0.2011
10008TIP3    H151515   2.692   5.358   2.884 -1.4474  0.2182 -1.0388
10008TIP3    H251516   2.790   5.427   2.792  0.2120 -0.8628 -0.1116
10009TIP3   OH251517   6.786   5.831   4.648 -0.5254 -0.2953  0.2087
10009TIP3    H151518   6.736   5.892   4.594 -1.0348  1.2698  2.4331
10009TIP3    H251519   6.838   5.781   4.584  0.0115  2.5089 -1.6260
10010TIP3   OH251520   3.454   1.645   6.729 -0.0196 -0.1292  0.4029
10010TIP3    H151521   3.490   1.666   6.815 -0.5075 -0.2624  0.6403
10010TIP3    H251522   3.427   1.730   6.694  1.2422  0.0763 -0.1081
10011TIP3   OH251523   2.664   5.309   0.612  0.3159 -0.6189 -0.1527
10011TIP3    H151524   2.626   5.366   0.545 -1.7751  0.3046  1.7408
10011TIP3    H251525   2.617   5.226   0.602  2.5607 -1.7209 -2.1560
10012TIP3   OH251526   1.421   4.534   6.376  0.1801 -0.0549 -0.5029
10012TIP3    H151527   1.401   4.465   6.439 -1.5988  0.4892 -0.4526
10012TIP3    H251528   1.336   4.564   6.344  1.0410 -0.3927 -3.2560
10013TIP3   OH251529   2.180   1.335  16.864  0.3840 -0.1796 -0.7845
10013TIP3    H151530   2.090   1.333  16.830  0.1748  0.6994 -0.3071
10013TIP3    H251531   2.205   1.243  16.870 -1.5151 -0.5848  1.7863
10014TIP3   OH251532   2.377   3.640  12.694  0.3362 -0.3062 -0.0065
10014TIP3    H151533   2.388   3.578  12.766  0.7506 -0.3575 -0.1096
10014TIP3    H251534   2.308   3.602  12.639 -0.9877  0.4460  1.1172
10015TIP3   OH251535   2.989   0.082   4.652 -0.2169 -0.4562  0.1390
10015TIP3    H151536   2.985   0.162   4.600  0.9547 -0.1162  0.5586
10015TIP3    H251537   2.911   0.033   4.626 -2.0649  1.7273  1.3567
10016TIP3   OH251538   1.322   4.602   0.615  0.0822 -0.4114 -0.5556
10016TIP3    H151539   1.263   4.612   0.690  1.1042  0.6852  0.1086
10016TIP3    H251540   1.407   4.582   0.654  0.5300 -0.2444 -1.4366
10017TIP3   OH251541   6.505   2.560   1.245  0.0717  0.1355 -0.5975
10017TIP3    H151542   6.538   2.548   1.334 -0.0369 -2.1024 -0.8336
10017TIP3    H251543   6.574   2.526   1.188 -0.4115  0.3496 -1.3296
10018TIP3   OH251544   5.771   0.355  11.588  0.3969  0.0977 -0.5300
10018TIP3    H151545   5.844   0.302  11.556  1.3193  0.2522  1.2032
10018TIP3    H251546   5.805   0.444  11.588 -0.3575  0.3808 -1.2758
10019TIP3   OH251547   3.178   2.229   4.980 -0.1029  0.0888 -0.2623
10019TIP3    H151548   3.264   2.267   4.996 -0.2670  0.9801 -1.3877
10019TIP3    H251549   3.117   2.285   5.028 -0.1744  0.2398 -0.5251
10020TIP3   OH251550   3.167   3.667  13.499 -0.0678 -0.0251  0.1636
10020TIP3    H151551   3.165   3.715  13.416  2.7735  0.3237  0.2208
10020TIP3    H251552   3.106   3.714  13.556 -2.6683 -0.7575 -1.9400
10021TIP3   OH251553   1.040   4.962   3.464 -0.4465 -0.4178  0.1438
10021TIP3    H151554   0.975   4.894   3.450 -1.1306  0.5105 -1.2411
10021TIP3    H251555   1.105   4.947   3.395 -0.8026  0.5793 -0.4031
10022TIP3   OH251556   1.290   6.264  13.601  0.4644 -0.5514  0.3792
10022TIP3    H151557   1.288   6.336  13.539 -0.3710 -0.1004  0.9137
10022TIP3    H251558   1.221   6.285  13.664  0.2437 -1.7943  0.5669
10023TIP3   OH251559   2.392   3.624  16.749  0.3537  0.2870 -0.3987
10023TIP3    H151560   2.323   3.564  16.774 -0.1436  0.6290 -0.9395
10023TIP3    H251561   2.467   3.600  16.804 -0.3214  0.1967  0.4796
10024TIP3   OH251562   3.893   5.355  16.019 -0.1544 -0.1115 -0.0137
10024TIP3    H151563   3.913   5.333  15.928  0.2682 -1.1458  0.3269
10024TIP3    H251564   3.799   5.372  16.019 -0.0118  0.7465 -0.8113
10025TIP3   OH251565   5.171   3.709   2.028  0.1471 -0.3777 -0.4655
10025TIP3    H151566   5.096   3.744   1.979  0.0780 -0.9999 -0.8083
10025TIP3    H251567   5.226   3.668   1.961  0.4478 -0.5378 -0.1185
10026TIP3   OH251568   0.820   4.140  12.438 -0.4030  0.1254  0.5769
10026TIP3    H151569   0.846   4.190  12.515  1.0600 -0.9875  0.8376
10026TIP3    H251570   0.767   4.068  12.474 -1.7763  0.9896  0.2909
10027TIP3   OH251571   5.613   3.988   2.441  0.1812 -0.2325 -0.3131
10027TIP3    H151572   5.625   4.069   2.392 -1.5531 -1.4370 -2.8327
10027TIP3    H251573   5.551   4.011   2.510  0.4269  0.7980 -0.4272
10028TIP3   OH251574   2.404   5.845   5.256 -0.0742 -0.1566 -0.0440
10028TIP3    H151575   2.389   5.820   5.164 -0.1664 -1.2365  0.2525
10028TIP3    H251576   2.434   5.935   5.252  1.8207 -0.8105 -1.3009
10029TIP3   OH251577   4.216   2.046  11.831  0.4199 -0.2233 -0.1258
10029TIP3    H151578   4.134   2.039  11.880 -0.2793  1.0282 -1.1049
10029TIP3    H251579   4.271   1.977  11.868 -1.2803 -1.4812  0.1328
10030TIP3   OH251580   4.933   0.189  16.122  0.2187 -0.3811  0.2228
10030TIP3    H151581   4.896   0.148  16.200  1.4485 -0.2562  0.8984
10030TIP3    H251582   4.997   0.251  16.157  0.6964 -0.2445 -0.8847
10031TIP3   OH251583   1.368   1.865   2.753  0.1236 -0.6624  0.2738
10031TIP3    H151584   1.295   1.807   2.776 -0.7392 -0.6055 -2.2271
10031TIP3    H251585   1.356   1.883   2.660  2.6557  0.3320  0.1169
10032TIP3   OH251586   1.567   6.104  11.573  0.2982 -0.2877 -0.0872
10032TIP3    H151587   1.651   6.134  11.537  0.7244 -1.9705 -0.5646
10032TIP3    H251588   1.579   6.109  11.668  0.4814  0.6856 -0.1563
10033TIP3   OH251589   0.305   2.905   2.908  0.2370  0.2990 -0.5492
10033TIP3    H151590   0.347   2.878   2.826  1.8474  0.2574  0.2908
10033TIP3    H251591   0.327   2.998   2.916  3.1008 -0.5073  1.6219
10034TIP3   OH251592   3.550   5.668  16.812 -0.0668 -0.4503 -0.1253
10034TIP3    H151593   3.587   5.723  16.881 -0.8347 -1.2321  0.9276
10034TIP3    H251594   3.627   5.629  16.768  0.4100 -2.1879  2.1418
10035TIP3   OH251595   6.575   2.449   0.322 -0.2027  0.6434 -0.2895
10035TIP3    H151596   6.508   2.435   0.255  0.9856 -1.6166 -1.0551
10035TIP3    H251597   6.638   2.507   0.280  0.3992 -0.5452 -1.0444
10036TIP3   OH251598   2.303   1.617   3.615 -0.2993  0.1656 -0.5350
10036TIP3    H151599   2.382   1.562   3.616 -0.2116  0.3072  0.3367
10036TIP3    H251600   2.234   1.560   3.648  0.0963  1.0240  1.8841
10037TIP3   OH251601   6.290   0.144   0.444  0.1878 -0.4761  0.0123
10037TIP3    H151602   6.242   0.102   0.515 -0.8691 -1.0980 -1.0594
10037TIP3    H251603   6.255   0.233   0.440 -1.0532 -0.9999 -0.9216
10038TIP3   OH251604   6.045   4.900  14.261  0.1883 -0.2388  0.2086
10038TIP3    H151605   6.007   4.950  14.189  0.9617 -0.3029 -0.2509
10038TIP3    H251606   6.137   4.890  14.237  0.7300  0.7735  1.7916
10039TIP3   OH251607   4.633   0.979  11.493  0.0133 -0.7789  0.1397
10039TIP3    H151608   4.630   1.047  11.425 -1.4529 -0.5093  0.4694
10039TIP3    H251609   4.691   1.015  11.560 -0.3834 -0.0561  0.0992
10040TIP3   OH251610   2.148   4.210  15.533  0.0125 -0.0725  0.3079
10040TIP3    H151611   2.236   4.243  15.548  0.0671  0.3956 -0.9956
10040TIP3    H251612   2.091   4.278  15.568  0.1519 -0.7670  1.9501
10041TIP3   OH251613   3.153   0.594   4.981  0.3591 -0.4600  0.0236
10041TIP3    H151614   3.246   0.618   4.981  0.2530  0.1230 -2.7268
10041TIP3    H251615   3.149   0.512   5.030  1.9032  0.8989  2.5644
10042TIP3   OH251616   4.025   4.113  15.424 -0.2138  0.3638  0.0805
10042TIP3    H151617   4.108   4.130  15.468  0.9519 -1.3125 -1.4289
10042TIP3    H251618   3.980   4.049  15.481 -0.8080  1.7767  1.2451
10043TIP3   OH251619   2.519   1.742  12.042  0.3289  0.0990 -0.2912
10043TIP3    H151620   2.478   1.718  11.959  0.3616 -0.0142 -0.2739
10043TIP3    H251621   2.519   1.838  12.042  2.2801  0.1175 -1.3864
10044TIP3   OH251622   3.409   4.855   3.618 -0.2365  0.0065 -0.4991
10044TIP3    H151623   3.395   4.870   3.524  1.0586  0.3872 -0.6386
10044TIP3    H251624   3.403   4.760   3.628  0.6220 -0.1286 -1.1489
10045TIP3   OH251625   3.231   4.429   4.313  0.5171  0.1567  0.0331
10045TIP3    H151626   3.248   4.500   4.374  1.1142 -0.2104  0.2928
10045TIP3    H251627   3.137   4.413   4.320 -0.1295  2.6432 -1.9042
10046TIP3   OH251628   5.169   6.409   0.372  0.1747 -0.2678 -0.0488
10046TIP3    H151629   5.083   6.450   0.366  0.3710  0.3472  1.1799
10046TIP3    H251630   5.229   6.474   0.334  0.0977 -0.7244 -0.9689
10047TIP3   OH251631   0.303   0.850  13.251 -0.1101  0.3303  0.8674
10047TIP3    H151632   0.275   0.834  13.162  1.5614  1.6389  0.0606
10047TIP3    H251633   0.226   0.833  13.305 -0.8608 -1.3790 -0.7277
10048TIP3   OH251634   4.918   3.913   3.456 -0.1973 -0.2968 -0.7532
10048TIP3    H151635   4.937   3.827   3.495 -0.0087  0.9225  1.9922
10048TIP3    H251636   5.002   3.959   3.458 -0.7434  0.7032 -0.1470
10049TIP3   OH251637   6.182   1.424  11.383  0.0755 -0.9013  0.1250
10049TIP3    H151638   6.185   1.506  11.433 -0.9403 -1.9128  1.8723
10049TIP3    H251639   6.271   1.415  11.347  0.8115 -0.1240  1.6827
10050TIP3   OH251640   4.432   5.485  17.140 -0.4291 -0.3007 -0.1266
10050TIP3    H151641   4.401   5.494  17.050 -2.1959 -0.2064  0.4755
10050TIP3    H251642   4.523   5.514  17.137 -0.2894 -0.8605 -1.9931
10051TIP3   OH251643   0.377   2.413  12.513  1.1268 -0.0356 -0.0985
10051TIP3    H151644   0.305   2.374  12.562  1.0695  1.1369  0.7680
10051TIP3    H251645   0.341   2.494  12.478  1.3967 -0.4887 -1.4578
10052TIP3   OH251646   4.391   1.948   0.386  0.2368  0.1022  0.2004
10052TIP3    H151647   4.364   1.967   0.296 -0.9667  2.1261  0.9541
10052TIP3    H251648   4.431   2.030   0.416 -0.3311 -0.2256  1.8623
10053TIP3   OH251649   0.971   3.447  16.702  0.3318  0.2773 -0.2350
10053TIP3    H151650   0.981   3.392  16.779 -0.8700  1.9667  1.1831
10053TIP3    H251651   0.883   3.427  16.669 -0.0267  1.1755  0.1641
10054TIP3   OH251652   3.981   3.381  12.452  0.6795 -0.4736 -0.1200
10054TIP3    H151653   3.967   3.469  12.487  0.3069  0.7496 -3.2187
10054TIP3    H251654   3.913   3.369  12.386  1.8017 -2.4018 -0.9914
10055TIP3   OH251655   3.770   1.362   1.814 -0.3564 -0.3283  0.1932
10055TIP3    H151656   3.786   1.268   1.811  0.1321 -0.2197 -0.7709
10055TIP3    H251657   3.750   1.386   1.724  1.1003  0.7553  0.1381
10056TIP3   OH251658   6.481   2.345   0.813  0.7939  0.1416 -0.1006
10056TIP3    H151659   6.509   2.268   0.765 -0.5409  0.3823 -1.3165
10056TIP3    H251660   6.435   2.310   0.890  2.4232 -0.2452  0.7098
10057TIP3   OH251661   5.607   1.074   4.271  0.2401  0.6215  0.5004
10057TIP3    H151662   5.653   1.148   4.311  0.2696  0.8956 -0.0391
10057TIP3    H251663   5.668   1.041   4.205 -0.3927  1.0847 -0.3245
10058TIP3   OH251664   2.964   3.882  12.765  0.2457  0.3436 -0.1729
10058TIP3    H151665   2.942   3.790  12.784  0.2891  0.1643 -1.0023
10058TIP3    H251666   2.885   3.917  12.724  0.2067  0.6980  0.2052
10059TIP3   OH251667   0.619   3.145  13.491  0.3770  0.0027  0.3265
10059TIP3    H151668   0.573   3.183  13.416 -0.4338 -0.9897  0.3095
10059TIP3    H251669   0.580   3.188  13.567  0.4009  0.1854  0.2333
10060TIP3   OH251670   4.526   2.682   1.394 -0.1046  0.3508 -0.4791
10060TIP3    H151671   4.547   2.613   1.332  0.5549  0.1949 -0.0867
10060TIP3    H251672   4.472   2.639   1.461  3.3158 -0.6745  1.7309
10061TIP3   OH251673   6.537   5.260   6.347  0.2372 -0.4517  0.1391
10061TIP3    H151674   6.522   5.197   6.417 -1.0174 -1.7916 -1.2953
10061TIP3    H251675   6.451   5.272   6.306  1.2001 -0.8237 -2.0849
10062TIP3   OH251676   1.559   1.847  13.341 -1.2576  0.2331  0.1489
10062TIP3    H151677   1.647   1.846  13.302 -0.8969 -2.2640  0.9068
10062TIP3    H251678   1.568   1.903  13.417 -0.2488 -0.1686  0.3446
10063TIP3   OH251679   5.515   5.044   4.909  0.4878 -0.4078 -0.2250
10063TIP3    H151680   5.492   5.062   4.818  0.8887 -1.6201 -0.5765
10063TIP3    H251681   5.431   5.043   4.956  0.0855 -1.7407 -0.9443
10064TIP3   OH251682   0.035   1.469   5.765 -0.2696 -0.2872  0.0674
10064TIP3    H151683   0.125   1.444   5.744 -0.4027 -0.0673 -0.7577
10064TIP3    H251684   0.032   1.470   5.861  0.6169 -0.2488  0.0916
10065TIP3   OH251685   3.320   2.142   2.141  0.3798  0.0866  0.8631
10065TIP3    H151686   3.285   2.116   2.056 -0.1586  3.3758  0.0086
10065TIP3    H251687   3.410   2.110   2.141 -0.3017 -1.9165  0.0147
10066TIP3   OH251688   1.700   3.658  17.004  0.0246 -0.0435  0.2341
10066TIP3    H151689   1.719   3.589  16.941 -3.1314 -1.4539  0.7330
10066TIP3    H251690   1.724   3.739  16.960  0.6495 -1.2322 -1.6267
10067TIP3   OH251691   2.181   1.409  12.623  0.1214  0.2486  0.2568
10067TIP3    H151692   2.246   1.438  12.687  0.4609 -1.5563  0.7571
10067TIP3    H251693   2.116   1.361  12.675 -2.8410  3.8837  0.1118
10068TIP3   OH251694   3.475   0.499  15.792  0.5869  0.1395 -0.0349
10068TIP3    H151695   3.447   0.569  15.733  1.4204  0.3422 -0.1982
10068TIP3    H251696   3.434   0.520  15.876  1.3425  1.1746  0.0839
10069TIP3   OH251697   3.954   5.276  14.875  0.2152 -0.4754  0.5070
10069TIP3    H151698   4.004   5.198  14.897 -1.0434 -1.0774  1.2824
10069TIP3    H251699   3.997   5.346  14.925 -0.1048 -1.1013  1.6673
10070TIP3   OH251700   5.655   6.513  12.703 -0.4184  0.5448 -0.4273
10070TIP3    H151701   5.575   6.566  12.697 -0.8767  0.0401  0.9585
10070TIP3    H251702   5.639   6.456  12.778  0.6122 -0.6395 -1.1078
10071TIP3   OH251703   6.056   5.078   3.735 -0.3369 -0.0964  0.4472
10071TIP3    H151704   6.016   4.993   3.715 -2.2794  1.0089 -0.5623
10071TIP3    H251705   6.118   5.092   3.664  0.4576 -0.9642  0.9677
10072TIP3   OH251706   6.566   2.117  12.458  0.1966  0.3409  0.2704
10072TIP3    H151707   6.527   2.040  12.500 -0.4299  1.8582  2.5659
10072TIP3    H251708   6.658   2.095  12.447  0.1887 -0.4155  1.6901
10073TIP3   OH251709   2.802   6.532  16.839 -0.7885 -0.3188 -0.2966
10073TIP3    H151710   2.801   6.623  16.807 -0.1293 -0.2385 -0.1095
10073TIP3    H251711   2.874   6.531  16.902 -0.3627 -1.1369 -0.7902
10074TIP3   OH251712   3.643   6.605  10.876 -0.1471 -0.4804  0.2199
10074TIP3    H151713   3.595   6.683  10.905  1.4477  1.1756 -1.4530
10074TIP3    H251714   3.620   6.596  10.783  0.1710 -1.6402  0.2431
10075TIP3   OH251715   2.494   1.402   0.056  0.3079 -0.6418 -0.1400
10075TIP3    H151716   2.520   1.352  -0.022 -0.7491  0.1131 -1.0041
10075TIP3    H251717   2.536   1.488   0.045 -0.8676 -0.0978 -0.5443
10076TIP3   OH251718   5.961   2.247  12.649  0.1795  0.4060 -0.2474
10076TIP3    H151719   5.870   2.273  12.660  0.2915  0.4357  0.6640
10076TIP3    H251720   5.964   2.206  12.562 -0.3709  1.7795 -0.9314
10077TIP3   OH251721   3.785   2.766  11.964 -0.0330  0.1953 -0.0242
10077TIP3    H151722   3.740   2.811  11.892  1.4146 -0.1620 -1.1735
10077TIP3    H251723   3.772   2.673  11.946 -1.8356  0.1044  1.5864
10078TIP3   OH251724   2.222   3.757  15.572  0.5894  0.2519 -0.3918
10078TIP3    H151725   2.231   3.815  15.647  0.8676 -1.8139  1.2072
10078TIP3    H251726   2.250   3.671  15.604 -0.3275 -0.8982 -2.5540
10079TIP3   OH251727   5.903   0.625  11.563  0.0951  0.1619  0.3765
10079TIP3    H151728   5.840   0.688  11.528 -0.0690 -0.2458 -0.0707
10079TIP3    H251729   5.988   0.668  11.552 -0.0954  0.6846  0.9262
10080TIP3   OH251730   3.188   4.511   0.560 -0.6187 -0.4759 -0.5463
10080TIP3    H151731   3.215   4.599   0.535 -1.9789  0.3050  0.5905
10080TIP3    H251732   3.205   4.457   0.483 -0.9583  1.0411 -1.7145
10081TIP3   OH251733   3.411   1.782  16.845  0.0041  0.5774  0.4143
10081TIP3    H151734   3.338   1.831  16.807 -0.8626 -0.3273  0.8981
10081TIP3    H251735   3.436   1.834  16.922  0.0920  1.0583  0.0672
10082TIP3   OH251736   5.321   2.579  13.645  0.7375  0.2253 -0.1868
10082TIP3    H151737   5.337   2.639  13.719 -0.9156 -1.4290  1.5721
10082TIP3    H251738   5.226   2.583  13.632  0.5827 -2.1846  0.1301
10083TIP3   OH251739   4.611   0.749   2.959  0.5297 -0.1112  0.1441
10083TIP3    H151740   4.521   0.771   2.985  0.5759  0.9172 -0.5026
10083TIP3    H251741   4.661   0.829   2.979  1.5413 -1.0832  1.5978
10084TIP3   OH251742   6.070   3.418  16.083 -0.0775  0.0735 -0.2383
10084TIP3    H151743   5.997   3.460  16.129  0.8423  0.3723  0.9623
10084TIP3    H251744   6.136   3.404  16.150  0.3966 -1.5587 -1.0078
10085TIP3   OH251745   4.759   2.121  11.086 -0.0913  0.4289 -0.1699
10085TIP3    H151746   4.733   2.212  11.074 -0.1775  0.1084 -2.6690
10085TIP3    H251747   4.676   2.073  11.092 -0.0475  0.4737  0.8314
10086TIP3   OH251748   2.181   0.165  16.655 -0.2133  0.0674 -0.1465
10086TIP3    H151749   2.226   0.223  16.717 -0.3752  0.3100 -0.2565
10086TIP3    H251750   2.089   0.170  16.680 -0.5143  1.4615 -1.4457
10087TIP3   OH251751   1.874   2.244   5.069 -0.3524  0.6322 -0.0615
10087TIP3    H151752   1.949   2.274   5.120 -0.7281 -1.9094  2.0715
10087TIP3    H251753   1.912   2.206   4.989  0.3291  3.1131 -0.9661
10088TIP3   OH251754   4.765   4.182   1.335 -0.4775 -0.7501 -0.5953
10088TIP3    H151755   4.822   4.159   1.262  0.5676 -0.1638  0.0201
10088TIP3    H251756   4.677   4.187   1.297  0.3185  1.5123 -2.2456
10089TIP3   OH251757   5.680   6.710  10.284  0.2155  0.5394 -0.1761
10089TIP3    H151758   5.599   6.703  10.335  0.3567 -0.2924 -0.0571
10089TIP3    H251759   5.750   6.709  10.348  0.5012 -2.6415 -0.4458
10090TIP3   OH251760   1.063   0.410   2.366  0.8047 -0.5004  0.3306
10090TIP3    H151761   1.092   0.496   2.336  0.2713 -0.2673  0.4801
10090TIP3    H251762   1.044   0.422   2.459  0.3283 -0.6733  0.2588
10091TIP3   OH251763   2.886   0.175  15.895  0.0443  0.9825 -0.2694
10091TIP3    H151764   2.944   0.175  15.818  0.4149  4.1681 -0.0615
10091TIP3    H251765   2.876   0.083  15.917  2.4261  0.1707 -2.2885
10092TIP3   OH251766   1.317   2.724   5.405  0.1183  0.0802  0.1163
10092TIP3    H151767   1.366   2.693   5.328 -3.4505 -0.0191 -2.2581
10092TIP3    H251768   1.305   2.818   5.389  0.9026  0.4302  1.5000
10093TIP3   OH251769   5.497   1.747   5.796  0.0286  0.3722  0.5515
10093TIP3    H151770   5.583   1.787   5.808  0.3157  0.0248 -0.2939
10093TIP3    H251771   5.442   1.817   5.762  0.2644  0.3166  0.0519
10094TIP3   OH251772   5.261   4.673   3.779  0.2291  0.1613  0.2750
10094TIP3    H151773   5.172   4.682   3.812  0.1835 -0.0515  0.2111
10094TIP3    H251774   5.294   4.592   3.819  0.4693  0.3545  0.4689
10095TIP3   OH251775   5.903   6.138   5.506  0.0707 -0.7907  0.3259
10095TIP3    H151776   5.858   6.124   5.589  2.2289  1.9687  2.0366
10095TIP3    H251777   5.848   6.200   5.459  1.3914  1.6792  1.9297
10096TIP3   OH251778   6.133   3.298   5.283 -0.2657 -0.5960  0.6164
10096TIP3    H151779   6.136   3.365   5.215 -0.3011 -1.4495 -0.2408
10096TIP3    H251780   6.044   3.263   5.278  0.1523 -1.6064  0.1700
10097TIP3   OH251781   0.185   3.735  15.705  0.3001 -0.1958  0.1327
10097TIP3    H151782   0.095   3.722  15.735 -0.3672  0.3905 -1.5495
10097TIP3    H251783   0.183   3.817  15.655  1.8023 -0.0843  0.2168
10098TIP3   OH251784   3.433   3.701  15.647  0.2993  0.4859  0.3075
10098TIP3    H151785   3.490   3.769  15.612  0.5651  1.2268  2.1298
10098TIP3    H251786   3.345   3.739  15.642  0.2034  0.1631 -0.5507
10099TIP3   OH251787   5.525   5.773   3.765  0.1637 -0.3920  0.9201
10099TIP3    H151788   5.510   5.679   3.761 -1.3919 -0.1075 -0.6050
10099TIP3    H251789   5.476   5.802   3.842  0.3069 -0.7617  1.1502
10100TIP3   OH251790   3.108   3.846  15.058  0.1051  0.1107 -0.0221
10100TIP3    H151791   3.153   3.820  14.978  0.3181 -1.4273  0.5735
10100TIP3    H251792   3.089   3.763  15.103  0.9417  0.9851  2.0246
10101TIP3   OH251793   1.921   5.696   0.235  0.7075  0.6383  0.1428
10101TIP3    H151794   1.902   5.720   0.325  1.3384  0.8907  0.2089
10101TIP3    H251795   1.882   5.609   0.225 -0.7460  1.2747  0.1801
10102TIP3   OH251796   6.522   4.194  13.226  0.0675  0.2225  0.1918
10102TIP3    H151797   6.508   4.250  13.150  0.7643  1.8941  1.2665
10102TIP3    H251798   6.438   4.151  13.240  0.0944 -0.5340 -1.8481
10103TIP3   OH251799   5.897   3.617  13.401  0.0418  0.1366  0.2290
10103TIP3    H151800   5.933   3.704  13.389  1.5355 -0.6136 -0.9501
10103TIP3    H251801   5.935   3.586  13.483 -0.9870  0.8190  0.9755
10104TIP3   OH251802   0.103   3.699   5.660  0.1085 -0.3801 -0.1227
10104TIP3    H151803   0.021   3.653   5.675 -1.2989  1.4453 -1.9735
10104TIP3    H251804   0.087   3.752   5.582  2.9739  0.1822 -0.3877
10105TIP3   OH251805   0.860   5.963  14.246  0.1158 -0.0689  0.5270
10105TIP3    H151806   0.771   5.946  14.217 -0.5976  0.7301  2.1819
10105TIP3    H251807   0.852   6.040  14.303  1.8052 -0.2080  0.9747
10106TIP3   OH251808   4.605   2.226  16.507 -0.3457  0.1299  0.3489
10106TIP3    H151809   4.591   2.291  16.576  0.7717  0.0571  0.6477
10106TIP3    H251810   4.699   2.227  16.492 -0.3943 -0.9954 -0.0724
10107TIP3   OH251811   4.286   5.181  12.554  0.1247  0.1805 -0.1783
10107TIP3    H151812   4.356   5.128  12.516 -0.9731 -0.8970 -0.7755
10107TIP3    H251813   4.282   5.259  12.499 -2.5019 -2.0758 -3.4365
10108TIP3   OH251814   3.631   6.150   6.578 -0.0169  0.3213  0.7093
10108TIP3    H151815   3.542   6.115   6.573  0.3502 -0.3475 -2.0985
10108TIP3    H251816   3.631   6.204   6.657 -2.7760 -0.0502  1.0174
10109TIP3   OH251817   4.540   2.044  16.856  0.2830 -0.6661 -0.0509
10109TIP3    H151818   4.470   2.075  16.799  0.6225  0.2598  0.0201
10109TIP3    H251819   4.620   2.054  16.804  0.6204  0.3802  0.6443
10110TIP3   OH251820   0.994   0.451  12.526 -0.0289 -0.0602  0.0450
10110TIP3    H151821   0.987   0.362  12.490  1.2654 -0.2624  0.2577
10110TIP3    H251822   1.056   0.443  12.598  0.5411  1.1266 -0.3005
10111TIP3   OH251823   2.618   4.307   3.619 -0.4227  0.1834 -0.1370
10111TIP3    H151824   2.646   4.387   3.664  0.6846 -1.8352  2.9347
10111TIP3    H251825   2.700   4.261   3.600 -1.0382 -0.1014 -2.1833
10112TIP3   OH251826   4.302   5.774   0.200 -0.2742  0.1602  0.2590
10112TIP3    H151827   4.360   5.798   0.273  0.7436 -1.1243 -0.1041
10112TIP3    H251828   4.321   5.682   0.184 -3.1484 -0.5688  0.7628
10113TIP3   OH251829   0.853   5.443   6.169  0.6438  0.3530  0.5246
10113TIP3    H151830   0.765   5.472   6.191  0.7654  2.0867 -1.1186
10113TIP3    H251831   0.906   5.523   6.172  1.1876  0.2087 -3.1664
10114TIP3   OH251832   5.323   1.661  16.350 -0.1762  0.2189 -0.5571
10114TIP3    H151833   5.252   1.689  16.292 -0.0148  0.9890 -0.3861
10114TIP3    H251834   5.346   1.573  16.319 -1.7185 -0.3471 -0.1254
10115TIP3   OH251835   1.094   5.567  15.682  1.3348  0.5697  0.3556
10115TIP3    H151836   1.065   5.477  15.666  0.1437  1.0038 -0.0322
10115TIP3    H251837   1.067   5.615  15.603 -0.5377  1.8238  1.7141
10116TIP3   OH251838   1.808   4.869   5.893 -0.5375  0.3641 -0.0998
10116TIP3    H151839   1.825   4.828   5.978  0.3479  2.1752  0.6211
10116TIP3    H251840   1.781   4.796   5.836 -2.2654 -0.7018  2.0157
10117TIP3   OH251841   0.368   5.476   4.731 -0.2828  0.3765 -0.3327
10117TIP3    H151842   0.396   5.394   4.772 -0.3641  0.5707  0.1110
10117TIP3    H251843   0.395   5.467   4.639 -2.6557 -1.2343 -0.8993
10118TIP3   OH251844   5.557   0.251   2.189 -0.3465 -0.3128 -0.2059
10118TIP3    H151845   5.557   0.197   2.268 -2.2913 -0.2944 -0.1724
10118TIP3    H251846   5.467   0.284   2.182  0.3807  1.5900 -1.1329
10119TIP3   OH251847   2.750   1.243  16.992 -0.1697  0.0076  0.4930
10119TIP3    H151848   2.845   1.237  16.991 -0.0135  1.9431  1.1066
10119TIP3    H251849   2.723   1.226  16.901  0.9125  1.4198 -0.1067
10120TIP3   OH251850   0.822   0.350   3.171 -0.2417  0.5159 -0.2660
10120TIP3    H151851   0.810   0.271   3.119 -0.0662  0.5077 -0.2965
10120TIP3    H251852   0.828   0.318   3.261 -1.7067  0.6375 -0.1159
10121TIP3   OH251853   4.434   3.961  16.912  0.8318 -0.2711  0.1335
10121TIP3    H151854   4.412   3.887  16.856  2.7422 -0.1554 -0.8138
10121TIP3    H251855   4.504   3.929  16.968  0.5980  0.3492  0.7917
10122TIP3   OH251856   4.727   0.571   2.364  0.6632 -0.2825  0.0018
10122TIP3    H151857   4.723   0.643   2.427 -1.4228  0.5030 -0.9582
10122TIP3    H251858   4.696   0.610   2.282  4.1650 -1.0421 -1.7737
10123TIP3   OH251859   2.835   3.702  11.852 -0.5678 -0.8190 -0.3678
10123TIP3    H151860   2.838   3.738  11.764  0.4116  0.5268  0.2023
10123TIP3    H251861   2.753   3.733  11.889 -0.0906  0.1914 -0.1510
10124TIP3   OH251862   0.664   5.509  16.158 -0.2632 -0.4972  0.3132
10124TIP3    H151863   0.616   5.589  16.140 -0.6998 -0.5223  1.3094
10124TIP3    H251864   0.744   5.517  16.106 -1.1253 -0.2474 -0.9837
10125TIP3   OH251865   2.190   2.432  11.988 -0.6160 -0.4108 -0.0586
10125TIP3    H151866   2.214   2.377  11.914  0.8345  1.3268 -0.9066
10125TIP3    H251867   2.273   2.447  12.035 -1.3107 -0.4585  1.2209
10126TIP3   OH251868   2.948   3.440   0.187  0.0981 -0.3370 -0.0917
10126TIP3    H151869   2.960   3.368   0.125  0.9802 -0.0514 -0.2629
10126TIP3    H251870   2.853   3.451   0.194 -0.0137 -0.1082 -1.7053
10127TIP3   OH251871   4.778   5.425   6.006 -0.5990  0.7109  0.0012
10127TIP3    H151872   4.786   5.519   6.023 -0.6870  0.8689 -0.8309
10127TIP3    H251873   4.709   5.396   6.066 -1.2427  1.3623 -0.4190
10128TIP3   OH251874   3.965   0.559  14.751  0.1412 -0.3320 -0.1976
10128TIP3    H151875   4.031   0.515  14.697  1.0488 -0.2637  0.8413
10128TIP3    H251876   3.978   0.524  14.839 -0.2598  0.7317  0.3027
10129TIP3   OH251877   5.050   3.155  16.659  0.6422  0.2074 -0.3155
10129TIP3    H151878   5.084   3.102  16.587  1.7666 -0.0116  0.3679
10129TIP3    H251879   5.084   3.114  16.738 -0.4811  0.5237  0.3492
10130TIP3   OH251880   0.810   2.323  12.917  0.4251 -0.2020 -0.5647
10130TIP3    H151881   0.780   2.247  12.867 -1.6432 -0.0034  0.2857
10130TIP3    H251882   0.829   2.390  12.852  1.2586 -1.1019 -1.2621
10131TIP3   OH251883   5.284   1.965   5.705  0.1829 -0.2566  0.0615
10131TIP3    H151884   5.252   2.046   5.743 -0.5631 -0.6363  0.2666
10131TIP3    H251885   5.337   1.992   5.630 -1.2408  0.3715 -0.7408
10132TIP3   OH251886   1.989   0.427  12.286 -0.1589  0.1400  0.6036
10132TIP3    H151887   2.077   0.412  12.319 -1.2517 -0.9694  3.2084
10132TIP3    H251888   1.972   0.519  12.304  0.9313  0.7195 -1.1819
10133TIP3   OH251889   5.747   1.165  14.447  0.6894  0.1573 -0.5024
10133TIP3    H151890   5.686   1.237  14.428 -1.1399 -1.6959 -1.8776
10133TIP3    H251891   5.804   1.161  14.371 -1.7255 -2.3079 -2.2826
10134TIP3   OH251892   0.589   0.488  16.391 -0.2217  0.0118 -0.8051
10134TIP3    H151893   0.528   0.501  16.464  0.7949 -1.1887  0.2783
10134TIP3    H251894   0.649   0.421  16.422  0.5901 -0.0768 -2.5403
10135TIP3   OH251895   2.983   5.850   2.169 -0.0894 -0.3087 -0.2933
10135TIP3    H151896   2.957   5.764   2.204 -1.2830 -0.1167 -0.7136
10135TIP3    H251897   2.954   5.913   2.235  1.9641 -0.3021  0.6549
10136TIP3   OH251898   0.241   5.255  16.486  0.0049  0.0801  0.3785
10136TIP3    H151899   0.272   5.240  16.576 -0.4149 -0.0194  0.5090
10136TIP3    H251900   0.321   5.255  16.433  0.2329 -0.1265  0.7160
10137TIP3   OH251901   2.194   2.567   2.739 -0.2555 -0.1971 -0.1219
10137TIP3    H151902   2.164   2.576   2.830 -0.0553 -2.4499  0.2028
10137TIP3    H251903   2.270   2.625   2.733 -1.5945  1.6864  0.4881
10138TIP3   OH251904   3.252   5.160  12.663  0.0560  0.6239 -0.1433
10138TIP3    H151905   3.191   5.228  12.690 -1.6041 -0.4465 -1.0541
10138TIP3    H251906   3.311   5.203  12.601 -0.1928  1.5087  0.2316
10139TIP3   OH251907   1.229   5.037   4.217 -0.0928 -0.2550  0.5961
10139TIP3    H151908   1.176   5.037   4.137  0.3882 -0.4640  0.2755
10139TIP3    H251909   1.219   4.948   4.252 -0.5785 -0.0617  0.9535
10140TIP3   OH251910   1.621   0.739   4.821 -0.0656 -0.2245 -0.2238
10140TIP3    H151911   1.685   0.788   4.872  0.0701 -0.1889 -0.4269
10140TIP3    H251912   1.536   0.774   4.849 -0.0199 -0.5317  0.3149
10141TIP3   OH251913   2.517   0.308   5.161  0.2030  0.0389 -0.5580
10141TIP3    H151914   2.431   0.281   5.191  0.4557 -0.9398 -0.7152
10141TIP3    H251915   2.570   0.228   5.162  1.2659  0.7339  0.0883
10142TIP3   OH251916   3.020   3.902   5.568  0.4811  0.2458  0.3806
10142TIP3    H151917   3.012   3.837   5.498  0.4957  0.1055  0.5097
10142TIP3    H251918   2.938   3.896   5.616  1.0131 -0.6128  1.1996
10143TIP3   OH251919   1.298   3.591   3.172 -0.6447  0.6311 -0.2735
10143TIP3    H151920   1.285   3.594   3.267 -1.4310  3.2277 -0.4518
10143TIP3    H251921   1.243   3.518   3.143 -1.6530  0.8422  1.0679
10144TIP3   OH251922   5.459   5.770  13.551 -0.0410  0.4841 -0.6727
10144TIP3    H151923   5.382   5.726  13.585 -0.0406  2.2624  1.7692
10144TIP3    H251924   5.527   5.703  13.551 -0.2283  0.2169  2.3071
10145TIP3   OH251925   4.378   4.056  10.554  0.5661 -0.3844  0.6778
10145TIP3    H151926   4.401   4.046  10.461  0.3901 -0.9429  0.6922
10145TIP3    H251927   4.294   4.012  10.562  0.8874 -0.8897  1.2410
10146TIP3   OH251928   1.816   2.969  12.931  0.2197  0.2854  0.2961
10146TIP3    H151929   1.874   3.030  12.975 -1.0901  0.4419  1.8440
10146TIP3    H251930   1.769   3.022  12.867  0.2399  0.5849  0.5274
10147TIP3   OH251931   4.489   5.754   2.965  0.1813 -0.1611 -0.0776
10147TIP3    H151932   4.467   5.666   2.996  0.7490 -0.4661 -0.5476
10147TIP3    H251933   4.565   5.742   2.909 -0.3138  0.5012 -0.9146
10148TIP3   OH251934   0.103   5.675   2.890  0.2487  0.3808 -0.1607
10148TIP3    H151935   0.104   5.615   2.815 -3.1330  1.2137 -0.9259
10148TIP3    H251936   0.194   5.675   2.922  0.6337 -4.0840 -0.9614
10149TIP3   OH251937   4.275   4.208  12.340  0.2756  0.9900 -0.0775
10149TIP3    H151938   4.207   4.264  12.302  0.1527  0.4663 -0.6377
10149TIP3    H251939   4.234   4.122  12.346  0.8293  0.7142 -0.2464
10150TIP3   OH251940   3.615   1.217   0.808  0.3639 -0.2068 -0.0661
10150TIP3    H151941   3.670   1.161   0.754  0.9312 -1.1063  1.4227
10150TIP3    H251942   3.674   1.284   0.843  0.9111 -2.1280  2.8555
10151TIP3   OH251943   2.002   4.400   5.104  0.6882  0.1903  0.3568
10151TIP3    H151944   2.026   4.309   5.120 -0.3471 -0.1843 -0.1798
10151TIP3    H251945   1.942   4.423   5.174  0.4639  0.2720  0.1375
10152TIP3   OH251946   5.263   1.598  12.896  0.3439 -0.2754 -0.0642
10152TIP3    H151947   5.183   1.553  12.867  0.5180 -0.1399 -0.7789
10152TIP3    H251948   5.326   1.527  12.910  0.0927 -0.3841  0.5244
10153TIP3   OH251949   0.877   4.020   5.080  0.1061 -0.5317 -1.2024
10153TIP3    H151950   0.850   4.108   5.105  0.9001 -1.2368  2.5694
10153TIP3    H251951   0.952   4.033   5.023  1.4908  1.2794  0.9330
10154TIP3   OH251952   0.170   1.200   3.782 -0.5164  0.3221 -0.3305
10154TIP3    H151953   0.124   1.212   3.699 -2.7520  0.2027  0.8729
10154TIP3    H251954   0.225   1.278   3.789  0.2816 -0.0200 -2.2610
10155TIP3   OH251955   4.923   0.820   4.793  0.6811 -0.3346 -0.3157
10155TIP3    H151956   4.916   0.829   4.698  0.7909  0.9249 -0.2200
10155TIP3    H251957   4.988   0.886   4.818  0.3229 -0.3577  0.6738
10156TIP3   OH251958   0.243   0.628   2.591  0.3859  0.5742 -0.0540
10156TIP3    H151959   0.169   0.628   2.530  0.5146 -1.8484 -0.2711
10156TIP3    H251960   0.311   0.677   2.546  0.6759 -1.6606 -2.1872
10157TIP3   OH251961   3.678   3.469   2.810  0.6396  0.5526 -0.0475
10157TIP3    H151962   3.689   3.396   2.871 -0.3210 -0.0315 -0.5721
10157TIP3    H251963   3.626   3.433   2.738  0.1621  1.7591 -0.3085
10158TIP3   OH251964   5.188   3.365  12.309 -0.0724  0.0495  0.1688
10158TIP3    H151965   5.213   3.412  12.388 -1.3008  0.4943  0.3028
10158TIP3    H251966   5.145   3.431  12.254 -0.9607 -0.6914 -0.0374
10159TIP3   OH251967   3.221   5.178  11.360  0.1809  0.0902 -0.0504
10159TIP3    H151968   3.162   5.208  11.290  0.1366 -0.4682 -0.2590
10159TIP3    H251969   3.256   5.096  11.327 -1.1877 -1.0852  1.3356
10160TIP3   OH251970   4.865   4.878   3.089  0.1120 -0.0004  1.4194
10160TIP3    H151971   4.808   4.802   3.103  0.7170 -0.8498 -0.5077
10160TIP3    H251972   4.894   4.902   3.177 -1.5373 -0.8577  2.2379
10161TIP3   OH251973   4.298   4.713  14.813 -0.1658  0.8806 -0.0291
10161TIP3    H151974   4.327   4.765  14.888  0.6548  0.1295  0.1894
10161TIP3    H251975   4.215   4.674  14.841  0.4586  0.0774  0.7517
10162TIP3   OH251976   2.613   1.244  15.382  0.3054  0.0327  0.1436
10162TIP3    H151977   2.653   1.229  15.468  1.1988 -0.1953 -0.3008
10162TIP3    H251978   2.653   1.326  15.351  0.2224 -0.0487 -0.1861
10163TIP3   OH251979   5.578   1.069   1.705 -0.5003  0.1332  0.1259
10163TIP3    H151980   5.519   1.060   1.780 -0.6308  0.4350  0.0604
10163TIP3    H251981   5.644   1.001   1.718  0.5621  1.3894  1.5001
10164TIP3   OH251982   0.757   5.994  16.853  0.2145 -0.0745 -0.2854
10164TIP3    H151983   0.786   6.040  16.932 -0.0036  1.6171 -1.1750
10164TIP3    H251984   0.824   5.927  16.839  1.3590  0.9527  0.1623
10165TIP3   OH251985   4.040   1.091   3.438  0.6896  0.7815  0.0388
10165TIP3    H151986   3.996   1.175   3.427 -0.3318  0.4269  1.3718
10165TIP3    H251987   4.093   1.102   3.516  1.8099  0.7003 -0.6981
10166TIP3   OH251988   6.387   4.083   3.672 -0.1489  0.0823 -0.3686
10166TIP3    H151989   6.394   4.043   3.759  1.4261 -1.2186 -1.0716
10166TIP3    H251990   6.339   4.019   3.619 -1.6518  1.1414 -0.3214
10167TIP3   OH251991   4.203   4.469   2.957  0.1552 -0.0563 -1.0340
10167TIP3    H151992   4.145   4.396   2.976  1.0082 -0.1480  1.4176
10167TIP3    H251993   4.269   4.466   3.026  0.9042  2.3114 -1.5833
10168TIP3   OH251994   1.466   4.679   4.103  0.5039  0.9049 -0.0132
10168TIP3    H151995   1.422   4.636   4.029  0.8745 -0.6376  0.6345
10168TIP3    H251996   1.399   4.734   4.143  0.3276  1.8359 -1.5638
10169TIP3   OH251997   3.225   3.937  10.471  0.9125  0.1900  0.0385
10169TIP3    H151998   3.145   3.928  10.418  0.4143  1.2136  0.5969
10169TIP3    H251999   3.260   3.848  10.476  0.5835 -0.0417 -1.4089
10170TIP3   OH252000   1.991   1.376   4.574 -0.2763  0.0007  0.5308
10170TIP3    H152001   2.056   1.446   4.572  2.7369 -2.6882  0.7237
10170TIP3    H252002   1.982   1.350   4.482 -0.2304 -0.4104  0.6451
10171TIP3   OH252003   4.424   1.745   0.679  0.0312  0.0694 -0.0618
10171TIP3    H152004   4.343   1.694   0.685  0.5681 -0.9247 -1.1598
10171TIP3    H252005   4.446   1.745   0.586 -0.4537  3.1011 -0.2149
10172TIP3   OH252006   4.465   1.705   2.561  0.1673  0.6992  0.0294
10172TIP3    H152007   4.501   1.637   2.504 -1.4336  1.8360 -2.4118
10172TIP3    H252008   4.371   1.699   2.550 -0.0523  2.4917  0.7722
10173TIP3   OH252009   5.070   1.619  15.725  0.0236 -0.1578 -0.2401
10173TIP3    H152010   5.020   1.608  15.806 -0.3257 -2.2203 -0.7163
10173TIP3    H252011   5.117   1.702  15.737 -3.1005  1.5897  0.3835
10174TIP3   OH252012   5.413   3.609  17.034 -0.0959 -0.1314  0.1589
10174TIP3    H152013   5.478   3.553  16.992 -0.3553 -0.6111  0.3826
10174TIP3    H252014   5.461   3.655  17.103  0.6101  1.6040 -1.4497
10175TIP3   OH252015   6.337   3.423  15.709  0.0147  0.6358  0.0686
10175TIP3    H152016   6.361   3.475  15.632 -1.2810  0.4058 -0.4908
10175TIP3    H252017   6.262   3.468  15.747 -1.1658 -0.8403 -0.4538
10176TIP3   OH252018   4.136   1.873   0.807 -0.0319  0.6200 -0.3728
10176TIP3    H152019   4.143   1.930   0.883  1.6105 -1.2928  0.9534
10176TIP3    H252020   4.181   1.921   0.737  0.3366  1.4645  0.4346
10177TIP3   OH252021   4.347   3.646   2.583  0.4779 -0.4524 -0.1333
10177TIP3    H152022   4.283   3.617   2.519  0.1979  1.8751 -0.9447
10177TIP3    H252023   4.297   3.697   2.646  1.1594 -0.6069  0.5455
10178TIP3   OH252024   5.543   2.755   3.850  0.7262 -0.1540 -0.2170
10178TIP3    H152025   5.584   2.734   3.934  1.3328 -1.8026 -0.9103
10178TIP3    H252026   5.499   2.838   3.866  0.6387 -0.5522  1.8036
10179TIP3   OH252027   1.628   3.156  14.992  0.1809 -0.0138 -0.3934
10179TIP3    H152028   1.723   3.154  14.982  0.0810 -1.1133 -1.1587
10179TIP3    H252029   1.594   3.177  14.905 -0.2128  2.6168  0.3337
10180TIP3   OH252030   4.945   0.389  12.751  0.1651 -0.4025 -0.3663
10180TIP3    H152031   4.986   0.338  12.821  0.2789 -1.0915 -0.9254
10180TIP3    H252032   4.851   0.386  12.771  0.1423 -1.1056 -0.5728
10181TIP3   OH252033   3.331   5.628   4.574 -0.2310 -0.4764  0.4988
10181TIP3    H152034   3.391   5.703   4.581 -1.5891  0.6632  0.0102
10181TIP3    H252035   3.324   5.612   4.480 -1.8007  0.2995  0.4781
10182TIP3   OH252036   3.937   0.107   6.291 -0.2182 -0.3666  0.4342
10182TIP3    H152037   4.009   0.159   6.328 -0.1095  0.8038 -1.3963
10182TIP3    H252038   3.858   0.148   6.327 -0.1550  1.3789 -1.3433
10183TIP3   OH252039   5.741   0.225   5.524 -0.4574  0.2928  0.1065
10183TIP3    H152040   5.721   0.165   5.596  0.2810  0.9427  0.8639
10183TIP3    H252041   5.690   0.192   5.450  0.7142 -1.8769  0.2331
10184TIP3   OH252042   2.407   5.097  12.534  0.2392 -0.8064  0.2529
10184TIP3    H152043   2.449   5.013  12.520  0.5214 -0.7312  0.6267
10184TIP3    H252044   2.472   5.162  12.507 -0.0875 -0.7100 -0.3207
10185TIP3   OH252045   2.660   2.272  16.924 -0.4897  0.2630  0.2564
10185TIP3    H152046   2.723   2.201  16.908 -0.5616  0.0296  0.9684
10185TIP3    H252047   2.694   2.346  16.874 -1.0586 -0.6089 -1.4468
10186TIP3   OH252048   2.884   5.056   3.242 -0.4173  0.1739  0.3348
10186TIP3    H152049   2.935   5.083   3.165 -0.9614  0.0929 -0.0577
10186TIP3    H252050   2.913   5.115   3.312 -0.8630  1.1201 -0.2601
10187TIP3   OH252051   0.857   0.783   5.600  0.3587 -0.2968 -0.5335
10187TIP3    H152052   0.785   0.843   5.585  1.5608  1.5362  0.7642
10187TIP3    H252053   0.892   0.808   5.686  2.6511 -0.9858 -1.2216
10188TIP3   OH252054   2.828   2.870  15.675 -0.3020 -0.4905  0.1111
10188TIP3    H152055   2.910   2.838  15.712  0.5072  0.0869 -1.1385
10188TIP3    H252056   2.855   2.935  15.610 -1.7816  0.2557  0.2217
10189TIP3   OH252057   1.433   6.300  17.192  0.1106 -0.2796 -0.1931
10189TIP3    H152058   1.525   6.321  17.177 -0.2160  0.9581 -0.5179
10189TIP3    H252059   1.409   6.353  17.268 -0.1380 -1.1442  0.3263
10190TIP3   OH252060   6.106   4.169  12.305  0.1041 -0.3551 -0.0935
10190TIP3    H152061   6.075   4.228  12.375  2.2461 -0.8761  1.3410
10190TIP3    H252062   6.044   4.096  12.306  0.1648 -0.4076  1.3462
10191TIP3   OH252063   6.009   6.129   1.655  0.3463  0.1546  0.3802
10191TIP3    H152064   5.981   6.156   1.743  2.0733  1.8328  0.4463
10191TIP3    H252065   6.004   6.209   1.603 -1.1074 -0.9324 -1.1966
10192TIP3   OH252066   4.301   1.686   4.478  0.3249  0.2708  0.2681
10192TIP3    H152067   4.206   1.694   4.479  0.1010 -2.0538  0.9608
10192TIP3    H252068   4.326   1.680   4.570  0.9154 -1.0265  0.0490
10193TIP3   OH252069   1.985   3.482   1.678  0.2926  0.0204  0.5585
10193TIP3    H152070   1.978   3.437   1.763  0.5171 -1.8964 -0.4235
10193TIP3    H252071   2.072   3.522   1.679 -0.0089  0.6738  1.5453
10194TIP3   OH252072   1.407   6.409  15.245  0.9025  0.9036  0.6969
10194TIP3    H152073   1.457   6.327  15.244  1.2516  1.1097  1.3248
10194TIP3    H252074   1.412   6.440  15.154  0.8489  0.2836  0.4737
10195TIP3   OH252075   2.146   2.333   2.128  0.1684  0.3945  0.5571
10195TIP3    H152076   2.178   2.360   2.042 -1.7336 -3.1018 -1.3605
10195TIP3    H252077   2.091   2.406   2.157 -0.3046  1.0441 -1.8236
10196TIP3   OH252078   4.391   4.561  11.175 -0.2376 -0.2444  0.0549
10196TIP3    H152079   4.305   4.528  11.152 -1.1339  2.5129 -0.6817
10196TIP3    H252080   4.393   4.556  11.271  0.0839 -3.3367 -0.0532
10197TIP3   OH252081   0.091   3.175  16.241 -0.1872 -0.4907 -0.6750
10197TIP3    H152082   0.034   3.246  16.270  1.3126 -0.1841  1.6038
10197TIP3    H252083   0.095   3.185  16.146 -2.0741  0.8596 -0.6361
10198TIP3   OH252084   1.053   0.224   4.265  0.0749  0.2880  0.4747
10198TIP3    H152085   1.051   0.283   4.341  1.8745 -1.3932  1.8764
10198TIP3    H252086   1.091   0.143   4.299 -1.2122 -1.2689 -1.7125
10199TIP3   OH252087   2.687   2.681  12.289 -0.0099  0.2881  0.3138
10199TIP3    H152088   2.699   2.658  12.381 -2.2163 -0.3149  0.4960
10199TIP3    H252089   2.732   2.611  12.241 -0.1424 -0.2362  0.9428
10200TIP3   OH252090   4.460   4.965   2.970  0.2661  0.3200  0.8144
10200TIP3    H152091   4.548   4.955   2.931  0.4339  2.2485  0.6618
10200TIP3    H252092   4.410   4.893   2.932  1.7011 -0.6466  0.6819
10201TIP3   OH252093   1.802   4.890   3.705  0.3487 -0.4161  0.2584
10201TIP3    H152094   1.732   4.834   3.737  0.1503 -0.6852 -0.6208
10201TIP3    H252095   1.758   4.970   3.676  0.4719 -0.3523  0.2478
10202TIP3   OH252096   6.074   6.700  11.195 -0.9756 -1.0839  0.4461
10202TIP3    H152097   5.992   6.743  11.171 -0.6736  0.5811  2.2808
10202TIP3    H252098   6.074   6.699  11.291  0.9657 -1.4393  0.4746
10203TIP3   OH252099   4.513   2.378  17.024 -0.2189 -0.5452 -0.5976
10203TIP3    H152100   4.469   2.298  17.052  0.2896 -0.7168 -0.2719
10203TIP3    H252101   4.443   2.433  16.990 -0.2870 -2.0933 -3.1409
10204TIP3   OH252102   3.312   6.124  16.490 -0.5970  0.3213  0.2695
10204TIP3    H152103   3.372   6.138  16.418  1.4410  0.2691  1.9107
10204TIP3    H252104   3.329   6.034  16.519 -0.7951  0.6127  1.3292
10205TIP3   OH252105   3.747   2.536  16.121  0.5201 -0.5901 -0.0031
10205TIP3    H152106   3.745   2.475  16.194  0.7376 -1.5750 -0.8083
10205TIP3    H252107   3.737   2.481  16.043 -0.1561  0.4826 -0.6944
10206TIP3   OH252108   3.127   0.049   1.276  0.2043  0.2317 -0.0588
10206TIP3    H152109   3.125  -0.016   1.207  1.5178  0.0378  0.0680
10206TIP3    H252110   3.219   0.077   1.280 -0.1791  1.4630  0.4568
10207TIP3   OH252111   0.241   3.524   4.605  0.5271  1.1123  0.1210
10207TIP3    H152112   0.197   3.461   4.662  2.1208  1.6207  1.9965
10207TIP3    H252113   0.240   3.483   4.519 -1.3464  0.0090  0.6235
10208TIP3   OH252114   0.335   1.033  13.001 -0.0046  0.1786  0.2379
10208TIP3    H152115   0.327   0.938  12.993  0.1080  0.3945 -3.4552
10208TIP3    H252116   0.308   1.052  13.090 -1.2417 -3.1913  0.6609
10209TIP3   OH252117   4.768   3.022  11.485 -0.1874 -0.1941 -0.1266
10209TIP3    H152118   4.741   2.930  11.490 -2.3212  0.3421 -1.3284
10209TIP3    H252119   4.805   3.032  11.397  0.7093 -0.0547  0.2562
10210TIP3   OH252120   2.151   4.374   3.823 -0.0192  0.0716  0.8725
10210TIP3    H152121   2.209   4.420   3.884 -0.5488 -1.5748  2.6477
10210TIP3    H252122   2.065   4.379   3.864 -0.7928  0.6927 -0.7485
10211TIP3   OH252123   2.358   0.928  15.571 -0.5298 -0.1428  0.0167
10211TIP3    H152124   2.325   0.963  15.654 -1.5633 -0.7653 -0.1264
10211TIP3    H252125   2.453   0.938  15.577 -0.6592  0.6799  0.8857
10212TIP3   OH252126   6.179   0.944  13.625 -0.4184 -0.4798  0.4135
10212TIP3    H152127   6.274   0.931  13.631  0.0537  2.3636 -0.2377
10212TIP3    H252128   6.153   0.976  13.712 -0.7819 -1.1220  0.5483
10213TIP3   OH252129   1.788   3.051   5.793 -0.0503 -0.1805  0.4056
10213TIP3    H152130   1.781   3.003   5.711 -0.0195 -2.0421  1.4535
10213TIP3    H252131   1.858   3.114   5.779  0.8140 -1.3357 -0.5866
10214TIP3   OH252132   1.082   1.161   3.553 -0.0484 -0.4309  0.2145
10214TIP3    H152133   1.014   1.102   3.521 -0.2093 -0.4517  0.5885
10214TIP3    H252134   1.074   1.239   3.500 -0.7381 -0.2145  0.6391
10215TIP3   OH252135   5.121   2.162   4.495  0.2849 -0.3682  0.1256
10215TIP3    H152136   5.191   2.149   4.431 -0.3672  0.3797 -0.7714
10215TIP3    H252137   5.159   2.219   4.562  0.7997 -0.6698  0.0870
10216TIP3   OH252138   6.087   5.525  13.501 -0.6014  0.0708 -0.0044
10216TIP3    H152139   6.142   5.471  13.558 -0.6169 -0.4925 -0.5199
10216TIP3    H252140   6.101   5.490  13.413 -0.1865  1.2601 -0.4299
10217TIP3   OH252141   0.066   2.835   4.511 -0.0162 -0.4454 -0.4741
10217TIP3    H152142   0.086   2.787   4.430 -1.2564 -3.1643  0.8005
10217TIP3    H252143  -0.023   2.810   4.533  0.6867 -0.6143  2.3558
10218TIP3   OH252144   6.278   4.543  16.560  0.4564  0.2721 -0.6932
10218TIP3    H152145   6.360   4.560  16.606 -0.0688  0.7595  0.0707
10218TIP3    H252146   6.292   4.579  16.473  1.5472 -0.8915 -1.0151
10219TIP3   OH252147   0.103   4.796   1.194  0.1862  0.0978 -0.2311
10219TIP3    H152148   0.170   4.850   1.152  0.5594 -0.2675 -0.1068
10219TIP3    H252149   0.058   4.856   1.254  0.0673  0.4657 -0.6844
10220TIP3   OH252150   5.700   4.844   5.993  0.5134 -0.1009  0.5383
10220TIP3    H152151   5.751   4.808   6.066 -1.2288  0.0288  1.8646
10220TIP3    H252152   5.620   4.876   6.034 -0.0795  0.8671 -1.3188
10221TIP3   OH252153   5.767   6.215   3.143  0.1281 -0.1824  0.4593
10221TIP3    H152154   5.756   6.253   3.230 -0.3681 -0.8951  0.7063
10221TIP3    H252155   5.855   6.242   3.116 -0.3300  1.3818  0.5102
10222TIP3   OH252156   5.217   1.599   4.593  0.2154 -0.9068  0.2721
10222TIP3    H152157   5.173   1.572   4.513 -2.7440  1.1027  1.1090
10222TIP3    H252158   5.260   1.682   4.570  0.4636 -0.9914  0.4257
10223TIP3   OH252159   6.407   5.195  11.825  0.2071  0.4557  0.2447
10223TIP3    H152160   6.445   5.231  11.745  2.1418  0.0677  0.9723
10223TIP3    H252161   6.376   5.108  11.799 -1.1614  1.1898 -0.6107
10224TIP3   OH252162   6.126   0.409   0.213  0.1081 -0.0423 -0.3247
10224TIP3    H152163   6.153   0.414   0.304 -3.1153  0.0761  0.6725
10224TIP3    H252164   6.154   0.492   0.175  0.4863  0.3626  0.8176
10225TIP3   OH252165   5.833   1.171  14.947 -0.7196  0.0770  0.1545
10225TIP3    H152166   5.785   1.091  14.926 -1.7930  1.2074 -1.9236
10225TIP3    H252167   5.904   1.174  14.883 -1.6309  1.5515 -0.8311
10226TIP3   OH252168   5.774   4.323   5.878 -0.4877 -0.0990 -0.2687
10226TIP3    H152169   5.718   4.252   5.846  1.2513 -0.7710 -1.8905
10226TIP3    H252170   5.738   4.401   5.836 -0.5955 -0.4379 -0.8210
10227TIP3   OH252171   5.500   5.342  17.267  0.3128 -0.1419 -0.3792
10227TIP3    H152172   5.479   5.338  17.173 -0.4100  1.2748 -0.2989
10227TIP3    H252173   5.428   5.294  17.309  0.7189 -0.9128 -0.5539
10228TIP3   OH252174   5.794   3.343   5.261 -0.3062 -0.1232  0.5419
10228TIP3    H152175   5.849   3.373   5.334  1.4925  0.5526 -1.0544
10228TIP3    H252176   5.704   3.353   5.293  0.4399  0.9081  2.3836
10229TIP3   OH252177   5.555   4.130   0.967  0.2349 -0.8357 -0.2049
10229TIP3    H152178   5.651   4.126   0.974  0.2481  0.7382  0.7118
10229TIP3    H252179   5.538   4.188   0.893 -0.0007  0.7529  1.0701
10230TIP3   OH252180   5.020   2.745   2.512 -0.1119  0.1528  0.0446
10230TIP3    H152181   5.017   2.837   2.486  1.0472 -0.0068 -0.6877
10230TIP3    H252182   5.068   2.702   2.441 -0.5433 -0.9953  0.4425
10231TIP3   OH252183   3.527   1.614   5.798  0.1013 -0.3237 -0.0079
10231TIP3    H152184   3.578   1.692   5.818  1.3414 -0.9586 -0.6143
10231TIP3    H252185   3.437   1.637   5.821  0.6855  0.7499  1.2817
10232TIP3   OH252186   4.805   6.350   4.418  0.2183  0.1109  0.1137
10232TIP3    H152187   4.746   6.276   4.405 -0.6845  0.9085 -0.4127
10232TIP3    H252188   4.747   6.423   4.441  1.1852  0.4027  1.6817
10233TIP3   OH252189   5.068   4.168   0.080  0.0072  0.7705 -0.0993
10233TIP3    H152190   5.005   4.099   0.058  0.9563 -0.5792  1.3056
10233TIP3    H252191   5.030   4.210   0.157  0.4758  0.4095  0.3302
10234TIP3   OH252192   3.212   2.572   3.508  0.6216  0.4568 -0.0721
10234TIP3    H152193   3.207   2.485   3.467 -0.3920  0.8751 -0.8683
10234TIP3    H252194   3.121   2.596   3.524  0.9417  0.9763  1.0137
10235TIP3   OH252195   2.734   3.740  15.698 -0.0502  0.4251 -0.1193
10235TIP3    H152196   2.767   3.764  15.785 -2.5785  0.9459  0.7192
10235TIP3    H252197   2.757   3.648  15.688 -1.0929 -0.0670  1.7586
10236TIP3   OH252198   3.705   4.539   2.915 -0.4264 -0.3703 -0.2684
10236TIP3    H152199   3.785   4.573   2.954 -0.2769 -0.4653 -0.4928
10236TIP3    H252200   3.702   4.579   2.828 -0.1235 -1.1287 -0.6264
10237TIP3   OH252201   4.065   3.475   1.260 -1.0326  0.1966 -0.3438
10237TIP3    H152202   4.135   3.540   1.262 -0.0940 -0.7818 -0.6278
10237TIP3    H252203   4.047   3.462   1.167  1.8643 -3.1386 -0.5445
10238TIP3   OH252204   6.121   6.080  14.208 -0.9334  0.1430  0.8646
10238TIP3    H152205   6.137   6.051  14.118  0.0895 -1.4000  1.5190
10238TIP3    H252206   6.078   6.165  14.198  0.0028  0.4386 -1.0735
10239TIP3   OH252207   1.851   6.735  11.950  0.5705  0.2827 -0.3360
10239TIP3    H152208   1.874   6.704  11.862  1.5883 -1.3286  0.4826
10239TIP3    H252209   1.935   6.752  11.992  0.0817  1.1045  0.3208
10240TIP3   OH252210   1.710   2.783  16.655 -0.0939  0.5567  0.3490
10240TIP3    H152211   1.645   2.836  16.610 -0.4183  0.9469  1.2571
10240TIP3    H252212   1.665   2.700  16.672  0.6981 -0.3401 -1.8416
10241TIP3   OH252213   0.941   4.613  14.196  0.3019  0.2120 -0.8264
10241TIP3    H152214   1.015   4.660  14.158  2.1504 -1.8374  0.1650
10241TIP3    H252215   0.897   4.573  14.121  0.5651  0.9249 -1.3616
10242TIP3   OH252216   3.064   3.263  15.441  0.3172  0.7922 -0.0488
10242TIP3    H152217   2.992   3.304  15.394 -0.4247 -1.2814 -0.7731
10242TIP3    H252218   3.093   3.329  15.504 -0.5096  2.5782 -1.5088
10243TIP3   OH252219   6.520   6.129   0.687  0.4515  0.4155  0.3695
10243TIP3    H152220   6.428   6.109   0.703 -0.2786  3.5003  0.3197
10243TIP3    H252221   6.530   6.124   0.592  0.4022 -0.2372  0.4010
10244TIP3   OH252222   4.366   6.445   2.207  0.4273 -0.7324 -0.2235
10244TIP3    H152223   4.313   6.414   2.280  0.1922 -2.6928 -1.2073
10244TIP3    H252224   4.396   6.532   2.235 -2.8958  0.2416  0.5331
10245TIP3   OH252225   6.146   0.040  15.768 -0.1445  0.4096 -0.1124
10245TIP3    H152226   6.217   0.080  15.716  0.1165  2.5104  1.7983
10245TIP3    H252227   6.179  -0.048  15.788  0.9129  0.5273 -1.2142
10246TIP3   OH252228   3.755   1.631   1.891  0.2622  0.2096 -0.1823
10246TIP3    H152229   3.764   1.548   1.844 -0.5560 -0.6002  1.0448
10246TIP3    H252230   3.838   1.639   1.939  0.1217 -0.1784  0.1285
10247TIP3   OH252231   6.635   3.386  10.645  0.0386 -0.0373  0.1126
10247TIP3    H152232   6.585   3.431  10.714  0.7205 -0.1911  0.7138
10247TIP3    H252233   6.718   3.362  10.687 -0.5607 -2.4429 -0.0182
10248TIP3   OH252234   3.647   0.941   1.205 -0.1252 -0.2579 -1.2054
10248TIP3    H152235   3.651   0.859   1.156 -1.9666 -1.2931  0.2847
10248TIP3    H252236   3.555   0.969   1.197  0.2875  1.2289 -0.9931
10249TIP3   OH252237   0.534   4.043  10.281  0.5883 -0.1747  0.0323
10249TIP3    H152238   0.525   3.954  10.315  1.8318  0.3385  1.7875
10249TIP3    H252239   0.602   4.083  10.335 -0.1668  1.9529 -0.5174
10250TIP3   OH252240   2.826   1.068  11.176 -0.2052 -0.4153  0.0997
10250TIP3    H152241   2.745   1.118  11.181 -0.2220 -0.5256  1.0220
10250TIP3    H252242   2.891   1.131  11.143  0.1179  0.6943  2.6621
10251TIP3   OH252243   5.955   6.315  16.256 -0.1606 -0.2807  0.0512
10251TIP3    H152244   5.891   6.357  16.197 -0.9102  1.8139  2.2815
10251TIP3    H252245   5.903   6.283  16.329  1.0464 -0.7348  0.7197
10252TIP3   OH252246   2.847   3.009   5.528 -0.3351  0.4184 -0.0449
10252TIP3    H152247   2.839   3.048   5.441 -0.0672 -0.7658 -0.6153
10252TIP3    H252248   2.813   2.920   5.517  2.7979 -0.8621  0.2392
10253TIP3   OH252249   4.330   4.485   0.253 -0.0818 -0.2150 -0.1978
10253TIP3    H152250   4.255   4.444   0.297  0.0718  0.0540  0.3059
10253TIP3    H252251   4.310   4.475   0.160 -0.3047 -0.9602 -0.0754
10254TIP3   OH252252   0.455   5.392  13.606  0.3410 -0.1277 -0.1841
10254TIP3    H152253   0.493   5.377  13.692 -2.3007 -0.8304  0.9073
10254TIP3    H252254   0.494   5.325  13.550  1.8956  0.1884  0.4976
10255TIP3   OH252255   1.643   2.819  12.706 -0.6682  0.1987 -0.4288
10255TIP3    H152256   1.678   2.830  12.617 -1.6380 -0.2315 -0.8706
10255TIP3    H252257   1.690   2.884  12.758  1.0295 -0.5715 -0.9326
10256TIP3   OH252258   2.389   5.926   0.304 -0.0390  0.0682  0.0154
10256TIP3    H152259   2.324   5.905   0.372 -1.5005  0.2824 -1.2869
10256TIP3    H252260   2.427   5.841   0.280  1.0740  0.0785  1.6553
10257TIP3   OH252261   3.941   3.967   2.920 -0.1731 -0.2315  0.6206
10257TIP3    H152262   3.859   4.005   2.890  0.3721  0.7193  0.2865
10257TIP3    H252263   3.917   3.882   2.955 -1.2374 -0.1408  0.1388
10258TIP3   OH252264   1.665   4.522   3.143 -0.7046 -0.2700  0.5269
10258TIP3    H152265   1.683   4.612   3.117 -2.7326 -0.1680 -0.6774
10258TIP3    H252266   1.589   4.529   3.201 -1.1400 -1.2437  0.0791
10259TIP3   OH252267   1.577   0.133   0.130 -0.0644 -0.6707 -0.1476
10259TIP3    H152268   1.601   0.208   0.076  1.8658 -0.5772  0.7761
10259TIP3    H252269   1.579   0.166   0.220  2.4436 -2.1798  0.4080
10260TIP3   OH252270   3.974   0.552   2.130 -0.4097  0.7480  0.1376
10260TIP3    H152271   3.935   0.494   2.196  0.1012 -0.1858 -0.3687
10260TIP3    H252272   4.048   0.593   2.175 -0.0864  0.1409  0.1693
10261TIP3   OH252273   1.607   4.385   2.593 -0.0971  0.4123  0.4054
10261TIP3    H152274   1.688   4.334   2.600  0.8894  1.7286 -1.0681
10261TIP3    H252275   1.586   4.409   2.683 -1.2624 -3.5945  1.2860
10262TIP3   OH252276   0.781   1.249  14.187 -0.0006 -0.4862 -0.3347
10262TIP3    H152277   0.786   1.213  14.099  1.5061 -0.7643 -0.1489
10262TIP3    H252278   0.687   1.263  14.202 -0.3567 -1.4726 -1.5514
10263TIP3   OH252279   4.043   1.639   1.059 -0.1195 -0.1242 -0.3039
10263TIP3    H152280   3.983   1.569   1.085  1.9049 -1.2800  1.3631
10263TIP3    H252281   4.089   1.662   1.139  1.1184  1.3218 -1.4009
10264TIP3   OH252282   3.254   3.188   6.281  0.4396  0.1817 -0.2346
10264TIP3    H152283   3.231   3.147   6.364  0.7566 -1.8730 -1.1225
10264TIP3    H252284   3.178   3.171   6.225  1.3780 -0.8934 -1.1973
10265TIP3   OH252285   0.620   6.179  14.293  1.0554 -0.3408  0.1215
10265TIP3    H152286   0.528   6.164  14.318  0.8803 -3.3624 -2.0646
10265TIP3    H252287   0.616   6.250  14.228  0.2540 -0.5940 -0.1089
10266TIP3   OH252288   3.014   2.269   1.279 -0.0098  0.0221  0.3024
10266TIP3    H152289   3.088   2.268   1.218 -1.4102 -1.4272 -1.4476
10266TIP3    H252290   3.029   2.193   1.336  1.5244  1.6242  2.1035
10267TIP3   OH252291   0.527   2.993   5.429 -0.0438  0.0697 -0.1326
10267TIP3    H152292   0.536   2.997   5.333  0.2482 -0.8129 -0.1396
10267TIP3    H252293   0.570   2.912   5.454  0.1168  0.4378  0.7864
10268TIP3   OH252294   6.157   2.411  11.680 -0.3486  0.5903 -0.0115
10268TIP3    H152295   6.072   2.397  11.637 -0.1711  0.6912 -0.3931
10268TIP3    H252296   6.220   2.411  11.608  0.0130  0.1870  0.3068
10269TIP3   OH252297   6.744   1.548   5.190 -0.2057 -0.3407  0.0503
10269TIP3    H152298   6.752   1.575   5.099  1.7494 -1.5032 -0.1408
10269TIP3    H252299   6.732   1.453   5.186 -0.7953 -0.3098  0.9772
10270TIP3   OH252300   0.840   4.128  11.939  0.2106 -0.3954 -0.0260
10270TIP3    H152301   0.909   4.194  11.949  0.9668 -1.2600  0.6187
10270TIP3    H252302   0.771   4.172  11.890  1.0035  0.6545 -0.2190
10271TIP3   OH252303   1.507   1.447   4.943 -0.2486 -1.0156 -0.2098
10271TIP3    H152304   1.468   1.512   5.000 -0.5975 -0.0298 -1.5418
10271TIP3    H252305   1.497   1.364   4.990 -0.3265 -0.2050  1.2338
10272TIP3   OH252306   4.955   0.505   2.600  0.5382  0.0577 -0.4031
10272TIP3    H152307   4.911   0.484   2.683  2.5868  0.3800  0.8069
10272TIP3    H252308   4.949   0.601   2.595  1.4467  0.1331 -0.0351
10273TIP3   OH252309   5.837   2.366   2.807  0.2058  0.4260  0.0896
10273TIP3    H152310   5.830   2.329   2.895 -2.8158 -1.6101 -0.9381
10273TIP3    H252311   5.769   2.434   2.804 -1.1086 -0.9189 -1.3095
10274TIP3   OH252312   6.062   3.067  14.568  0.0423 -0.9517  0.1713
10274TIP3    H152313   6.111   3.142  14.535 -0.1130 -1.8546 -2.2150
10274TIP3    H252314   6.115   3.032  14.639  0.9268  0.4043  0.1922
10275TIP3   OH252315   5.215   2.153   0.226  0.2835  0.1526 -0.6061
10275TIP3    H152316   5.305   2.121   0.224  0.3544  0.3848 -1.3599
10275TIP3    H252317   5.163   2.081   0.190  0.1907  0.0833 -0.3325
10276TIP3   OH252318   1.956   2.407  16.365 -0.5678  0.1010 -0.3248
10276TIP3    H152319   2.034   2.441  16.321  0.1078  1.2247  1.6822
10276TIP3    H252320   1.941   2.322  16.324  0.5541  0.7196 -2.0934
10277TIP3   OH252321   1.499   3.544  16.346  0.1560  0.2495 -0.2069
10277TIP3    H152322   1.518   3.462  16.299  0.5293 -0.3774  1.0137
10277TIP3    H252323   1.557   3.608  16.305  2.8722 -1.0023  1.5074
10278TIP3   OH252324   1.644   2.162  15.837 -0.4718 -0.0582 -0.0401
10278TIP3    H152325   1.664   2.232  15.899  0.3886  1.4938 -1.9962
10278TIP3    H252326   1.593   2.098  15.887 -3.0482  2.9363  1.3224
10279TIP3   OH252327   4.719   0.767  17.126  0.5643  0.1358  0.2578
10279TIP3    H152328   4.722   0.827  17.051 -0.4625  0.0488  0.1403
10279TIP3    H252329   4.810   0.741  17.139  0.7601  0.1869 -0.9321
10280TIP3   OH252330   0.565   6.069   0.238 -0.0779  0.0121 -0.1211
10280TIP3    H152331   0.600   5.982   0.219  0.6574  0.6995 -2.0143
10280TIP3    H252332   0.601   6.125   0.169  0.4303  2.0704  1.7716
10281TIP3   OH252333   6.465   0.790   5.081 -0.2946  0.2385 -0.2054
10281TIP3    H152334   6.437   0.737   5.156  0.2603 -0.4428 -0.4666
10281TIP3    H252335   6.396   0.776   5.016  0.0319 -0.4709 -0.4080
10282TIP3   OH252336   1.261   2.790   3.592  0.2604  0.0400  0.2011
10282TIP3    H152337   1.280   2.877   3.627  0.1116  0.4353 -0.6738
10282TIP3    H252338   1.233   2.807   3.502 -0.6204 -0.8381  0.3000
10283TIP3   OH252339   2.800   5.980   0.286  0.3513 -0.1612  0.1902
10283TIP3    H152340   2.730   6.024   0.335 -1.9998 -1.3909 -1.9404
10283TIP3    H252341   2.831   5.912   0.346 -1.1699 -0.4215  0.7209
10284TIP3   OH252342   6.353   0.326   6.235 -0.1969 -0.0519  0.6857
10284TIP3    H152343   6.266   0.289   6.225 -0.3456 -0.6077  3.5821
10284TIP3    H252344   6.346   0.383   6.312  1.2183  2.3762 -0.8994
10285TIP3   OH252345   2.752   0.543  15.323  0.5452 -0.0940 -0.5610
10285TIP3    H152346   2.679   0.561  15.383  0.7718 -0.8042 -0.0629
10285TIP3    H252347   2.819   0.503  15.378 -0.1494 -2.9432 -1.6782
10286TIP3   OH252348   3.634   5.453  16.196  0.0614  0.4338 -0.1510
10286TIP3    H152349   3.582   5.387  16.150 -0.9139 -0.3815  2.0196
10286TIP3    H252350   3.585   5.535  16.183 -0.5952  0.0771  0.0341
10287TIP3   OH252351   1.328   2.841   1.907 -0.6686 -0.6366  0.0135
10287TIP3    H152352   1.280   2.827   1.988 -0.4255  3.0030  0.8574
10287TIP3    H252353   1.260   2.849   1.840 -1.0347  0.1510  0.4793
10288TIP3   OH252354   6.783   4.638   3.985  0.3294  0.4621  0.3755
10288TIP3    H152355   6.714   4.704   3.979 -0.0156  0.1134  0.5151
10288TIP3    H252356   6.847   4.675   4.047  1.4586  1.8560 -1.5498
10289TIP3   OH252357   1.201   6.525  11.917 -0.2683 -0.1257 -0.2285
10289TIP3    H152358   1.236   6.612  11.937 -0.2186 -0.3071  0.4939
10289TIP3    H252359   1.122   6.543  11.866 -0.4085  0.3634  0.1434
10290TIP3   OH252360   1.393   2.047   5.608  0.1595  0.1075 -0.1169
10290TIP3    H152361   1.462   1.991   5.645  0.3840  0.3841 -0.1141
10290TIP3    H252362   1.390   2.124   5.666  0.1752  0.3151 -0.3907
10291TIP3   OH252363   1.642   6.492  15.439 -0.3367 -0.1170 -0.0773
10291TIP3    H152364   1.620   6.400  15.451 -0.9267 -0.1756 -1.4839
10291TIP3    H252365   1.655   6.501  15.344  1.2211  0.9171  0.2100
10292TIP3   OH252366   1.424   5.219   4.267  0.2768 -0.4138  0.3640
10292TIP3    H152367   1.433   5.204   4.361 -0.7288 -1.5783  0.2810
10292TIP3    H252368   1.373   5.144   4.235  3.3739 -1.7418 -1.6656
10293TIP3   OH252369   4.328   1.463   0.978  0.0939 -0.8123 -0.5978
10293TIP3    H152370   4.331   1.558   0.983 -0.0157 -0.7921 -0.9211
10293TIP3    H252371   4.407   1.434   1.023  1.4383 -0.4901 -2.7104
10294TIP3   OH252372   5.260   3.910  12.965  0.0452  0.2553 -1.1455
10294TIP3    H152373   5.208   3.838  12.930  0.8001 -1.0007  0.2920
10294TIP3    H252374   5.204   3.987  12.952 -1.8466 -0.9396 -0.4048
10295TIP3   OH252375   4.706   1.251   6.249 -0.4427  0.1039 -0.2992
10295TIP3    H152376   4.678   1.195   6.322  0.2579 -0.7886 -0.6971
10295TIP3    H252377   4.680   1.203   6.171  1.1124 -0.1836 -0.6574
10296TIP3   OH252378   2.163   1.363   5.228  0.2161  0.4547 -0.4683
10296TIP3    H152379   2.118   1.374   5.312  1.5103  1.5612  0.0980
10296TIP3    H252380   2.203   1.448   5.212  1.1844 -0.1933 -1.5017
10297TIP3   OH252381   0.208   5.060  15.448  0.2989  0.0234 -0.1162
10297TIP3    H152382   0.137   5.122  15.463 -0.8916 -1.3313 -0.0271
10297TIP3    H252383   0.224   5.021  15.534 -0.5814 -1.4884 -0.6265
10298TIP3   OH252384   0.361   6.188  13.599 -0.0997 -0.6575  0.3839
10298TIP3    H152385   0.301   6.136  13.653 -2.1258  0.4319 -0.7340
10298TIP3    H252386   0.443   6.191  13.649 -1.6789 -0.3075  3.0500
10299TIP3   OH252387   1.279   5.070  16.071  0.3117 -0.3576  0.3952
10299TIP3    H152388   1.367   5.032  16.060  1.1954  1.5113  0.7100
10299TIP3    H252389   1.289   5.132  16.144 -1.7038 -1.3853  1.5721
10300TIP3   OH252390   1.028   2.607   3.284 -0.5625  0.2559  0.2172
10300TIP3    H152391   0.986   2.601   3.369 -1.4391  1.3458 -0.1253
10300TIP3    H252392   0.986   2.539   3.231 -0.6412  0.1600  0.4047
10301TIP3   OH252393   2.965   0.217  15.020  0.4761  0.2333  0.0433
10301TIP3    H152394   3.018   0.142  14.993  2.2649  1.0805  1.1616
10301TIP3    H252395   2.888   0.179  15.062 -0.1862 -1.0189 -2.2359
10302TIP3   OH252396   1.256   2.493  12.669  0.0228  0.3186  0.3310
10302TIP3    H152397   1.334   2.548  12.668 -0.0081  0.3546 -0.1558
10302TIP3    H252398   1.204   2.526  12.743  0.7152 -0.0527  0.9811
10303TIP3   OH252399   4.793   5.656  14.248 -0.4461  0.2321  0.0187
10303TIP3    H152400   4.781   5.601  14.171 -2.2149  0.9757 -0.2583
10303TIP3    H252401   4.764   5.602  14.321  0.7019 -0.2708  0.1175
10304TIP3   OH252402   0.060   6.390   3.071 -0.1958  0.3586 -0.2311
10304TIP3    H152403   0.063   6.314   3.013 -1.8061  0.5242 -0.5546
10304TIP3    H252404  -0.015   6.373   3.128  0.3061  1.0443  0.6485
10305TIP3   OH252405   3.737   5.213  17.149  0.2856 -0.0341 -0.5192
10305TIP3    H152406   3.824   5.248  17.167 -0.2912  0.8911  0.5174
10305TIP3    H252407   3.687   5.232  17.228 -0.5620 -1.5364 -0.6817
10306TIP3   OH252408   1.645   2.721   0.604  0.8370 -0.3480 -0.3423
10306TIP3    H152409   1.632   2.787   0.536  0.8387  1.3825  1.2578
10306TIP3    H252410   1.712   2.662   0.569  0.5769  0.2974 -1.9621
10307TIP3   OH252411   0.915   3.063  16.388 -0.1488  0.3020  0.1246
10307TIP3    H152412   0.953   3.132  16.444  2.2839 -1.1068  0.2762
10307TIP3    H252413   0.890   2.994  16.449  0.5446 -0.3528 -0.3262
10308TIP3   OH252414   3.547   2.410   2.234  0.6352  0.0334  0.4821
10308TIP3    H152415   3.502   2.331   2.263  0.2637  0.3319  0.7168
10308TIP3    H252416   3.629   2.410   2.284  0.6846 -0.2547  0.4057
10309TIP3   OH252417   0.567   4.037  17.187  0.2998  0.6024 -1.0392
10309TIP3    H152418   0.522   3.957  17.160 -0.0169  0.7164 -0.8543
10309TIP3    H252419   0.533   4.055  17.274  0.8809  0.5621 -0.8045
10310TIP3   OH252420   2.369   3.586   4.863 -0.0379 -0.7836 -0.0829
10310TIP3    H152421   2.377   3.623   4.951  0.2311 -2.0595  0.4565
10310TIP3    H252422   2.291   3.626   4.826  1.5893  2.1305 -0.4465
10311TIP3   OH252423   4.360   3.932  16.247  0.0888 -0.6695  0.6257
10311TIP3    H152424   4.393   3.931  16.337 -0.8749  1.3091  1.0343
10311TIP3    H252425   4.266   3.952  16.256 -0.1991 -1.3362 -0.7627
10312TIP3   OH252426   6.489   6.439  16.540 -0.5486  0.3524  0.0505
10312TIP3    H152427   6.489   6.364  16.600 -1.7776 -0.4565 -0.9544
10312TIP3    H252428   6.569   6.428  16.489 -0.6303 -0.1779  0.0316
10313TIP3   OH252429   3.349   5.885  11.552  0.0576  0.0374  0.0098
10313TIP3    H152430   3.384   5.942  11.620  2.2282  1.9471 -2.5685
10313TIP3    H252431   3.400   5.805  11.559 -0.0437  0.0484  0.9050
10314TIP3   OH252432   2.004   3.959   6.179 -0.1747  0.6447  0.0458
10314TIP3    H152433   1.941   3.947   6.250  1.1519 -0.2989  1.0911
10314TIP3    H252434   1.957   3.934   6.100 -0.9803 -0.4381  0.8555
10315TIP3   OH252435   0.991   6.440   3.812  0.3248  0.3370  0.7991
10315TIP3    H152436   1.030   6.429   3.899 -0.2976 -0.5092  0.9747
10315TIP3    H252437   0.972   6.351   3.783  0.0897  0.6493 -0.0091
10316TIP3   OH252438   4.326   0.011   4.599  0.2151  0.4027 -0.2454
10316TIP3    H152439   4.340  -0.073   4.644 -0.0448  0.3553 -0.2505
10316TIP3    H252440   4.232   0.011   4.577 -0.1108  1.3723  1.1045
10317TIP3   OH252441   0.547   6.603   0.569 -0.5309 -0.1395 -0.5854
10317TIP3    H152442   0.565   6.622   0.477 -0.3879 -0.3968 -0.6115
10317TIP3    H252443   0.454   6.620   0.580 -0.1476  1.8402 -0.2986
10318TIP3   OH252444   6.212   4.889  12.338 -0.0488 -0.5646 -0.1670
10318TIP3    H152445   6.230   4.830  12.264  0.3133 -2.3310  1.2825
10318TIP3    H252446   6.243   4.974  12.309 -1.9816 -0.7165 -2.9192
10319TIP3   OH252447   0.484   1.821  12.450 -0.4206 -0.7977  0.5217
10319TIP3    H152448   0.522   1.891  12.399 -0.4898 -0.1562  1.3355
10319TIP3    H252449   0.469   1.750  12.387  1.1826 -0.7019  0.0167
10320TIP3   OH252450   3.146   6.050   3.323 -0.6210 -0.9062  0.7886
10320TIP3    H152451   3.231   6.068   3.363 -0.2363 -0.9733  0.0141
10320TIP3    H252452   3.147   6.100   3.241 -0.8023 -1.9696  0.1352
10321TIP3   OH252453   1.294   5.785  16.474  0.7021 -0.0335  0.6881
10321TIP3    H152454   1.199   5.783  16.479  0.6079  0.6083 -0.4779
10321TIP3    H252455   1.314   5.875  16.446  1.6467 -0.1457  0.9955
10322TIP3   OH252456   4.435   2.975  12.513 -0.1985  0.8707 -0.2223
10322TIP3    H152457   4.450   2.929  12.596 -3.1796  0.9801  0.4139
10322TIP3    H252458   4.496   3.049  12.516  0.6220  0.1654  1.2718
10323TIP3   OH252459   3.898   3.456  16.565  0.4551  0.5403 -0.6165
10323TIP3    H152460   3.915   3.544  16.530 -0.3396  1.0261  0.1950
10323TIP3    H252461   3.895   3.399  16.488  0.5526  1.2960 -1.1832
10324TIP3   OH252462   2.868   3.356   3.715 -0.3529  1.4475  0.0172
10324TIP3    H152463   2.833   3.311   3.637  0.8245  1.1122 -0.3262
10324TIP3    H252464   2.963   3.349   3.706 -0.1733 -1.9943  3.4056
10325TIP3   OH252465   5.908   6.101   3.411  0.5024  0.2265 -0.1812
10325TIP3    H152466   5.879   6.191   3.395  2.1919  0.8010 -0.1766
10325TIP3    H252467   5.998   6.100   3.379  0.3914 -1.5579 -0.4516
10326TIP3   OH252468   1.860   3.679   2.839  0.3353  0.2495  0.4204
10326TIP3    H152469   1.798   3.726   2.894  0.0823 -0.0869  0.4222
10326TIP3    H252470   1.837   3.705   2.749  0.7201  0.7633  0.4690
10327TIP3   OH252471   6.216   5.941   2.582 -0.3351  0.4524  0.1810
10327TIP3    H152472   6.286   6.007   2.588  0.6170 -0.6761  2.2009
10327TIP3    H252473   6.158   5.962   2.655 -0.9389  0.0682 -0.1925
10328TIP3   OH252474   2.609   2.130  15.204 -0.8360 -0.1617  0.2080
10328TIP3    H152475   2.561   2.185  15.266 -1.3083  0.2903 -0.5571
10328TIP3    H252476   2.551   2.056  15.188 -0.9217 -0.0297 -0.0811
10329TIP3   OH252477   6.708   0.621  10.570 -0.2730 -0.4166 -1.5897
10329TIP3    H152478   6.627   0.652  10.610  0.1200 -0.1627 -0.9736
10329TIP3    H252479   6.702   0.525  10.575  0.2509 -0.3874  0.1058
10330TIP3   OH252480   0.979   0.873  15.321 -0.5201  0.2960 -0.5928
10330TIP3    H152481   0.965   0.914  15.406 -0.2000 -0.1140 -0.3420
10330TIP3    H252482   0.943   0.785  15.329  0.7979 -0.2374 -0.4202
10331TIP3   OH252483   5.636   4.969   1.171  0.0188 -1.0302  0.2037
10331TIP3    H152484   5.703   5.037   1.173  1.4176 -2.2992 -1.9224
10331TIP3    H252485   5.680   4.893   1.132 -2.2367 -2.3571  0.1628
10332TIP3   OH252486   3.045   1.477  13.563 -0.5003  0.0960 -0.5481
10332TIP3    H152487   3.028   1.476  13.469 -1.0536  1.2964 -0.4680
10332TIP3    H252488   2.965   1.512  13.602 -0.0056  0.2927  0.3087
10333TIP3   OH252489   4.725   3.644   0.403 -0.1420 -0.1430 -0.1818
10333TIP3    H152490   4.694   3.665   0.314  3.2770  0.3307 -1.3507
10333TIP3    H252491   4.724   3.549   0.407 -2.0477 -0.1341 -0.0428
10334TIP3   OH252492   4.319   4.687  16.718 -0.0992 -0.0952 -0.0808
10334TIP3    H152493   4.280   4.683  16.805  3.1524  1.0186  1.5051
10334TIP3    H252494   4.289   4.608  16.674  0.8980 -2.4284  3.2727
10335TIP3   OH252495   4.572   1.178  13.712  0.9770 -0.7179  0.2656
10335TIP3    H152496   4.530   1.110  13.764 -2.6838  0.0347 -1.5023
10335TIP3    H252497   4.572   1.255  13.769 -0.9380 -0.5013  0.0260
10336TIP3   OH252498   1.724   6.694   0.679 -0.2562 -0.6123  0.0785
10336TIP3    H152499   1.675   6.775   0.689 -0.5190 -0.7689  0.0499
10336TIP3    H252500   1.736   6.662   0.769  1.9156  0.6872  0.2952
10337TIP3   OH252501   3.841   6.218  12.052 -0.5569  0.0380  0.4766
10337TIP3    H152502   3.808   6.308  12.048  1.6255  0.8156 -1.0016
10337TIP3    H252503   3.936   6.227  12.047 -0.3613 -2.4210 -1.0432
10338TIP3   OH252504   2.864   5.838   5.994 -0.2157  0.7661 -0.4151
10338TIP3    H152505   2.839   5.929   6.010  0.2937  0.9054 -0.4071
10338TIP3    H252506   2.946   5.826   6.043  0.2127  0.5750 -1.1643
10339TIP3   OH252507   5.877   2.456  13.562 -0.0265  0.5262 -0.0850
10339TIP3    H152508   5.943   2.388  13.552  0.0227  0.2904  1.5961
10339TIP3    H252509   5.888   2.513  13.486  0.6290 -0.7505 -0.9565
10340TIP3   OH252510   1.902   3.930   0.122 -0.4970 -0.2637 -0.1219
10340TIP3    H152511   1.903   3.991   0.197  0.4074 -1.1324  0.5872
10340TIP3    H252512   1.829   3.871   0.140  0.7236 -1.4773  0.9051
10341TIP3   OH252513   3.963   2.949   4.196 -0.3483  0.1748 -0.3399
10341TIP3    H152514   3.937   2.875   4.252 -2.2912  0.4972 -0.7746
10341TIP3    H252515   3.889   2.961   4.136  1.6235 -0.0650 -2.9228
10342TIP3   OH252516   1.143   3.056   0.148 -0.3848 -0.2208 -0.2465
10342TIP3    H152517   1.066   3.098   0.189  0.1306  2.7602 -2.1286
10342TIP3    H252518   1.107   3.010   0.072 -0.5360 -0.4353 -0.0471
10343TIP3   OH252519   6.600   0.951  14.574  0.1556 -0.1909 -0.7864
10343TIP3    H152520   6.512   0.973  14.606  0.0853 -1.5154 -0.0475
10343TIP3    H252521   6.652   1.030  14.591 -1.0035  0.7838 -1.6845
10344TIP3   OH252522   4.349   2.198  17.151  0.4402  0.3583 -0.3060
10344TIP3    H152523   4.396   2.115  17.139  0.3861  0.4251 -0.9900
10344TIP3    H252524   4.277   2.176  17.210  0.3878 -0.1017 -0.5389
10345TIP3   OH252525   5.312   1.705   5.509  0.2521  0.2994 -0.6164
10345TIP3    H152526   5.256   1.762   5.561  0.2095 -1.0502  0.8725
10345TIP3    H252527   5.267   1.695   5.426 -1.7491 -0.7738  0.5656
10346TIP3   OH252528   1.143   2.928  12.948  0.2524  0.4686 -0.3982
10346TIP3    H152529   1.167   2.931  12.855 -0.4199 -0.5723 -0.6095
10346TIP3    H252530   1.068   2.869  12.952  0.8678 -0.2581  0.9389
10347TIP3   OH252531   5.031   5.516  14.397  0.1976 -0.0651 -0.3572
10347TIP3    H152532   5.001   5.563  14.319  0.4222 -0.4064 -0.6512
10347TIP3    H252533   5.119   5.487  14.375  1.0335  1.5385  0.7758
10348TIP3   OH252534   6.318   6.745  12.150  0.1130  0.2464  0.1587
10348TIP3    H152535   6.234   6.728  12.108  0.1548  1.5972 -0.5332
10348TIP3    H252536   6.362   6.660  12.152 -0.4070 -0.0862 -1.4400
10349TIP3   OH252537   0.940   2.194   0.677  0.3316 -0.7072 -0.0027
10349TIP3    H152538   0.933   2.146   0.760 -0.7308 -0.6672 -0.0589
10349TIP3    H252539   1.031   2.182   0.650  0.5720 -1.0950  0.9434
10350TIP3   OH252540   1.581   6.244  16.900  0.4339  0.1699  0.0378
10350TIP3    H152541   1.534   6.195  16.967  1.0175  1.1001  1.1356
10350TIP3    H252542   1.569   6.192  16.820  0.4659 -1.4195  1.0321
10351TIP3   OH252543   1.697   2.925   4.144  0.3783  0.2429 -0.5061
10351TIP3    H152544   1.726   2.907   4.234 -0.0751 -1.1208 -0.6222
10351TIP3    H252545   1.766   2.888   4.089  0.8563  1.4467 -0.7120
10352TIP3   OH252546   6.484   2.107  13.145  0.3647  0.0151  1.1327
10352TIP3    H152547   6.396   2.144  13.150  0.8135  1.2710  0.0753
10352TIP3    H252548   6.542   2.183  13.153  1.3393 -0.6397  0.3938
10353TIP3   OH252549   2.774   0.013   5.939 -0.5804  0.2086 -0.1524
10353TIP3    H152550   2.749  -0.011   6.028  1.1271  1.5886  0.7147
10353TIP3    H252551   2.831  -0.058   5.910  0.1098  0.5234  0.4288
10354TIP3   OH252552   1.629   3.149   2.061  0.1457  0.2047 -0.2325
10354TIP3    H152553   1.626   3.175   1.969  0.3644  1.5414  0.1128
10354TIP3    H252554   1.717   3.174   2.089  0.0851 -0.2193  0.3315
10355TIP3   OH252555   4.495   3.691  10.912  0.4966  0.3389  0.4871
10355TIP3    H152556   4.485   3.777  10.870  3.5380  1.1734  1.3216
10355TIP3    H252557   4.472   3.708  11.004  0.1014  0.0284  0.4434
10356TIP3   OH252558   2.736   3.161   1.278  0.0052 -0.0203 -0.5029
10356TIP3    H152559   2.815   3.195   1.319  0.4975 -0.1809 -1.2991
10356TIP3    H252560   2.680   3.133   1.351  0.2972  0.9320  0.0901
10357TIP3   OH252561   3.337   4.253   4.513 -0.5155  0.3129 -0.4171
10357TIP3    H152562   3.248   4.237   4.545  0.0584  0.7945  1.4697
10357TIP3    H252563   3.336   4.345   4.484 -0.7805  0.1447 -0.9615
10358TIP3   OH252564   6.250   2.515   5.484 -0.1171 -0.4436  0.0990
10358TIP3    H152565   6.198   2.595   5.484 -0.1217 -0.4340  1.0339
10358TIP3    H252566   6.270   2.499   5.392  0.1782  0.8298 -0.0728
10359TIP3   OH252567   5.996   2.254   4.420 -0.1083  0.0807  0.5414
10359TIP3    H152568   5.955   2.175   4.385 -1.1691 -0.0831  2.1203
10359TIP3    H252569   6.073   2.223   4.466 -1.2292 -0.2065  2.2826
10360TIP3   OH252570   1.662   2.450  11.301  0.0018 -0.6041 -0.2399
10360TIP3    H152571   1.729   2.398  11.258  0.4307  0.5933 -1.0509
10360TIP3    H252572   1.582   2.435  11.251 -0.7929 -3.4376  1.7933
10361TIP3   OH252573   3.064   4.428  12.673  0.4838  0.2237 -0.1660
10361TIP3    H152574   3.144   4.407  12.624  0.8039  1.7060 -0.3031
10361TIP3    H252575   3.021   4.343  12.687  1.9998 -0.5661 -0.2289
10362TIP3   OH252576   1.436   6.116   4.229  0.5717  0.2168  0.2496
10362TIP3    H152577   1.386   6.040   4.200  1.4051  0.4657 -1.9861
10362TIP3    H252578   1.379   6.191   4.212  0.3218  0.2138  1.0643
10363TIP3   OH252579   1.871   2.495  15.235 -0.3786 -0.1654  0.2330
10363TIP3    H152580   1.796   2.543  15.202  0.8467  1.4600 -0.2488
10363TIP3    H252581   1.850   2.477  15.327 -2.0952 -1.2968 -0.3639
10364TIP3   OH252582   0.619   2.571  16.341  0.0135  0.4879  0.5421
10364TIP3    H152583   0.700   2.582  16.391 -0.1027  0.8366  0.6624
10364TIP3    H252584   0.590   2.661  16.324  0.4716  0.3737 -0.8416
10365TIP3   OH252585   4.558   4.719   1.538  0.5465 -0.4578  0.2064
10365TIP3    H152586   4.574   4.792   1.478  4.2445 -1.0604  0.3517
10365TIP3    H252587   4.568   4.641   1.484  0.9248 -0.9433  0.9730
10366TIP3   OH252588   6.620   2.800  13.775 -0.1592 -0.4411 -0.1432
10366TIP3    H152589   6.667   2.832  13.698  0.5585  1.2008  0.9683
10366TIP3    H252590   6.532   2.837  13.766 -0.4840 -1.3510 -0.8458
10367TIP3   OH252591   1.300   5.157   6.516  0.1908  0.0473 -0.5217
10367TIP3    H152592   1.382   5.159   6.564  0.3400 -1.8038 -0.6694
10367TIP3    H252593   1.268   5.247   6.519  2.2159  0.7816 -0.4695
10368TIP3   OH252594   5.362   1.571   3.604  0.2890 -0.4575 -0.0486
10368TIP3    H152595   5.356   1.579   3.509  0.1775  0.9695  0.0725
10368TIP3    H252596   5.318   1.488   3.624  0.4016 -0.8129 -1.2462
10369TIP3   OH252597   5.503   1.316   2.642 -0.8688  0.0624  0.0670
10369TIP3    H152598   5.479   1.408   2.635  0.2898  0.6043  2.4590
10369TIP3    H252599   5.539   1.308   2.731  1.4879 -2.1209 -1.0229
10370TIP3   OH252600   2.686   6.206   3.230  0.0711  0.1282 -0.5485
10370TIP3    H152601   2.686   6.278   3.167  2.2913  0.0135 -0.7184
10370TIP3    H252602   2.764   6.221   3.284 -0.4803 -1.0975  0.6183
10371TIP3   OH252603   3.978   3.811   1.227 -0.4850  0.1468  0.3194
10371TIP3    H152604   3.943   3.890   1.186 -0.0795 -0.0594 -0.4320
10371TIP3    H252605   3.938   3.739   1.179 -1.5897 -0.1308  1.6211
10372TIP3   OH252606   1.787   5.076  14.976  0.3692  0.0549  0.2632
10372TIP3    H152607   1.847   5.067  14.901 -2.0370 -0.5259 -1.6654
10372TIP3    H252608   1.752   5.165  14.968 -1.0568 -0.5277 -0.2572
10373TIP3   OH252609   2.767   2.577  11.234 -0.2645 -0.3914 -0.2795
10373TIP3    H152610   2.746   2.644  11.168  0.7560 -0.3122 -0.5279
10373TIP3    H252611   2.692   2.577  11.293 -0.1928  1.0828 -0.1890
10374TIP3   OH252612   6.617   2.160   0.681  0.2045 -0.2164  1.0324
10374TIP3    H152613   6.627   2.067   0.701  1.4616  0.1237  2.0209
10374TIP3    H252614   6.656   2.169   0.594 -1.0384 -0.8296  0.3967
10375TIP3   OH252615   5.586   0.178  14.557  0.4836 -0.4374  0.1098
10375TIP3    H152616   5.520   0.110  14.551 -0.5587  0.5507  0.3366
10375TIP3    H252617   5.622   0.184  14.468  0.0225 -0.7181 -0.0947
10376TIP3   OH252618   0.599   3.460   1.760  0.1215 -0.3500  0.3889
10376TIP3    H152619   0.617   3.414   1.678  1.1021 -0.1475  0.4892
10376TIP3    H252620   0.653   3.539   1.756 -0.1947 -0.0930  1.0221
10377TIP3   OH252621   5.981   0.485  16.989 -0.2519  0.1228  0.3503
10377TIP3    H152622   6.010   0.478  17.080  1.8456 -1.0218 -0.3547
10377TIP3    H252623   5.964   0.578  16.977  1.9528  0.6947  1.2334
10378TIP3   OH252624   0.268   6.161   5.574  0.1808  0.2569 -0.3702
10378TIP3    H152625   0.349   6.210   5.562 -0.2581  1.4316  1.2262
10378TIP3    H252626   0.223   6.167   5.490  0.8785  1.2291 -0.6821
10379TIP3   OH252627   0.133   5.539   3.979 -0.3132  0.3137  0.1328
10379TIP3    H152628   0.102   5.459   3.937 -1.7703  0.4155  0.9997
10379TIP3    H252629   0.101   5.610   3.923  0.0995  0.3520 -0.0650
10380TIP3   OH252630   2.282   5.593   0.232  0.4004 -0.5193  0.0988
10380TIP3    H152631   2.237   5.520   0.188  1.9134 -2.3504  1.4844
10380TIP3    H252632   2.221   5.622   0.300 -0.0243 -0.7843 -0.1643
10381TIP3   OH252633   5.704   3.713   4.767  0.8616  0.4728  0.1220
10381TIP3    H152634   5.775   3.744   4.710 -0.8724  1.1475 -1.7037
10381TIP3    H252635   5.711   3.767   4.846  1.8612  1.1035 -0.3898
10382TIP3   OH252636   5.180   0.666  15.094 -0.0297  0.0044  0.4562
10382TIP3    H152637   5.215   0.755  15.087 -0.7163  0.2164 -0.4841
10382TIP3    H252638   5.124   0.668  15.171 -1.0336  0.7390 -0.2863
10383TIP3   OH252639   2.948   4.830  14.228 -0.4562  0.3689  0.3337
10383TIP3    H152640   2.906   4.914  14.205 -0.9754  0.1771  0.5632
10383TIP3    H252641   3.038   4.839  14.198 -0.4543  1.0929  0.5390
10384TIP3   OH252642   1.598   3.799   5.558 -0.0268  0.8817 -0.4874
10384TIP3    H152643   1.575   3.808   5.650 -1.1221  4.8633 -1.0333
10384TIP3    H252644   1.655   3.874   5.540 -0.8723  0.9225 -3.3331
10385TIP3   OH252645   2.898   3.793   4.712 -0.1856 -0.6788  0.3279
10385TIP3    H152646   2.878   3.830   4.626 -2.3486 -2.2601  0.1007
10385TIP3    H252647   2.992   3.807   4.723 -0.0918  0.5704 -1.7844
10386TIP3   OH252648   5.185   6.610  15.130 -0.2505  0.6423 -0.4922
10386TIP3    H152649   5.137   6.560  15.196  0.0370 -0.2611 -0.9659
10386TIP3    H252650   5.263   6.558  15.112  0.4170  1.6310 -0.4380
10387TIP3   OH252651   5.080   4.258  13.858  0.0799  0.2282  0.1581
10387TIP3    H152652   5.145   4.277  13.926 -2.1307  0.0523  2.4229
10387TIP3    H252653   5.119   4.290  13.777  3.6838 -1.4331  1.1576
10388TIP3   OH252654   2.408   1.040  14.870  0.5381 -0.3894  0.6147
10388TIP3    H152655   2.426   0.954  14.907 -0.4415 -0.8604 -0.0046
10388TIP3    H252656   2.392   1.096  14.946 -0.8872 -1.2220  0.9229
10389TIP3   OH252657   2.844   0.827  15.840 -0.0667 -0.3591  0.6079
10389TIP3    H152658   2.919   0.769  15.852  0.0122 -1.2456 -3.3171
10389TIP3    H252659   2.784   0.804  15.911  2.3204 -1.3712  2.3443
10390TIP3   OH252660   2.717   3.183   3.547 -0.2773  0.0696  0.0749
10390TIP3    H152661   2.702   3.182   3.452  1.9035  1.1798 -0.3302
10390TIP3    H252662   2.704   3.092   3.574 -1.9282 -0.0657 -1.1059
10391TIP3   OH252663   4.698   5.446  14.414  0.1922 -0.3667  0.3536
10391TIP3    H152664   4.759   5.391  14.462  1.4441  1.3189  0.7464
10391TIP3    H252665   4.625   5.388  14.392  2.0964 -2.5318 -0.4706
10392TIP3   OH252666   3.303   3.099   4.409 -0.1068  0.2660  0.0049
10392TIP3    H152667   3.317   3.006   4.391  1.6755  0.2813  1.2205
10392TIP3    H252668   3.331   3.110   4.500 -0.4553  1.9729 -0.0825
10393TIP3   OH252669   1.918   5.041  13.046 -0.5441 -0.0783 -0.0176
10393TIP3    H152670   1.876   5.126  13.062 -1.4681 -0.7567  1.1829
10393TIP3    H252671   2.001   5.047  13.093  0.2381  0.8430 -1.4710
10394TIP3   OH252672   0.711   1.968  17.155 -0.0655 -0.2751  0.9682
10394TIP3    H152673   0.756   2.012  17.226 -0.0749 -0.9805  1.4238
10394TIP3    H252674   0.769   1.895  17.131  0.4984  0.6636 -0.5583
10395TIP3   OH252675   4.607   5.966   0.270 -0.3298 -0.0125  0.7170
10395TIP3    H152676   4.554   5.888   0.286 -0.8918  0.7302  2.5995
10395TIP3    H252677   4.691   5.947   0.311 -0.1463  0.0067  0.3518
10396TIP3   OH252678   6.438   4.705  12.008 -0.2822  0.0591  0.1913
10396TIP3    H152679   6.516   4.752  11.978 -0.7323  1.0266  0.5278
10396TIP3    H252680   6.436   4.718  12.102 -1.4693  0.9859  0.0500
10397TIP3   OH252681   4.800   4.547  12.341 -0.0331  0.4556 -0.2585
10397TIP3    H152682   4.808   4.643  12.335  0.2768  0.4248 -0.3714
10397TIP3    H252683   4.776   4.520  12.252 -0.4278  0.4572 -0.1533
10398TIP3   OH252684   2.780   5.918   1.970  0.0532 -0.0897 -0.2848
10398TIP3    H152685   2.866   5.906   2.011  0.5037 -1.0522 -1.4708
10398TIP3    H252686   2.738   5.832   1.977 -1.9446  1.0615  2.7313
10399TIP3   OH252687   4.766   4.195   2.350 -0.2902  0.2062 -0.4821
10399TIP3    H152688   4.704   4.266   2.329 -1.6466 -0.9152 -0.3566
10399TIP3    H252689   4.850   4.228   2.319 -1.0817  1.4388 -1.4109
10400TIP3   OH252690   1.880   2.787   2.111  0.4946  0.5961  0.0209
10400TIP3    H152691   1.814   2.839   2.157  0.7242  0.8234  0.0952
10400TIP3    H252692   1.846   2.779   2.022  0.6214  1.1643 -0.0821
10401TIP3   OH252693   1.296   4.056   4.650  0.3913 -0.4289  0.6971
10401TIP3    H152694   1.248   3.976   4.628 -0.8589  0.4311  0.2336
10401TIP3    H252695   1.311   4.100   4.566  0.9962 -0.1336  0.9538
10402TIP3   OH252696   4.449   3.630   4.045 -0.2877 -0.4114 -0.0736
10402TIP3    H152697   4.361   3.641   4.080  1.1081  0.2712  3.4673
10402TIP3    H252698   4.456   3.536   4.026 -1.1661 -0.7861  1.3837
10403TIP3   OH252699   1.869   2.480  14.019 -0.1442  0.1084  0.1364
10403TIP3    H152700   1.960   2.456  14.037 -0.0196 -0.7102 -1.5296
10403TIP3    H252701   1.818   2.403  14.045 -0.1041 -0.4708 -1.4520
10404TIP3   OH252702   1.223   1.106  13.980 -0.1029  0.8065 -0.2572
10404TIP3    H152703   1.203   1.192  14.017 -0.3211  1.4893 -1.9364
10404TIP3    H252704   1.302   1.120  13.929  0.1738 -0.1167 -0.0824
10405TIP3   OH252705   6.178   5.207  17.011 -0.0988 -0.2441  0.2886
10405TIP3    H152706   6.112   5.259  17.056  0.9543 -0.5802  2.2696
10405TIP3    H252707   6.132   5.170  16.936 -1.3007  2.1425 -0.1934
10406TIP3   OH252708   3.702   4.815   4.005 -0.5979  0.2306 -0.3634
10406TIP3    H152709   3.754   4.886   3.967  0.8741 -0.4447  0.3111
10406TIP3    H252710   3.639   4.858   4.061 -0.0817  1.0422 -0.3971
10407TIP3   OH252711   4.965   6.661   1.334  0.0258  0.0142 -0.0707
10407TIP3    H152712   4.877   6.635   1.307 -0.9077  0.5388  2.3157
10407TIP3    H252713   4.956   6.754   1.357  1.1986  0.0582  0.2248
10408TIP3   OH252714   5.209   4.871  13.044 -0.1567 -0.0470 -0.0579
10408TIP3    H152715   5.247   4.939  12.989  0.2253  0.2840  0.6070
10408TIP3    H252716   5.257   4.878  13.126 -0.1271 -1.1076  0.0191
10409TIP3   OH252717   5.763   0.057  14.330  0.5964 -0.0508 -0.4843
10409TIP3    H152718   5.806   0.100  14.403 -0.6352 -0.0596  0.2666
10409TIP3    H252719   5.773   0.117  14.257  1.5861  0.0938 -0.2294
10410TIP3   OH252720   5.541   2.968  15.036 -0.0620 -0.2668  0.2939
10410TIP3    H152721   5.555   3.062  15.024 -1.1892 -0.2100 -0.5930
10410TIP3    H252722   5.595   2.946  15.112 -0.8340  1.3497  1.3387
10411TIP3   OH252723   3.834   0.309   6.627  0.1568 -0.3829  0.2287
10411TIP3    H152724   3.869   0.303   6.538  0.0744  0.2525  0.1496
10411TIP3    H252725   3.908   0.286   6.683 -0.2459 -2.4420 -0.0551
10412TIP3   OH252726   3.251   2.349  16.940  0.1248 -0.1297  0.2733
10412TIP3    H152727   3.210   2.379  17.021  2.0997  1.1760  0.8158
10412TIP3    H252728   3.185   2.363  16.873 -1.5996 -1.3599  1.6441
10413TIP3   OH252729   6.376   2.871  10.497  0.3757 -0.1535 -0.6465
10413TIP3    H152730   6.447   2.812  10.473  0.5033 -0.4299  0.3920
10413TIP3    H252731   6.353   2.846  10.586 -0.8853  0.0762 -0.8951
10414TIP3   OH252732   3.460   6.790   4.914 -0.8585 -0.8337  0.2717
10414TIP3    H152733   3.514   6.820   4.841 -0.3697  0.6713  1.2143
10414TIP3    H252734   3.382   6.753   4.873  0.7317 -2.7332 -1.1038
10415TIP3   OH252735   2.293   1.195  16.071  0.0849 -0.1785 -0.0060
10415TIP3    H152736   2.218   1.182  16.130 -0.2253  1.0602 -0.1123
10415TIP3    H252737   2.345   1.115  16.081 -0.4837 -0.4230  1.1880
10416TIP3   OH252738   3.701   3.445   5.213  0.2674 -0.0134  0.8414
10416TIP3    H152739   3.769   3.511   5.228 -0.4228  0.9321 -0.1326
10416TIP3    H252740   3.645   3.482   5.145 -1.2476 -0.7653  1.6390
10417TIP3   OH252741   2.091   1.349  13.051  0.3064 -0.5383  0.2023
10417TIP3    H152742   2.072   1.302  13.133  1.3914 -1.4600 -0.0523
10417TIP3    H252743   2.069   1.440  13.070  0.5916 -0.7294  1.5469
10418TIP3   OH252744   5.881   5.910  14.144  0.0394 -0.3582 -0.3801
10418TIP3    H152745   5.900   5.817  14.154 -0.2969 -0.4502 -0.5874
10418TIP3    H252746   5.951   5.955  14.193  2.1031 -0.6309 -2.9364
10419TIP3   OH252747   0.694   2.186   3.218 -0.1810  0.0295  0.2210
10419TIP3    H152748   0.632   2.199   3.146  0.5617  1.8745 -0.1076
10419TIP3    H252749   0.640   2.156   3.291 -1.4155  1.1935 -0.1946
10420TIP3   OH252750   4.404   3.923   0.902 -0.3661  0.5682  0.3991
10420TIP3    H152751   4.313   3.894   0.906 -0.1681 -0.0535  0.6549
10420TIP3    H252752   4.407   3.985   0.830 -0.4567 -1.3583 -1.3003
10421TIP3   OH252753   3.274   5.074   4.148  0.3570 -0.0293 -0.6891
10421TIP3    H152754   3.345   5.096   4.087  2.2387 -0.3436  1.3034
10421TIP3    H252755   3.290   4.982   4.170 -1.3735 -0.4445 -1.0852
10422TIP3   OH252756   0.026   1.362   5.503 -0.1723 -0.3555  0.4985
10422TIP3    H152757   0.012   1.438   5.560 -1.2117  0.0929 -0.3335
10422TIP3    H252758   0.048   1.291   5.562  1.3479  0.7255  1.2535
10423TIP3   OH252759   5.464   2.672  11.654 -0.2275 -0.6459 -0.3948
10423TIP3    H152760   5.545   2.686  11.605 -0.4150  0.9296 -0.2845
10423TIP3    H252761   5.410   2.748  11.634 -0.4839 -0.1755  1.8849
10424TIP3   OH252762   0.573   3.704  13.489 -0.3035  0.4568  0.2695
10424TIP3    H152763   0.484   3.714  13.458  0.5839  0.5840 -2.3473
10424TIP3    H252764   0.577   3.614  13.522 -0.8887 -0.2258 -1.4557
10425TIP3   OH252765   2.984   4.106  15.001  0.4479  0.4589 -0.0728
10425TIP3    H152766   2.945   4.048  14.936  1.6659 -0.6135  0.1180
10425TIP3    H252767   3.015   4.047  15.069 -0.6447  1.5589  1.3976
10426TIP3   OH252768   6.186   4.897   1.836 -0.0902  0.5669  0.2510
10426TIP3    H152769   6.114   4.893   1.773 -0.3730 -1.3277  0.6548
10426TIP3    H252770   6.265   4.879   1.785 -0.5115 -2.8859  0.6806
10427TIP3   OH252771   2.809   4.090   6.141  0.7695 -0.4966  0.3520
10427TIP3    H152772   2.846   4.131   6.220 -0.5279  2.0475 -0.2916
10427TIP3    H252773   2.884   4.077   6.083  1.3921 -0.1525  1.0752
10428TIP3   OH252774   0.871   6.303   1.742  0.1518 -0.3168 -0.1237
10428TIP3    H152775   0.913   6.329   1.824  0.1224 -1.1448  0.1564
10428TIP3    H252776   0.785   6.346   1.745  0.9315  1.3237 -0.6695
10429TIP3   OH252777   4.726   3.370   0.412  0.4915  0.2147  0.2739
10429TIP3    H152778   4.779   3.293   0.432  0.5983  0.4064  0.7345
10429TIP3    H252779   4.635   3.339   0.415  0.5278  0.1511  0.6405
10430TIP3   OH252780   5.035   5.842  13.449  0.1335  0.4065  0.3835
10430TIP3    H152781   5.079   5.918  13.410 -0.5533 -0.0282 -1.3162
10430TIP3    H252782   5.086   5.822  13.527  0.7743  2.1454  0.4425
10431TIP3   OH252783   5.619   1.355  15.277 -0.4186 -0.6125  0.1564
10431TIP3    H152784   5.679   1.374  15.205 -0.0874 -0.9449  0.3432
10431TIP3    H252785   5.624   1.260  15.289  1.0478 -0.3388  1.9269
10432TIP3   OH252786   0.079   2.000   3.277 -0.6668 -0.4839 -0.7356
10432TIP3    H152787   0.066   1.910   3.248  0.0197 -0.7165 -0.3472
10432TIP3    H252788   0.050   2.001   3.368  1.1928 -0.8216 -0.1063
10433TIP3   OH252789   1.608   4.601  13.430 -0.6264  0.2217  0.4761
10433TIP3    H152790   1.696   4.639  13.435  0.1875 -1.2923 -1.7265
10433TIP3    H252791   1.579   4.596  13.521  1.0334  1.9360  1.1315
10434TIP3   OH252792   0.053   0.237   0.042  0.5770  0.4455 -0.0530
10434TIP3    H152793   0.032   0.224  -0.051  0.6827 -2.6678  0.3063
10434TIP3    H252794   0.073   0.149   0.075  0.5036  1.4884  2.9378
10435TIP3   OH252795   0.568   3.720  15.264  0.0364  0.4418  0.1249
10435TIP3    H152796   0.618   3.649  15.303  0.5805  0.1597 -1.0714
10435TIP3    H252797   0.500   3.676  15.213  0.3225  0.7800 -0.5490
10436TIP3   OH252798   5.057   0.181   5.685  0.1121 -0.6034  0.1283
10436TIP3    H152799   5.050   0.272   5.655  2.5458 -0.9388 -1.6239
10436TIP3    H252800   5.099   0.188   5.771  0.2874 -0.0807  0.0033
10437TIP3   OH252801   4.686   1.224  13.189 -0.2714  0.2003  0.1339
10437TIP3    H152802   4.615   1.278  13.156  0.8626  1.3593 -0.4738
10437TIP3    H252803   4.647   1.173  13.261 -1.6727  0.8640 -0.1421
10438TIP3   OH252804   4.131   0.169   4.827  0.2145  0.3803  0.1380
10438TIP3    H152805   4.119   0.124   4.910 -0.7283 -0.9266 -0.6858
10438TIP3    H252806   4.196   0.117   4.780 -2.5324 -1.5308 -1.7438
10439TIP3   OH252807   4.145   0.765  12.870 -0.6114  0.1189 -0.2533
10439TIP3    H152808   4.211   0.706  12.908 -2.1444 -1.2442  0.3239
10439TIP3    H252809   4.188   0.851  12.869 -0.1982  0.0639  3.9226
10440TIP3   OH252810   0.759   2.197  13.981 -0.4077  0.0286  0.1813
10440TIP3    H152811   0.781   2.150  14.062  0.7609 -1.3237 -0.8900
10440TIP3    H252812   0.825   2.266  13.975  2.0669 -2.3799 -1.6579
10441TIP3   OH252813   4.884   4.797  11.961  0.9854  0.2105 -0.1612
10441TIP3    H152814   4.967   4.840  11.980 -0.0914  2.1042  0.3912
10441TIP3    H252815   4.843   4.851  11.894 -1.1724  1.1104  1.8022
10442TIP3   OH252816   5.272   3.102  15.900  0.2154 -0.3002 -0.1873
10442TIP3    H152817   5.196   3.050  15.927 -1.4784  0.8857 -2.4822
10442TIP3    H252818   5.328   3.104  15.978 -1.8257 -1.6773  1.3924
10443TIP3   OH252819   6.128   0.528   1.703  0.0144 -0.2625  0.1257
10443TIP3    H152820   6.109   0.622   1.713 -0.9750 -0.4517  0.0150
10443TIP3    H252821   6.044   0.488   1.684  0.7052 -0.9276 -1.6690
10444TIP3   OH252822   0.742   4.806  12.689 -0.1427 -0.5935 -0.2364
10444TIP3    H152823   0.669   4.754  12.654 -1.1311  1.3189 -1.0994
10444TIP3    H252824   0.730   4.892  12.649  1.0920  0.4791  1.6757
10445TIP3   OH252825   0.264   2.190  16.475 -0.6863  0.2662 -0.1522
10445TIP3    H152826   0.253   2.169  16.383 -0.4787  3.8453 -1.0710
10445TIP3    H252827   0.358   2.207  16.485 -0.6255 -0.6189  0.8346
10446TIP3   OH252828   0.374   4.498  14.955 -0.5007 -0.3572 -1.0036
10446TIP3    H152829   0.289   4.539  14.973  0.1070  0.3230  0.3563
10446TIP3    H252830   0.438   4.562  14.984  0.4818 -1.2090 -1.2862
10447TIP3   OH252831   3.468   6.026   2.158 -0.2682 -0.4004  0.1507
10447TIP3    H152832   3.505   5.942   2.129 -1.2563 -0.7980  0.0165
10447TIP3    H252833   3.540   6.088   2.149  0.5685 -1.2941  0.5470
10448TIP3   OH252834   0.934   6.048  12.122 -0.4595 -0.3290  0.1101
10448TIP3    H152835   1.011   6.074  12.173 -1.6130  0.3419  1.5250
10448TIP3    H252836   0.963   5.971  12.073  0.1838 -2.0066  3.0375
10449TIP3   OH252837   2.029   0.746  15.740  0.3045  0.2017 -0.2739
10449TIP3    H152838   2.018   0.766  15.647  1.3616  2.9468  0.1462
10449TIP3    H252839   1.939   0.732  15.772 -0.1902  0.8099 -1.3770
10450TIP3   OH252840   6.624   2.123  14.250 -0.6135  0.4864  0.6112
10450TIP3    H152841   6.536   2.097  14.222  0.7364 -2.5948 -1.0653
10450TIP3    H252842   6.637   2.080  14.334  0.5674 -2.0954 -0.8338
10451TIP3   OH252843   2.436   3.027  13.391  0.1633  0.0028  0.7921
10451TIP3    H152844   2.398   3.051  13.306  0.8404  0.1857  0.5409
10451TIP3    H252845   2.377   3.066  13.456  0.5588  1.2475  0.3979
10452TIP3   OH252846   0.007   3.008  16.974 -0.0194 -0.1379 -0.5728
10452TIP3    H152847   0.033   2.984  17.063  0.1231 -0.1097 -0.6074
10452TIP3    H252848   0.086   3.045  16.935  0.3676 -1.5990 -1.2276
10453TIP3   OH252849   6.016   4.833  15.798  0.1947 -0.6928 -0.0256
10453TIP3    H152850   5.923   4.832  15.819 -0.4020 -1.1517 -2.5299
10453TIP3    H252851   6.048   4.915  15.835 -2.2347  1.7948 -3.1586
10454TIP3   OH252852   6.457   3.733   2.674  0.2398 -0.2776  0.6055
10454TIP3    H152853   6.416   3.658   2.717  0.4237 -0.9910 -0.4535
10454TIP3    H252854   6.478   3.793   2.746 -1.1414 -0.6254  1.3276
10455TIP3   OH252855   0.104   0.702  12.417 -0.1654  0.7303  0.4257
10455TIP3    H152856   0.130   0.677  12.329 -0.0575  0.4569  0.5328
10455TIP3    H252857   0.182   0.743  12.455 -0.5768  1.9022 -0.0054
10456TIP3   OH252858   2.818   0.312  11.253  0.0258 -0.1078  0.5094
10456TIP3    H152859   2.794   0.262  11.175  0.6170  1.7473 -0.8991
10456TIP3    H252860   2.735   0.334  11.295 -0.3579 -0.1431 -0.2242
10457TIP3   OH252861   1.568   3.458  13.637 -0.8726  0.1425 -0.1669
10457TIP3    H152862   1.594   3.370  13.663 -0.4750  0.6524  1.1841
10457TIP3    H252863   1.498   3.482  13.697 -0.2870  1.1344  0.1292
10458TIP3   OH252864   2.529   5.687   5.461  0.5668  0.4151  0.4130
10458TIP3    H152865   2.614   5.653   5.432  0.0256  0.4980 -1.2898
10458TIP3    H252866   2.494   5.733   5.386 -2.3956 -2.2754  0.0112
10459TIP3   OH252867   2.043   0.585   0.407  0.1958 -0.3315  0.0360
10459TIP3    H152868   1.950   0.575   0.424  0.2089 -0.6562 -0.0828
10459TIP3    H252869   2.062   0.676   0.430 -0.1881 -0.2104 -0.1186
10460TIP3   OH252870   6.062   0.803   5.096  0.5308 -0.2476 -0.4366
10460TIP3    H152871   6.064   0.849   5.180 -0.1680 -1.7360  0.4115
10460TIP3    H252872   6.001   0.854   5.043  0.0231  0.0154  0.3779
10461TIP3   OH252873   1.409   3.090  13.637 -0.5607 -0.3439  0.4581
10461TIP3    H152874   1.368   3.130  13.560  0.1333 -1.1038 -0.3146
10461TIP3    H252875   1.338   3.085  13.702 -2.0263 -2.7653 -1.2840
10462TIP3   OH252876   4.188   1.133   5.456  0.2435  0.1129 -0.2808
10462TIP3    H152877   4.127   1.059   5.454  0.8201 -0.4218  1.4392
10462TIP3    H252878   4.222   1.134   5.545  1.9662  1.0503 -0.9243
10463TIP3   OH252879   0.984   0.645   3.667 -0.2431  0.1685  0.6603
10463TIP3    H152880   1.023   0.703   3.603 -0.2055 -0.4352  0.1305
10463TIP3    H252881   0.938   0.703   3.728 -0.7083  0.7082 -0.1999
10464TIP3   OH252882   0.782   3.449  12.827 -0.0541 -0.4488 -0.6945
10464TIP3    H152883   0.794   3.357  12.804  1.5975 -0.3096 -0.4799
10464TIP3    H252884   0.838   3.462  12.904 -1.3701  0.3985  0.1497
10465TIP3   OH252885   2.166   3.387   0.370  0.9706  0.1095 -0.1784
10465TIP3    H152886   2.186   3.473   0.407 -0.2092  0.3527 -0.0848
10465TIP3    H252887   2.084   3.399   0.323  1.3023 -0.7409 -0.9983
10466TIP3   OH252888   0.548   0.197   3.284 -0.2790  0.3312 -0.7525
10466TIP3    H152889   0.522   0.121   3.337  0.2883  0.0137 -0.9225
10466TIP3    H252890   0.591   0.159   3.207  0.6164  0.8337 -0.5107
10467TIP3   OH252891   2.089   5.236   4.995  0.2903  0.4579  0.4992
10467TIP3    H152892   2.027   5.270   5.060 -0.3013  0.0333  0.1650
10467TIP3    H252893   2.129   5.314   4.956  2.0660  0.6972  2.7082
10468TIP3   OH252894   1.735   6.302   3.776  0.0655  0.6039 -0.2479
10468TIP3    H152895   1.727   6.208   3.764 -0.4258  0.4661  1.0122
10468TIP3    H252896   1.670   6.340   3.718 -0.1740  0.1370 -0.2821
10469TIP3   OH252897   1.347   5.556  14.130 -0.6023  0.2729 -0.4168
10469TIP3    H152898   1.295   5.624  14.173  0.8672  0.5138  0.9918
10469TIP3    H252899   1.372   5.594  14.046  0.2393  1.4853  0.3781
10470TIP3   OH252900   1.204   6.325   1.741 -0.0652 -0.1685  0.2937
10470TIP3    H152901   1.153   6.282   1.810  2.0749  1.1959  2.8255
10470TIP3    H252902   1.171   6.414   1.738 -0.8564 -0.4964 -1.2211
10471TIP3   OH252903   2.021   3.593  13.056  0.0823 -0.7694 -0.0857
10471TIP3    H152904   2.093   3.596  13.120 -0.3339  0.1345  0.3518
10471TIP3    H252905   2.012   3.684  13.027 -0.6020 -0.9572 -0.4653
10472TIP3   OH252906   4.592   6.034  11.751 -0.9009  0.4287  0.5242
10472TIP3    H152907   4.577   6.123  11.784 -0.6637  0.9161 -0.6647
10472TIP3    H252908   4.686   6.031  11.734 -1.2388  0.6437 -1.4150
10473TIP3   OH252909   4.153   3.827  17.075 -0.2273 -0.0077 -0.2308
10473TIP3    H152910   4.078   3.824  17.134 -0.6317  0.8549 -0.6963
10473TIP3    H252911   4.160   3.737  17.041  0.0844 -0.5341  1.1970
10474TIP3   OH252912   1.770   5.740  13.937 -0.3998  0.3065 -0.3968
10474TIP3    H152913   1.814   5.733  13.853  1.1442 -4.0887  0.6784
10474TIP3    H252914   1.688   5.691  13.926  0.0801 -0.7962  0.8050
10475TIP3   OH252915   0.884   5.083   1.735  0.0533 -0.8986 -0.2949
10475TIP3    H152916   0.919   5.152   1.680  2.3229 -2.8620 -1.4160
10475TIP3    H252917   0.924   5.096   1.821  0.4476 -0.8006 -0.4965
10476TIP3   OH252918   3.541   5.580  17.252  0.1149  1.1789  0.4576
10476TIP3    H152919   3.447   5.597  17.250 -0.3609 -0.9593  2.3418
10476TIP3    H252920   3.559   5.533  17.170 -0.4840  1.4059  0.1921
10477TIP3   OH252921   0.730   5.048   4.677 -0.6901 -0.1757 -0.0170
10477TIP3    H152922   0.723   5.038   4.582 -1.1435  2.2072 -0.2614
10477TIP3    H252923   0.820   5.079   4.690  0.2670 -3.0768  0.5976
10478TIP3   OH252924   1.051   4.685   3.301 -0.0158 -0.0959 -0.5895
10478TIP3    H152925   0.965   4.695   3.260 -0.1026 -2.7355 -1.1430
10478TIP3    H252926   1.113   4.694   3.229  0.3231  3.2134  0.0204
10479TIP3   OH252927   0.773   5.642   4.763  0.5159 -0.6053 -0.1659
10479TIP3    H152928   0.822   5.717   4.730 -1.3371  0.0463 -1.5013
10479TIP3    H252929   0.699   5.680   4.810 -0.3077 -1.6102 -0.6391
10480TIP3   OH252930   6.674   6.709   0.819  0.0293  0.1210  0.4883
10480TIP3    H152931   6.579   6.722   0.827  0.0076  0.4661 -0.3043
10480TIP3    H252932   6.707   6.793   0.789  0.4162 -0.3988 -0.5647
10481TIP3   OH252933   2.814   6.227  10.529 -0.1241  0.8234  0.6744
10481TIP3    H152934   2.792   6.275  10.609 -0.4322  0.3757  0.8569
10481TIP3    H252935   2.759   6.149  10.531 -0.6158  1.1405 -0.3119
10482TIP3   OH252936   0.350   4.506  12.223 -0.7333 -0.2210  0.2893
10482TIP3    H152937   0.386   4.420  12.202 -2.1251 -0.5592 -0.8170
10482TIP3    H252938   0.316   4.538  12.140 -1.2842  0.8865  0.9373
10483TIP3   OH252939   3.558   5.757  14.199  0.1229 -0.1263 -0.5750
10483TIP3    H152940   3.514   5.836  14.231  1.5995  0.6076 -0.2871
10483TIP3    H252941   3.497   5.686  14.219  0.1662  0.5537  2.1657
10484TIP3   OH252942   3.890   1.617  15.509  0.0623 -0.2579 -0.0808
10484TIP3    H152943   3.977   1.589  15.480  0.3098 -0.8449  1.2123
10484TIP3    H252944   3.889   1.602  15.603 -0.0707  3.3904  0.5962
10485TIP3   OH252945   4.240   0.010   6.251  0.3642 -0.1389  0.2019
10485TIP3    H152946   4.300  -0.064   6.240  0.0128 -0.6129  1.3400
10485TIP3    H252947   4.159  -0.019   6.210  0.5627  0.0392 -0.3107
10486TIP3   OH252948   6.439   2.958   0.314  0.4107 -0.4252  0.1284
10486TIP3    H152949   6.475   2.910   0.388 -0.3385  0.3364  1.0104
10486TIP3    H252950   6.344   2.949   0.324  0.2628  1.1444  0.2533
10487TIP3   OH252951   4.576   2.146  14.315  0.4676 -0.3034 -0.3695
10487TIP3    H152952   4.485   2.173  14.304  0.2605 -1.6680 -2.1002
10487TIP3    H252953   4.620   2.175  14.235  1.4038 -0.3209  0.1226
10488TIP3   OH252954   2.396   6.549  15.832 -0.3137  0.2952 -0.2148
10488TIP3    H152955   2.325   6.560  15.769 -1.6801  0.1340  1.2860
10488TIP3    H252956   2.379   6.616  15.899  1.6609  1.1037 -0.4756
10489TIP3   OH252957   4.751   2.468   1.325  0.6222 -0.5308  0.3207
10489TIP3    H152958   4.779   2.456   1.234  0.3866  2.2262 -0.1476
10489TIP3    H252959   4.659   2.440   1.326 -0.3293  2.3385 -1.0503
10490TIP3   OH252960   3.940   2.110   0.757  0.6379 -0.0513 -0.0601
10490TIP3    H152961   3.875   2.163   0.712  0.3816 -0.4453 -0.1548
10490TIP3    H252962   4.004   2.087   0.689 -0.0645 -1.1450 -0.3623
10491TIP3   OH252963   3.703   3.077   2.241  0.0103 -0.0773  0.2340
10491TIP3    H152964   3.646   3.151   2.262 -2.2299 -2.1524  1.6932
10491TIP3    H252965   3.731   3.094   2.151 -0.0352  2.7783  0.7039
10492TIP3   OH252966   1.393   0.425  16.418  0.3111 -0.5525  0.2216
10492TIP3    H152967   1.487   0.439  16.432  0.9327 -2.2034 -1.9418
10492TIP3    H252968   1.377   0.335  16.447 -0.5763 -0.3137  0.4895
10493TIP3   OH252969   5.120   1.423  16.484 -0.5506  0.9716  0.1278
10493TIP3    H152970   5.034   1.403  16.448  0.3575 -2.0039 -0.5027
10493TIP3    H252971   5.175   1.443  16.408  0.3890 -1.5402  0.0787
10494TIP3   OH252972   5.897   0.895  11.209 -0.0898  0.2073  0.2579
10494TIP3    H152973   5.971   0.849  11.169 -0.3234  0.0010  0.0614
10494TIP3    H252974   5.883   0.972  11.153 -0.8934 -0.4773 -0.4906
10495TIP3   OH252975   1.897   4.945   3.453 -0.3417 -0.5323  0.2424
10495TIP3    H152976   1.956   4.961   3.527  0.4342  1.0535 -0.6889
10495TIP3    H252977   1.869   4.854   3.463  1.3523 -0.9437  1.3631
10496TIP3   OH252978   5.976   6.752  13.395 -0.1028  0.6132 -0.2555
10496TIP3    H152979   6.055   6.702  13.373 -0.3113  0.3926 -0.5195
10496TIP3    H252980   5.956   6.801  13.315 -0.2850  0.5948 -0.2224
10497TIP3   OH252981   1.981   6.413   3.215  0.2513 -0.0200 -0.3491
10497TIP3    H152982   1.914   6.409   3.283 -0.9974  0.1138 -1.5605
10497TIP3    H252983   1.947   6.476   3.151  0.5982 -1.4313 -1.9591
10498TIP3   OH252984   4.283   1.477   0.648 -0.8536  0.2056 -0.9144
10498TIP3    H152985   4.202   1.521   0.674 -0.1312 -0.0654  1.9412
10498TIP3    H252986   4.277   1.391   0.689  0.4259 -0.1893 -1.5406
10499TIP3   OH252987   0.260   2.391  14.964 -0.9414  0.4158  0.5151
10499TIP3    H152988   0.269   2.481  14.932 -1.2745  0.9083  1.7917
10499TIP3    H252989   0.188   2.355  14.911 -1.0150  0.9943  0.2096
10500TIP3   OH252990   6.511   6.337  15.605 -0.3740  0.4420 -0.1042
10500TIP3    H152991   6.603   6.312  15.606 -0.9873 -1.9322 -0.5921
10500TIP3    H252992   6.495   6.373  15.693  0.8664  0.3901  0.1561
10501TIP3   OH252993   2.173   3.526  12.542 -0.3189 -0.1829 -0.1597
10501TIP3    H152994   2.209   3.527  12.453  1.0613  0.0035  0.3913
10501TIP3    H252995   2.146   3.435  12.556  0.6902 -0.5088 -0.2885
10502TIP3   OH252996   5.549   6.749  17.110 -0.9960  0.1347  0.2640
10502TIP3    H152997   5.589   6.685  17.050 -0.8459 -0.6430  1.1865
10502TIP3    H252998   5.540   6.828  17.057 -0.8475 -0.5376 -0.7876
10503TIP3   OH252999   0.486   0.671  11.166  0.0995  0.3825 -0.3021
10503TIP3    H153000   0.448   0.646  11.082 -1.8106  0.0852  0.6180
10503TIP3    H253001   0.580   0.668  11.152 -0.1981 -0.0892 -2.3044
10504TIP3   OH253002   0.512   2.873   0.593  0.1699  0.0087 -0.3545
10504TIP3    H153003   0.559   2.863   0.510  1.9491 -0.4847  0.6854
10504TIP3    H253004   0.513   2.786   0.632  1.7257  0.7948  1.4201
10505TIP3   OH253005   6.443   1.300  13.211 -0.1310 -0.0487  0.2991
10505TIP3    H153006   6.387   1.344  13.146 -0.1263 -0.3506  0.0884
10505TIP3    H253007   6.407   1.212  13.218  0.3819 -0.2725  0.1000
10506TIP3   OH253008   0.629   4.677   6.241 -0.5083  0.4863 -0.5873
10506TIP3    H153009   0.724   4.687   6.248 -0.6049  0.7925  0.3336
10506TIP3    H253010   0.616   4.623   6.163  0.4874 -0.6645  0.0339
10507TIP3   OH253011   5.907   6.540   6.368  0.3338  0.5267 -0.1745
10507TIP3    H153012   5.814   6.560   6.358  0.1675  0.4643  1.2141
10507TIP3    H253013   5.910   6.444   6.378  0.7717  0.2500 -2.6778
10508TIP3   OH253014   2.181   4.916   4.525  0.4938 -0.0942 -0.0820
10508TIP3    H153015   2.214   5.003   4.503  2.2631 -0.5283  0.7546
10508TIP3    H253016   2.224   4.857   4.463 -0.6609 -0.3883 -0.6171
10509TIP3   OH253017   5.067   2.740  16.815  0.4820  0.6633 -0.4808
10509TIP3    H153018   5.086   2.813  16.874  1.8462  0.6657 -0.9040
10509TIP3    H253019   4.995   2.693  16.856  0.8711  1.1469  0.7575
10510TIP3   OH253020   2.339   1.210  11.900 -0.1651  0.1562 -0.8484
10510TIP3    H153021   2.358   1.124  11.862  0.9874 -0.4410  1.0284
10510TIP3    H253022   2.266   1.243  11.847  0.8981 -0.9439 -3.0924
10511TIP3   OH253023   4.786   6.497  12.295 -0.0386  0.5748 -0.0242
10511TIP3    H153024   4.780   6.540  12.380 -1.1415  0.6620 -0.1376
10511TIP3    H253025   4.724   6.545  12.240  1.3134  1.1041 -1.1365
10512TIP3   OH253026   0.781   2.092  10.855 -0.1248  0.5647 -0.1734
10512TIP3    H153027   0.688   2.087  10.833  0.5405 -1.9498 -2.7603
10512TIP3    H253028   0.814   2.164  10.801 -0.3935  0.9275  0.1376
10513TIP3   OH253029   1.338   3.404  13.791 -0.2575  0.3059  0.4301
10513TIP3    H153030   1.296   3.456  13.859 -1.7933 -0.5173  0.1188
10513TIP3    H253031   1.266   3.366  13.741  0.8434  1.0149 -1.7648
10514TIP3   OH253032   5.338   2.774   4.835  0.3805 -0.1631 -0.1802
10514TIP3    H153033   5.344   2.867   4.814  0.7878 -0.6986 -2.5144
10514TIP3    H253034   5.426   2.740   4.821  0.8853 -0.4460  3.1712
10515TIP3   OH253035   1.409   5.755  12.978  0.0636  0.1059 -0.0666
10515TIP3    H153036   1.431   5.686  12.916  0.1047 -1.8594  2.0471
10515TIP3    H253037   1.314   5.767  12.969  0.1389  0.1636 -0.8099
10516TIP3   OH253038   4.018   1.361  11.850  0.5767 -0.0710 -0.1054
10516TIP3    H153039   4.021   1.364  11.754  2.0391 -1.5778 -0.1387
10516TIP3    H253040   3.995   1.450  11.876  1.4444  0.6832 -1.8322
10517TIP3   OH253041   3.677   6.757   5.590  0.2654 -0.1083 -0.2556
10517TIP3    H153042   3.771   6.740   5.589  0.0658 -1.3503  0.9142
10517TIP3    H253043   3.641   6.691   5.649 -1.0671  1.7989  1.1327
10518TIP3   OH253044   4.969   1.278   6.317  0.3269 -0.4653  0.2071
10518TIP3    H153045   4.876   1.268   6.337  0.2647  0.4683  0.3888
10518TIP3    H253046   4.971   1.301   6.224  0.3514 -0.0813  0.3020
10519TIP3   OH253047   3.031   2.984  13.035 -0.0043 -0.3932  0.0939
10519TIP3    H153048   3.021   3.079  13.044 -3.1977 -0.7274  0.4851
10519TIP3    H253049   3.029   2.968  12.941 -2.8692 -0.3514  0.1065
10520TIP3   OH253050   1.035   3.847   2.027 -0.1465 -0.1704  0.3523
10520TIP3    H153051   1.057   3.757   2.003 -0.9868 -0.5771  1.0576
10520TIP3    H253052   1.095   3.868   2.099  2.0032  0.8600 -1.6737
10521TIP3   OH253053   0.317   5.711  14.837  0.1730 -0.2147 -0.2875
10521TIP3    H153054   0.274   5.658  14.903  1.0682  0.6404  0.9891
10521TIP3    H253055   0.278   5.798  14.846  0.5067 -0.0162 -0.6885
10522TIP3   OH253056   1.233   3.274   0.679  0.4990 -0.0025 -0.2172
10522TIP3    H153057   1.293   3.289   0.606  0.1266 -0.4325 -0.6127
10522TIP3    H253058   1.182   3.197   0.654 -1.7447  1.6428 -0.8760
10523TIP3   OH253059   6.736   5.917   2.911 -0.1101 -0.1737 -0.3377
10523TIP3    H153060   6.659   5.905   2.857 -0.0043  0.4138 -0.6190
10523TIP3    H253061   6.796   5.848   2.884 -0.2438 -0.1713 -0.6322
10524TIP3   OH253062   1.035   1.292  15.957  0.9961  0.6228  0.5370
10524TIP3    H153063   1.098   1.276  16.027  0.5688 -1.5119  0.4739
10524TIP3    H253064   0.963   1.231  15.975  0.4472  0.7247 -1.1974
10525TIP3   OH253065   1.810   6.722  12.566 -0.1395 -0.3099 -0.5583
10525TIP3    H153066   1.798   6.724  12.471 -2.9250 -0.6873 -0.2482
10525TIP3    H253067   1.726   6.691  12.601  0.2865  1.3532  2.1277
10526TIP3   OH253068   4.603   6.354   3.220  0.0049 -0.0056  0.3736
10526TIP3    H153069   4.635   6.442   3.203 -1.2759  0.7341  1.7075
10526TIP3    H253070   4.566   6.358   3.308 -2.5451 -1.1475 -0.5867
10527TIP3   OH253071   1.685   3.549   2.015  0.3204  0.3681 -0.0900
10527TIP3    H153072   1.618   3.568   2.082  2.1686  2.6924  1.1818
10527TIP3    H253073   1.643   3.574   1.933 -0.9806  0.2195  0.5053
10528TIP3   OH253074   3.622   2.504  10.656 -0.6080  0.7461  0.1726
10528TIP3    H153075   3.641   2.535  10.568 -0.6546 -1.3529 -0.5922
10528TIP3    H253076   3.535   2.538  10.676 -0.6512  1.1063 -0.6349
10529TIP3   OH253077   0.585   5.736   3.926 -0.3970  0.2487 -0.0176
10529TIP3    H153078   0.609   5.739   3.834 -1.7319 -0.9441 -0.4290
10529TIP3    H253079   0.489   5.742   3.926 -0.4969 -1.0034  1.2049
10530TIP3   OH253080   3.050   4.076   6.044 -0.4438  0.1087  0.0244
10530TIP3    H153081   3.130   4.128   6.049 -0.2488 -0.1309 -0.6447
10530TIP3    H253082   3.065   4.002   6.103 -0.4712  0.4600  0.4787
10531TIP3   OH253083   3.034   3.486   2.557 -0.2373 -0.5014 -0.4919
10531TIP3    H153084   3.100   3.554   2.569  0.3094 -0.8757 -1.3523
10531TIP3    H253085   2.980   3.517   2.485 -0.8879 -0.2950  0.0747
10532TIP3   OH253086   3.644   6.437  17.056 -0.1891  0.0856 -0.0646
10532TIP3    H153087   3.703   6.459  17.128  1.6974 -1.8725 -0.9348
10532TIP3    H253088   3.701   6.398  16.990 -2.2765 -0.5404 -1.5501
10533TIP3   OH253089   6.016   5.223   3.072  0.6028 -0.0939 -0.4860
10533TIP3    H153090   5.954   5.269   3.015  0.9763 -0.3019 -1.0645
10533TIP3    H253091   5.963   5.193   3.146  0.1548  0.3559 -0.6226
10534TIP3   OH253092   0.924   4.558   5.240 -0.3484 -0.7548 -0.0425
10534TIP3    H153093   0.963   4.480   5.279 -0.0741  0.4809  2.2663
10534TIP3    H253094   0.907   4.534   5.149  3.2461 -2.2347 -0.4150
10535TIP3   OH253095   3.498   0.071   3.647 -0.2745  0.6234  0.0093
10535TIP3    H153096   3.498   0.087   3.741 -1.2231 -0.9485  0.3064
10535TIP3    H253097   3.409   0.093   3.619  0.2119  1.7559 -0.6389
10536TIP3   OH253098   3.179   5.956  17.232  0.2599  0.0092 -0.2421
10536TIP3    H153099   3.104   5.920  17.279  1.2417 -0.1118  1.2669
10536TIP3    H253100   3.144   6.032  17.186 -0.8380 -0.1749  0.2594
10537TIP3   OH253101   3.894   0.555  10.848  0.7925 -0.3782 -0.2406
10537TIP3    H153102   3.873   0.563  10.755  1.5719 -0.1913 -0.4057
10537TIP3    H253103   3.986   0.582  10.854  1.2493 -1.9959  0.3385
10538TIP3   OH253104   2.049   4.375  15.744  0.3363 -0.1368 -0.6548
10538TIP3    H153105   2.071   4.435  15.815  2.4315 -0.7578 -0.7348
10538TIP3    H253106   1.959   4.348  15.763  0.7256 -0.0010  1.5691
10539TIP3   OH253107   3.487   3.531  16.907 -0.1631 -0.0747 -0.1100
10539TIP3    H153108   3.496   3.561  16.997 -1.1410 -0.7958  0.2315
10539TIP3    H253109   3.577   3.519  16.877  0.1767  0.6638  0.5941
10540TIP3   OH253110   5.939   3.287   3.686  0.4165  0.1056 -0.5176
10540TIP3    H153111   5.851   3.259   3.659  0.3599  0.1383 -0.3654
10540TIP3    H253112   5.935   3.292   3.781  0.5776  0.1278 -0.5117
10541TIP3   OH253113   2.265   6.516  11.976  0.1314  0.0875  0.4451
10541TIP3    H153114   2.204   6.588  11.993 -0.0736 -0.1870  0.8693
10541TIP3    H253115   2.229   6.442  12.025  0.3188 -0.3160 -0.0313
10542TIP3   OH253116   5.980   2.906  11.913  0.3388 -0.3270  0.4148
10542TIP3    H153117   5.907   2.968  11.913  0.4837 -0.1277 -1.1147
10542TIP3    H253118   6.033   2.930  11.989  1.1746  2.3914 -0.9722
10543TIP3   OH253119   3.040   1.971   3.000 -0.6612 -0.3192 -0.4953
10543TIP3    H153120   2.988   1.961   2.920 -0.7542  1.0084 -0.6160
10543TIP3    H253121   3.127   1.939   2.976 -1.4140 -2.6280 -0.2725
10544TIP3   OH253122   5.916   1.879   1.342 -0.6282  0.2637  0.0036
10544TIP3    H153123   5.984   1.863   1.277 -1.2646 -0.3644 -0.5278
10544TIP3    H253124   5.844   1.919   1.292 -0.9807  0.1182  0.3880
10545TIP3   OH253125   6.410   6.566   0.028 -0.6056  0.5376 -0.0629
10545TIP3    H153126   6.381   6.553   0.119 -1.0615  3.0434  0.1859
10545TIP3    H253127   6.345   6.521  -0.024 -0.7319 -0.3366  0.8353
10546TIP3   OH253128   4.953   0.401   5.954 -0.0662  0.4927  0.2652
10546TIP3    H153129   4.877   0.343   5.957  1.2654 -1.3434 -0.0468
10546TIP3    H253130   4.939   0.463   6.025  0.4090 -2.7768  3.3826
10547TIP3   OH253131   6.766   2.327  11.800  0.2242  0.4882  0.7536
10547TIP3    H153132   6.857   2.301  11.815  0.3730  0.4371 -0.2518
10547TIP3    H253133   6.768   2.422  11.807  0.8391  0.6870 -1.8344
10548TIP3   OH253134   4.619   6.432   1.875 -0.4136  0.1975  0.2906
10548TIP3    H153135   4.600   6.361   1.937 -1.4766  0.4320  0.2449
10548TIP3    H253136   4.588   6.511   1.920 -0.0204  0.5204 -0.0152
10549TIP3   OH253137   4.785   2.543   1.708  0.0685 -0.4732  0.3759
10549TIP3    H153138   4.715   2.565   1.646 -0.1273 -1.4055  0.2578
10549TIP3    H253139   4.739   2.509   1.784  0.4404 -2.4706 -0.2715
10550TIP3   OH253140   3.287   6.109   1.951  1.0074  0.1675 -0.3018
10550TIP3    H153141   3.326   6.194   1.972  0.5657 -0.3554  2.8374
10550TIP3    H253142   3.320   6.050   2.018 -0.5645 -1.6255 -1.0636
10551TIP3   OH253143   0.676   6.112  17.273  0.3680  0.2839 -0.6927
10551TIP3    H153144   0.663   6.201  17.240  1.0062  1.5521  2.3247
10551TIP3    H253145   0.765   6.089  17.244  0.9904  1.4436  0.2441
10552TIP3   OH253146   3.555   5.126   5.604 -0.6034  0.2548  0.1667
10552TIP3    H153147   3.531   5.146   5.695 -1.9975  0.9027 -0.3341
10552TIP3    H253148   3.550   5.210   5.559 -0.7402 -0.2139 -0.7047
10553TIP3   OH253149   1.163   0.430  10.979 -0.7608  1.0085  0.9082
10553TIP3    H153150   1.073   0.431  11.010 -1.5694  0.2521 -1.3877
10553TIP3    H253151   1.192   0.522  10.987 -1.0500  0.9258  3.4491
10554TIP3   OH253152   6.309   4.598   2.790  0.6221 -0.0173  0.4096
10554TIP3    H153153   6.225   4.577   2.750  0.9736  2.3717 -1.7308
10554TIP3    H253154   6.290   4.670   2.850  0.9215 -0.3637  0.9262
10555TIP3   OH253155   5.204   2.210  11.181  0.5043  0.4638 -0.0284
10555TIP3    H153156   5.230   2.191  11.091 -1.3471  2.2923 -1.0199
10555TIP3    H253157   5.108   2.211  11.178  0.4080 -0.3135  2.1672
10556TIP3   OH253158   1.376   5.090   3.048 -0.3418  0.4142  0.2015
10556TIP3    H153159   1.324   5.037   2.988 -0.6283  0.8821  0.0360
10556TIP3    H253160   1.371   5.178   3.013  1.0783  0.3528 -0.1634
10557TIP3   OH253161   0.532   3.460  11.464 -0.7478 -0.0899 -0.3743
10557TIP3    H153162   0.576   3.383  11.428 -2.2273 -0.6795 -0.9422
10557TIP3    H253163   0.489   3.501  11.389  0.4428  1.6014 -0.1698
10558TIP3   OH253164   3.993   5.819   0.029  0.0284 -0.2407 -0.0283
10558TIP3    H153165   4.072   5.794  -0.018 -0.2824  0.1789 -0.7951
10558TIP3    H253166   4.024   5.854   0.112  0.5961 -0.9250  0.0509
10559TIP3   OH253167   0.674   2.751   5.403  0.1186 -0.4373 -0.3937
10559TIP3    H153168   0.766   2.764   5.383  0.5610  0.8846  2.3116
10559TIP3    H253169   0.668   2.658   5.428  0.5252 -0.7302 -1.3383
10560TIP3   OH253170   4.712   5.171  11.465  0.7198  0.6275  0.2976
10560TIP3    H153171   4.636   5.152  11.410  0.3849  2.2605  0.1600
10560TIP3    H253172   4.676   5.185  11.552  0.9429  0.6787  0.3806
10561TIP3   OH253173   6.049   1.165   3.178 -0.0858  0.0631  0.2194
10561TIP3    H153174   6.072   1.217   3.255  0.9288  0.2749 -0.2202
10561TIP3    H253175   6.114   1.095   3.175 -0.3637 -0.1818 -0.2205
10562TIP3   OH253176   3.386   0.185   6.544 -0.4063  0.7573  1.3639
10562TIP3    H153177   3.303   0.231   6.549  0.0229  1.7811 -0.4229
10562TIP3    H253178   3.378   0.130   6.466  0.8778  1.4662  0.7188
10563TIP3   OH253179   4.924   2.477  17.168  0.3929 -0.0783 -0.6173
10563TIP3    H153180   4.904   2.389  17.135 -0.3797 -0.1288 -0.0538
10563TIP3    H253181   5.018   2.476  17.185  0.0963 -1.3735  1.0359
10564TIP3   OH253182   3.212   3.833  15.566 -1.0514 -0.3776 -0.3615
10564TIP3    H153183   3.162   3.907  15.531  0.0357  0.2267 -0.6828
10564TIP3    H253184   3.167   3.810  15.647 -0.5846  1.5935  0.4872
10565TIP3   OH253185   0.652   6.422  15.452 -0.3509  0.1561 -0.0232
10565TIP3    H153186   0.743   6.443  15.473 -0.9683  0.4909  2.4627
10565TIP3    H253187   0.614   6.506  15.424 -0.0571  0.1348 -0.4930
10566TIP3   OH253188   5.282   2.096  14.977  0.4292  0.3331  0.8191
10566TIP3    H153189   5.261   2.076  15.068 -0.2749 -1.0932  0.3596
10566TIP3    H253190   5.217   2.162  14.951  0.3954  0.4591  1.2315
10567TIP3   OH253191   3.196   0.074   5.227 -0.3261  0.5590 -0.1908
10567TIP3    H153192   3.178   0.009   5.159  2.4228  0.7736 -1.1628
10567TIP3    H253193   3.275   0.043   5.271  1.1606  3.2813 -0.7888
10568TIP3   OH253194   5.307   2.546  11.831  0.0983  0.1404  0.0181
10568TIP3    H153195   5.217   2.553  11.800  0.0868  0.4556  0.1188
10568TIP3    H253196   5.359   2.589  11.764  0.4575 -2.2267 -1.2794
10569TIP3   OH253197   5.935   5.391   3.529  0.3201 -0.0571 -0.1467
10569TIP3    H153198   5.845   5.358   3.525  0.6895 -0.9159 -1.8455
10569TIP3    H253199   5.925   5.486   3.527 -0.5628 -0.1423 -0.1431
10570TIP3   OH253200   3.663   5.802   3.319 -0.0046 -0.4765 -0.4406
10570TIP3    H153201   3.677   5.816   3.413 -0.0655 -1.0852 -0.3407
10570TIP3    H253202   3.658   5.891   3.282 -0.3504 -0.2337  0.1853
10571TIP3   OH253203   3.699   3.166  16.593 -0.7782  0.2191 -0.1493
10571TIP3    H153204   3.662   3.082  16.568 -0.5021 -0.0471  0.3414
10571TIP3    H253205   3.623   3.220  16.616 -1.0221  0.3907 -1.3081
10572TIP3   OH253206   0.758   1.488   4.315  0.0461  0.1915  0.4316
10572TIP3    H153207   0.816   1.558   4.285  0.6513 -1.1588 -1.6345
10572TIP3    H253208   0.804   1.449   4.390  0.5792  0.7740  0.4093
10573TIP3   OH253209   3.122   5.543   2.927  0.3414 -0.0409 -0.2014
10573TIP3    H153210   3.148   5.530   2.835  2.3429  1.6259  0.1038
10573TIP3    H253211   3.168   5.474   2.975  0.0007 -0.3572 -0.3243
10574TIP3   OH253212   0.950   0.624   0.039  0.1387 -0.5494  0.0930
10574TIP3    H153213   1.017   0.627  -0.030 -0.4189 -0.1255 -0.4330
10574TIP3    H253214   0.904   0.541   0.025  0.0037 -0.4477 -0.0648
10575TIP3   OH253215   3.788   5.387   4.665  0.3242 -0.0328 -0.1007
10575TIP3    H153216   3.841   5.308   4.660  1.2415  0.4085  2.1599
10575TIP3    H253217   3.705   5.357   4.703  1.1287  0.2597  1.9721
10576TIP3   OH253218   0.176   0.103   3.365  0.1446  0.1651  0.2811
10576TIP3    H153219   0.110   0.113   3.433 -0.7716  1.7843 -0.8298
10576TIP3    H253220   0.179   0.009   3.348 -2.7311  0.1744 -0.4780
10577TIP3   OH253221   6.778   1.457  13.488 -0.0908 -0.4913 -0.1641
10577TIP3    H153222   6.748   1.444  13.398 -1.3678  0.1791  0.1539
10577TIP3    H253223   6.784   1.552  13.498  1.4952 -0.5931  0.0018
10578TIP3   OH253224   1.440   0.700  11.935  0.3910 -0.1453  1.0947
10578TIP3    H153225   1.417   0.635  12.001  0.9875 -2.0009 -0.4828
10578TIP3    H253226   1.503   0.757  11.978 -1.3677  0.3968  3.0156
10579TIP3   OH253227   1.749   2.991  15.540 -0.0069 -0.3762  0.4343
10579TIP3    H153228   1.728   2.900  15.559 -0.1643 -0.2774  0.7486
10579TIP3    H253229   1.793   2.989  15.455  1.8825 -0.9762  1.4160
10580TIP3   OH253230   4.171   3.487   2.877  0.1402  0.1487 -0.5354
10580TIP3    H153231   4.209   3.572   2.858  0.1731  0.3695  0.4947
10580TIP3    H253232   4.089   3.486   2.827 -0.8884  1.6231  1.0613
10581TIP3   OH253233   0.129   2.174   4.282  0.1265 -0.6653  0.0546
10581TIP3    H153234   0.177   2.252   4.256  0.7285 -0.6837  1.1021
10581TIP3    H253235   0.101   2.191   4.372  2.0641 -2.4905  1.0458
10582TIP3   OH253236   6.706   4.515  14.007 -0.7369  0.0332  0.3663
10582TIP3    H153237   6.703   4.565  13.926 -1.1252 -1.6700 -0.6984
10582TIP3    H253238   6.626   4.464  14.007  0.4537 -1.8934  0.5686
10583TIP3   OH253239   1.910   4.458  13.979 -1.0036 -0.1295 -0.1808
10583TIP3    H153240   1.823   4.425  14.001 -0.8222 -0.3829  0.1515
10583TIP3    H253241   1.962   4.381  13.958 -1.1470  0.1040 -1.4156
10584TIP3   OH253242   1.355   5.366   3.002 -0.1184 -0.1902 -0.3756
10584TIP3    H153243   1.279   5.423   2.993 -1.8919 -2.2581  0.8360
10584TIP3    H253244   1.425   5.411   2.955 -1.4831  2.8622  0.3813
10585TIP3   OH253245   2.971   3.210   5.285  0.4485 -0.2976  0.4434
10585TIP3    H153246   3.004   3.300   5.290  1.6183 -0.7919  2.1559
10585TIP3    H253247   2.999   3.179   5.199  1.2902  0.5027  0.4231
10586TIP3   OH253248   4.419   2.659  15.673  0.1391  0.2205  0.4446
10586TIP3    H153249   4.423   2.575  15.719 -1.2745 -0.1211 -0.0352
10586TIP3    H253250   4.381   2.720  15.736  1.8743  0.6944  1.0533
10587TIP3   OH253251   0.194   0.394   2.401  0.0505 -0.2257 -0.1631
10587TIP3    H153252   0.191   0.397   2.497  0.7036 -1.4952 -0.1032
10587TIP3    H253253   0.102   0.396   2.375 -0.1691 -0.9506  0.5290
10588TIP3   OH253254   0.257   2.842  16.430  0.4359  0.3739  0.3465
10588TIP3    H153255   0.287   2.911  16.488  2.9289  0.2685 -0.7317
10588TIP3    H253256   0.320   2.771  16.443 -0.2060 -0.4508 -0.9156
10589TIP3   OH253257   0.105   0.551  11.441 -0.6935 -0.9990 -0.0559
10589TIP3    H153258   0.121   0.468  11.486  1.0644 -1.1215 -0.8728
10589TIP3    H253259   0.191   0.594  11.438 -1.1845 -0.0771 -1.4659
10590TIP3   OH253260   6.009   1.364  11.592 -0.3311  0.1943 -0.3314
10590TIP3    H153261   5.961   1.282  11.582  3.1375 -1.8871 -0.7787
10590TIP3    H253262   6.072   1.365  11.520  1.1034  2.2392  0.8620
10591TIP3   OH253263   5.732   3.244   3.391 -0.4441 -0.2235 -0.4040
10591TIP3    H153264   5.755   3.152   3.405  0.2161  0.2342  1.6821
10591TIP3    H253265   5.686   3.269   3.471  3.5531  2.6015  1.1184
10592TIP3   OH253266   6.348   3.249   0.910 -0.2842  0.0486  0.1946
10592TIP3    H153267   6.271   3.216   0.954  0.8712 -0.6913  1.6777
10592TIP3    H253268   6.357   3.194   0.832  0.9303 -2.3803  2.0053
10593TIP3   OH253269   1.548   5.670   4.393 -0.5609 -0.1863  0.6648
10593TIP3    H153270   1.537   5.674   4.488 -1.3557  2.5871  0.5097
10593TIP3    H253271   1.633   5.629   4.381  0.3945  1.1101  2.6591
10594TIP3   OH253272   2.788   2.802  16.611 -0.0615 -0.4284 -0.3150
10594TIP3    H153273   2.784   2.726  16.554 -0.7660 -1.0147  0.5104
10594TIP3    H253274   2.799   2.876  16.552  0.3624 -1.1434 -1.1364
10595TIP3   OH253275   0.055   4.344   5.861  0.0849 -0.1692 -0.1554
10595TIP3    H153276   0.058   4.330   5.956  3.2458  1.6875  0.0862
10595TIP3    H253277   0.014   4.430   5.851  0.5337  0.0119 -0.4375
10596TIP3   OH253278   5.075   4.331   0.753  0.3125  0.3374  0.1965
10596TIP3    H153279   4.980   4.344   0.753  0.0686 -1.4056  0.9245
10596TIP3    H253280   5.101   4.342   0.845  0.9987  1.9931 -0.1719
10597TIP3   OH253281   4.632   1.551  10.376 -0.1576 -1.0488 -0.1611
10597TIP3    H153282   4.711   1.606  10.377 -0.4684 -0.5959 -0.1359
10597TIP3    H253283   4.570   1.599  10.430  0.0890 -2.2172  1.1582
10598TIP3   OH253284   1.197   4.718  10.729  0.2460  0.1189  0.1645
10598TIP3    H153285   1.157   4.803  10.748 -0.3985  0.3171 -1.8458
10598TIP3    H253286   1.282   4.740  10.692  1.4868 -0.2451  2.7610
10599TIP3   OH253287   0.819   1.554  14.592 -0.2295 -0.4652  0.4469
10599TIP3    H153288   0.752   1.490  14.618  0.2034 -1.5200 -0.9887
10599TIP3    H253289   0.806   1.564  14.498  0.6302  0.5158  0.4338
10600TIP3   OH253290   1.663   3.114  14.217 -0.3777  0.3002  0.0088
10600TIP3    H153291   1.730   3.181  14.225  0.2926 -0.5789  2.3256
10600TIP3    H253292   1.582   3.161  14.197  0.0499  1.8109  1.7729
10601TIP3   OH253293   4.586   6.383   1.341  0.3496 -0.5888 -0.3615
10601TIP3    H153294   4.615   6.397   1.431 -0.6211  0.2958 -0.1815
10601TIP3    H253295   4.596   6.289   1.328 -0.2372 -0.8454  0.9363
10602TIP3   OH253296   3.617   1.401  16.457  0.1297  0.3336 -0.1675
10602TIP3    H153297   3.600   1.430  16.367 -0.5340 -1.0010 -0.4813
10602TIP3    H253298   3.568   1.320  16.466 -2.7764  2.2702  2.5721
10603TIP3   OH253299   3.085   4.028  10.827  0.6378  0.3676  0.1719
10603TIP3    H153300   2.994   4.005  10.809 -0.0968  3.0386  0.3629
10603TIP3    H253301   3.130   3.943  10.833 -1.8943 -0.9950  0.5375
10604TIP3   OH253302   5.492   5.549   1.795  0.4040 -0.2836 -0.5359
10604TIP3    H153303   5.491   5.633   1.750  0.7545 -0.4440 -0.8408
10604TIP3    H253304   5.416   5.501   1.761  1.4555 -0.9578 -2.0077
10605TIP3   OH253305   6.066   3.485  15.435  0.2583 -0.1587  0.9345
10605TIP3    H153306   6.015   3.442  15.503 -1.3748  0.3422  0.0348
10605TIP3    H253307   6.043   3.578  15.442 -0.1426 -0.1427 -0.4883
10606TIP3   OH253308   2.637   5.394  12.741  0.0239 -0.5951 -0.5816
10606TIP3    H153309   2.620   5.351  12.658 -1.6010 -0.3686 -0.3865
10606TIP3    H253310   2.567   5.364  12.799  1.5017 -1.2557  0.9082
10607TIP3   OH253311   0.502   4.674  12.588  0.4175  0.3829 -0.5892
10607TIP3    H153312   0.444   4.603  12.613  0.7085 -0.2773 -1.7295
10607TIP3    H253313   0.466   4.752  12.630  0.8951 -0.6783  1.8165
10608TIP3   OH253314   6.248   1.121   5.271  0.0267 -0.0499 -0.5531
10608TIP3    H153315   6.243   1.117   5.367  2.3740 -3.3313 -0.4831
10608TIP3    H253316   6.323   1.178   5.254 -0.7423  0.9905 -0.4310
10609TIP3   OH253317   2.339   6.030  14.846 -0.3189  0.8209  0.1184
10609TIP3    H153318   2.357   6.124  14.857 -2.0334  1.2495 -0.5746
10609TIP3    H253319   2.404   5.987  14.901  3.0849  2.2607 -2.5530
10610TIP3   OH253320   3.290   4.410  11.141  0.1090  0.0634  0.4848
10610TIP3    H153321   3.347   4.369  11.205  1.8713 -0.3058 -1.2472
10610TIP3    H253322   3.274   4.342  11.075 -0.5540  0.8298 -0.1647
10611TIP3   OH253323   4.708   0.591   1.434 -0.7187 -0.2820  0.3753
10611TIP3    H153324   4.643   0.653   1.466  1.5583  3.5426 -1.9345
10611TIP3    H253325   4.717   0.612   1.341  0.5256 -3.7981 -0.3778
10612TIP3   OH253326   0.691   2.551  10.459  0.4394  0.6017  0.2498
10612TIP3    H153327   0.733   2.519  10.539  0.5276  0.3831  0.1179
10612TIP3    H253328   0.729   2.497  10.390 -1.2624 -0.7202  0.2996
10613TIP3   OH253329   2.885   1.430  11.308  0.3516  0.3433 -0.2499
10613TIP3    H153330   2.955   1.452  11.246  1.0508  1.9480  1.0687
10613TIP3    H253331   2.931   1.397  11.385 -0.4911 -1.2198 -0.4035
10614TIP3   OH253332   0.710   1.060   3.104  0.6125 -0.2221  0.8848
10614TIP3    H153333   0.673   0.984   3.150  1.2200 -0.6898  0.6032
10614TIP3    H253334   0.674   1.054   3.016 -1.3687  1.2450  1.5597
10615TIP3   OH253335   1.135   0.300  13.908  0.1572 -1.0305 -0.0702
10615TIP3    H153336   1.161   0.392  13.917 -0.8122 -0.8417  0.9968
10615TIP3    H253337   1.187   0.254  13.974 -1.1173 -0.8687  1.0673
10616TIP3   OH253338   0.960   3.854  17.022 -0.0571  0.3024 -0.1804
10616TIP3    H153339   0.933   3.838  17.112  0.3910 -0.0030 -0.0999
10616TIP3    H253340   0.958   3.768  16.980 -1.1502  0.5726 -0.7092
10617TIP3   OH253341   4.166   3.449  15.250  0.0893 -0.4620 -0.3706
10617TIP3    H153342   4.111   3.426  15.175 -0.6001 -0.0455  0.0003
10617TIP3    H253343   4.233   3.381  15.252 -0.8820 -1.4329 -0.3488
10618TIP3   OH253344   4.970   0.426   1.680 -0.7132  0.4352 -0.1953
10618TIP3    H153345   4.904   0.378   1.630 -0.1479 -0.3062 -0.2252
10618TIP3    H253346   5.053   0.388   1.653 -0.3862  0.1684  1.1701
10619TIP3   OH253347   6.619   3.329   6.219  0.7241  0.3755 -0.4390
10619TIP3    H153348   6.560   3.397   6.254 -1.5707 -1.4916 -0.5907
10619TIP3    H253349   6.564   3.252   6.210  3.1807 -1.3829 -0.8105
10620TIP3   OH253350   5.470   3.427   1.025 -0.5476  0.1479  0.4971
10620TIP3    H153351   5.476   3.518   1.055 -1.8549  0.3292  0.2419
10620TIP3    H253352   5.438   3.434   0.935  1.0348 -0.5007 -0.1290
10621TIP3   OH253353   2.207   2.429   1.506  0.6243  0.0439  0.0969
10621TIP3    H153354   2.236   2.433   1.597  3.7794 -1.3533 -0.7742
10621TIP3    H253355   2.157   2.510   1.493 -0.4782 -0.0847  3.2268
10622TIP3   OH253356   2.155   5.727  15.476 -0.0736 -0.1647 -0.2801
10622TIP3    H153357   2.069   5.711  15.516  0.2800 -1.9773 -0.2072
10622TIP3    H253358   2.190   5.801  15.525 -0.3351 -1.3234  1.7049
10623TIP3   OH253359   0.484   6.116   5.229 -0.2913 -0.2151  0.7543
10623TIP3    H153360   0.401   6.149   5.194  0.4153  0.0792 -0.6925
10623TIP3    H253361   0.503   6.038   5.177  2.6637  2.3371 -2.2085
10624TIP3   OH253362   2.692   1.753   5.107  0.2158 -0.6275 -0.0884
10624TIP3    H153363   2.726   1.812   5.174  0.9706 -0.8711 -0.2527
10624TIP3    H253364   2.684   1.669   5.151  2.0580 -1.1333 -0.6574
10625TIP3   OH253365   4.560   2.477   0.305  0.0241  0.1276  0.0545
10625TIP3    H153366   4.635   2.534   0.291  0.2371 -0.4489 -1.1932
10625TIP3    H253367   4.576   2.402   0.248 -0.6622 -0.7937  1.0524
10626TIP3   OH253368   2.190   2.371  15.818  0.0902 -0.4895  0.5338
10626TIP3    H153369   2.167   2.431  15.747  0.8670  2.0869  2.3807
10626TIP3    H253370   2.108   2.326  15.838 -0.1226 -1.2858 -2.0056
10627TIP3   OH253371   6.478   2.566   2.988 -0.9219  0.3625 -0.0598
10627TIP3    H153372   6.411   2.602   3.046  0.6912  0.1815  1.9929
10627TIP3    H253373   6.518   2.642   2.948  0.0305  0.7065  1.4837
10628TIP3   OH253374   2.839   0.582  13.195 -0.1214  0.2531 -0.8932
10628TIP3    H153375   2.777   0.596  13.266  0.1143 -0.8104 -0.4689
10628TIP3    H253376   2.805   0.635  13.123 -1.1958  0.1436 -0.4762
10629TIP3   OH253377   1.083   5.364   4.159  0.0400 -0.2028 -0.0945
10629TIP3    H153378   1.015   5.391   4.097  0.6057  1.2331 -0.1096
10629TIP3    H253379   1.035   5.328   4.234 -0.7084  0.0008 -0.4778
10630TIP3   OH253380   6.183   3.429   4.187  0.2340 -0.6087 -0.5954
10630TIP3    H153381   6.213   3.508   4.143  0.1880  0.4786  1.2514
10630TIP3    H253382   6.092   3.419   4.159 -0.2368  0.8787  0.3037
10631TIP3   OH253383   3.138   4.557   2.691 -0.2864  0.1404  0.0495
10631TIP3    H153384   3.062   4.500   2.681 -1.1910  1.5320 -1.2585
10631TIP3    H253385   3.162   4.548   2.783 -0.7776 -1.8632  0.0139
10632TIP3   OH253386   4.460   2.543   3.156  0.5241 -0.6834  0.1453
10632TIP3    H153387   4.382   2.563   3.103 -0.1553  0.7523  1.6601
10632TIP3    H253388   4.505   2.474   3.106 -2.0550 -2.0148 -0.4442
10633TIP3   OH253389   4.620   5.287   0.069  0.3050  0.2450 -0.4029
10633TIP3    H153390   4.625   5.217   0.134  2.2512 -0.1515 -0.9603
10633TIP3    H253391   4.596   5.242  -0.012 -1.7812  0.6946 -0.0611
10634TIP3   OH253392   3.121   2.130   5.377 -0.1522 -0.7642  0.4008
10634TIP3    H153393   3.213   2.150   5.394 -0.2446 -1.6597  2.0259
10634TIP3    H253394   3.108   2.155   5.285  1.2172  1.0843  0.6790
10635TIP3   OH253395   0.542   1.773  17.016  0.0933  0.2475  0.3529
10635TIP3    H153396   0.495   1.828  16.954  1.5563 -0.2743 -1.2464
10635TIP3    H253397   0.609   1.829  17.053  0.2600  0.1135  0.2541
10636TIP3   OH253398   1.020   5.431   1.964 -0.4188  0.2504  0.7574
10636TIP3    H153399   1.051   5.511   1.922 -0.6972  0.9641  1.8838
10636TIP3    H253400   0.944   5.459   2.015  0.9910 -0.2208  3.1948
10637TIP3   OH253401   3.422   5.687  16.469 -0.3286  0.1603  0.9902
10637TIP3    H153402   3.508   5.644  16.465 -0.4243  0.0341 -0.0306
10637TIP3    H253403   3.416   5.721  16.558  0.1157 -1.2160  1.5615
10638TIP3   OH253404   2.739   2.891  12.822  0.3516 -0.2256 -0.0808
10638TIP3    H153405   2.658   2.879  12.771  1.5635 -0.3626 -2.0498
10638TIP3    H253406   2.786   2.809  12.813  0.7301 -0.1390  1.0353
10639TIP3   OH253407   3.467   0.217  15.882  0.0763 -0.4780  0.0914
10639TIP3    H153408   3.480   0.296  15.830  2.2001 -1.2866 -0.6829
10639TIP3    H253409   3.504   0.238  15.968 -1.6204  0.1807  0.6859
10640TIP3   OH253410   6.765   3.358  12.664 -0.2528  0.0178  0.5613
10640TIP3    H153411   6.751   3.428  12.600  0.1551  0.9927  1.5330
10640TIP3    H253412   6.779   3.280  12.610 -3.7940  0.0471 -0.5069
10641TIP3   OH253413   4.981   2.948  14.940 -0.2583  0.2225 -0.3932
10641TIP3    H153414   5.022   2.927  15.025 -0.2551  0.4509 -0.3392
10641TIP3    H253415   4.922   2.874  14.924 -1.1039  0.7191  0.3497
10642TIP3   OH253416   5.228   0.945  14.694 -0.5828  0.5989 -0.0699
10642TIP3    H153417   5.191   0.879  14.752  1.5011 -0.0279  0.6041
10642TIP3    H253418   5.297   0.899  14.647  0.0749  1.9886 -0.4947
10643TIP3   OH253419   5.963   6.658  16.912  0.1707  0.1974 -0.2000
10643TIP3    H153420   6.027   6.728  16.903 -0.0833  0.7273  1.8680
10643TIP3    H253421   6.001   6.584  16.865  0.8678  1.4424 -1.6032
10644TIP3   OH253422   3.625   5.580  15.698 -0.5314 -0.4631 -0.0772
10644TIP3    H153423   3.679   5.657  15.719 -0.7559 -0.3303  0.0218
10644TIP3    H253424   3.547   5.617  15.656 -0.9163 -0.5886  0.5107
10645TIP3   OH253425   0.772   5.205  14.875 -0.2625 -0.2274  0.2075
10645TIP3    H153426   0.678   5.191  14.890 -0.5075  1.3031  0.2111
10645TIP3    H253427   0.813   5.185  14.960 -0.8977  1.7123  1.0043
10646TIP3   OH253428   5.775   0.652   1.067 -0.3621  0.1405 -0.1943
10646TIP3    H153429   5.729   0.573   1.040 -0.6898  0.3350 -0.2185
10646TIP3    H253430   5.827   0.677   0.990  0.3104 -0.4607  0.0706
10647TIP3   OH253431   2.209   6.626  15.180 -0.5402  0.1381  0.0098
10647TIP3    H153432   2.279   6.562  15.166 -0.8036 -0.2646  0.5331
10647TIP3    H253433   2.207   6.677  15.099  0.5755  0.3602  0.1072
10648TIP3   OH253434   4.670   2.409   5.843  0.1187 -0.2826  0.5343
10648TIP3    H153435   4.609   2.462   5.896 -0.4557 -0.2698 -0.1392
10648TIP3    H253436   4.743   2.468   5.826  0.2777 -0.2612  1.2544
10649TIP3   OH253437   5.702   3.358  15.878  0.0177 -0.1789 -0.4833
10649TIP3    H153438   5.744   3.277  15.905 -2.3614 -0.9407  1.1370
10649TIP3    H253439   5.673   3.343  15.788  1.1507 -0.4659 -0.8018
10650TIP3   OH253440   2.787   4.812   1.367  0.3772 -0.4080  0.5141
10650TIP3    H153441   2.726   4.861   1.422 -0.9957 -2.7618  1.1748
10650TIP3    H253442   2.748   4.814   1.279 -0.0042 -0.8451  0.6727
10651TIP3   OH253443   5.006   3.835  16.874 -0.2791  0.2164 -0.4264
10651TIP3    H153444   5.007   3.907  16.810  1.9428  0.4884 -0.1436
10651TIP3    H253445   5.080   3.780  16.848 -0.0501 -0.2751  1.2520
10652TIP3   OH253446   3.472   1.119  16.857 -0.0034  0.3096  0.4711
10652TIP3    H153447   3.506   1.206  16.879  2.3890 -0.1492 -1.1602
10652TIP3    H253448   3.392   1.111  16.909 -0.7959  3.8404 -0.0213
10653TIP3   OH253449   2.636   3.574  17.208 -0.3333  0.4486 -0.1937
10653TIP3    H153450   2.551   3.570  17.252 -0.5131  1.8858 -0.3914
10653TIP3    H253451   2.642   3.664  17.175  1.4570  0.5056  0.2228
10654TIP3   OH253452   2.225   4.970   6.064  0.0683  0.1035  0.1735
10654TIP3    H153453   2.213   4.915   6.141  0.5846  0.4895  0.5396
10654TIP3    H253454   2.137   4.998   6.040  0.0428  1.3044  1.6142
10655TIP3   OH253455   3.857   5.964   6.524 -0.1929 -0.6697 -0.2307
10655TIP3    H153456   3.896   5.986   6.608  0.3317  2.1498 -1.1646
10655TIP3    H253457   3.767   5.996   6.530 -0.2310 -0.6956 -0.6650
10656TIP3   OH253458   0.727   6.086   3.645  0.1576 -0.5854  0.1195
10656TIP3    H153459   0.641   6.049   3.666 -0.6577  0.9512 -0.4139
10656TIP3    H253460   0.771   6.017   3.596 -1.9624 -0.2722 -2.3351
10657TIP3   OH253461   4.802   3.152  13.865 -0.0669  0.0046  0.0409
10657TIP3    H153462   4.877   3.111  13.821  0.4840  0.9663  0.0824
10657TIP3    H253463   4.823   3.148  13.958  1.8671  3.9280 -0.1181
10658TIP3   OH253464   1.014   2.642   5.550  0.1297 -0.2248 -0.2689
10658TIP3    H153465   0.978   2.591   5.623  0.1054  0.6880  0.3616
10658TIP3    H253466   0.943   2.701   5.525  0.2761 -0.2616 -0.7790
10659TIP3   OH253467   4.523   4.761   5.435  0.1647 -0.1253 -0.3429
10659TIP3    H153468   4.536   4.854   5.419  1.4999 -0.6514 -2.4858
10659TIP3    H253469   4.548   4.749   5.527  1.1910  1.4174 -0.3947
10660TIP3   OH253470   3.239   5.163   6.017 -0.3358 -0.2302 -0.6500
10660TIP3    H153471   3.211   5.253   6.034  0.0760 -0.3908  0.9663
10660TIP3    H253472   3.170   5.110   6.057  0.2289 -0.6238 -0.1932
10661TIP3   OH253473   5.916   6.603  12.664 -0.1255 -0.0895  0.2276
10661TIP3    H153474   5.823   6.583  12.674  0.1879 -0.6996  2.0672
10661TIP3    H253475   5.960   6.546  12.728  1.3550  1.5858  0.7446
10662TIP3   OH253476   0.232   3.999   5.093  0.5780  0.9567  0.2731
10662TIP3    H153477   0.147   4.033   5.067 -1.2442 -1.9947  2.1530
10662TIP3    H253478   0.232   3.908   5.063  2.8122  0.7077  0.8992
10663TIP3   OH253479   1.767   6.071   1.298  0.2005 -0.4848 -0.3929
10663TIP3    H153480   1.840   6.081   1.237 -1.4998  2.1073 -2.1216
10663TIP3    H253481   1.773   6.147   1.356  0.4954 -1.7447  1.2560
10664TIP3   OH253482   1.553   3.626  12.451  0.0752  0.3571 -0.2276
10664TIP3    H153483   1.552   3.563  12.522 -1.2338  0.9252  0.2681
10664TIP3    H253484   1.629   3.601  12.397 -0.4591 -1.6426 -0.0656
10665TIP3   OH253485   4.902   1.988   3.283 -0.2366  0.0493 -0.1254
10665TIP3    H153486   4.904   1.972   3.189  0.7272  0.7174 -0.2348
10665TIP3    H253487   4.987   1.955   3.314 -0.9029 -0.9849  0.6591
10666TIP3   OH253488   5.665   6.046   1.369  0.4530  0.2388  0.1023
10666TIP3    H153489   5.666   6.063   1.463  1.0150 -0.3449  0.2070
10666TIP3    H253490   5.704   6.124   1.329 -0.1762  0.6691  0.3165
10667TIP3   OH253491   2.798   5.151   4.754 -0.4668 -0.5031  0.2942
10667TIP3    H153492   2.824   5.060   4.767 -1.7336 -0.6007  2.2306
10667TIP3    H253493   2.880   5.198   4.737  0.1123 -2.1047 -1.5359
10668TIP3   OH253494   5.024   1.703  14.311 -0.4270 -0.1448 -0.5548
10668TIP3    H153495   4.946   1.741  14.271  0.0289 -0.9175 -2.2392
10668TIP3    H253496   5.034   1.618  14.267  1.3493 -0.0573 -0.3575
10669TIP3   OH253497   2.011   4.954   0.620 -0.3862 -0.0026  0.6864
10669TIP3    H153498   2.026   4.995   0.705 -0.3062 -2.9246  2.1548
10669TIP3    H253499   1.941   5.007   0.580  0.0716  1.8346  2.2413
10670TIP3   OH253500   3.518   0.289   0.267 -0.7433 -0.1734  0.5041
10670TIP3    H153501   3.429   0.316   0.247 -0.4998  0.1313 -0.2060
10670TIP3    H253502   3.533   0.319   0.357 -1.6460 -1.0053  0.9300
10671TIP3   OH253503   5.333   6.301  15.171  0.5256 -0.2573 -0.1224
10671TIP3    H153504   5.383   6.242  15.227  0.3706 -0.2154  0.0612
10671TIP3    H253505   5.258   6.328  15.224  0.1189 -0.5957 -0.5117
10672TIP3   OH253506   3.404   3.695   0.752 -0.0738 -0.0464 -0.1401
10672TIP3    H153507   3.353   3.630   0.800 -1.3502  2.1675  1.6027
10672TIP3    H253508   3.352   3.715   0.675 -0.5481  0.1969  0.2410
10673TIP3   OH253509   4.706   5.083   5.796 -0.3526  0.1823  0.5375
10673TIP3    H153510   4.700   5.094   5.891  0.1784 -0.0275  0.5984
10673TIP3    H253511   4.640   5.143   5.760 -2.2005 -1.4614  1.1176
10674TIP3   OH253512   2.785   2.122  11.195  0.0598 -0.5427 -0.2859
10674TIP3    H153513   2.750   2.047  11.146 -0.8801 -0.0352 -0.3915
10674TIP3    H253514   2.765   2.198  11.140 -2.0911  0.1774  1.4452
10675TIP3   OH253515   4.403   0.209  12.494 -0.5361 -0.5913 -0.0857
10675TIP3    H153516   4.355   0.290  12.504 -1.5299 -0.9734 -1.5157
10675TIP3    H253517   4.495   0.234  12.499 -0.8141  0.7871 -1.6059
10676TIP3   OH253518   6.394   0.141   2.573 -0.2422 -0.1771 -0.2822
10676TIP3    H153519   6.394   0.056   2.617  1.0009 -0.2038 -0.3401
10676TIP3    H253520   6.361   0.202   2.640  1.7886 -0.1923  0.7677
10677TIP3   OH253521   5.332   6.738   1.575 -0.8207 -0.7313  0.2446
10677TIP3    H153522   5.406   6.678   1.586 -1.9077 -2.2665 -0.6935
10677TIP3    H253523   5.305   6.760   1.664 -1.0886 -2.4644  0.5926
10678TIP3   OH253524   3.419   3.641  16.343  0.6584  0.5684 -0.0000
10678TIP3    H153525   3.463   3.626  16.427 -0.4127  1.2715  0.7034
10678TIP3    H253526   3.463   3.718  16.307  2.1928 -0.6823 -0.8498
10679TIP3   OH253527   3.667   3.663  11.643  0.9137  0.1115 -0.0074
10679TIP3    H153528   3.726   3.605  11.691  0.9072  0.6916  0.7044
10679TIP3    H253529   3.652   3.737  11.702  0.1105  0.3531 -0.5004
10680TIP3   OH253530   0.376   6.069   1.892 -0.1968 -0.0069  0.3452
10680TIP3    H153531   0.424   6.142   1.932 -0.8045  1.0049 -0.7311
10680TIP3    H253532   0.419   5.991   1.925  0.7123  0.8525  1.2240
10681TIP3   OH253533   4.091   3.517   5.224 -0.0008 -0.2429  0.5501
10681TIP3    H153534   4.114   3.595   5.175 -0.1489 -1.2484 -1.1382
10681TIP3    H253535   4.172   3.466   5.226 -0.2242 -0.5958  0.6130
10682TIP3   OH253536   3.700   4.095  14.974  0.7442  0.0827 -0.0189
10682TIP3    H153537   3.643   4.021  14.998 -0.4436  1.8421  2.8383
10682TIP3    H253538   3.778   4.083  15.028  1.0612  0.2544 -0.4430
10683TIP3   OH253539   5.371   4.309   2.007 -0.5318 -0.0177 -0.3055
10683TIP3    H153540   5.450   4.304   2.060 -0.3678 -0.7128 -0.6090
10683TIP3    H253541   5.341   4.400   2.017  0.7430  0.4734 -0.8231
10684TIP3   OH253542   4.606   5.645  16.790 -0.2195 -0.2554  0.8850
10684TIP3    H153543   4.566   5.724  16.826 -1.2708 -0.6476  0.6132
10684TIP3    H253544   4.551   5.623  16.714 -0.5846 -1.8393  1.5803
10685TIP3   OH253545   3.002   4.919   5.564  0.0407  0.1615 -0.0592
10685TIP3    H153546   3.043   4.961   5.640 -0.1008  0.5681 -0.2075
10685TIP3    H253547   3.054   4.839   5.550  1.3268  1.0965 -0.7640
10686TIP3   OH253548   3.337   4.815  15.870  0.0268  0.0802 -0.6034
10686TIP3    H153549   3.290   4.898  15.878  0.0829  0.1766 -1.2917
10686TIP3    H253550   3.343   4.782  15.960 -2.8966 -0.7815 -0.6560
10687TIP3   OH253551   2.742   5.522  16.074 -0.1320  0.5887  0.2919
10687TIP3    H153552   2.830   5.514  16.111  1.0186  1.9444 -2.0182
10687TIP3    H253553   2.749   5.479  15.988 -2.1196 -0.5314  0.6614
10688TIP3   OH253554   4.668   1.597   4.235  0.1812  0.5438  0.2745
10688TIP3    H153555   4.713   1.513   4.228 -0.7383 -0.2672  3.2783
10688TIP3    H253556   4.731   1.654   4.279 -0.0882  0.6742  0.4959
10689TIP3   OH253557   2.365   1.460   1.168  0.3291  0.3090  0.1538
10689TIP3    H153558   2.408   1.408   1.236 -0.8697 -0.1080  0.6082
10689TIP3    H253559   2.343   1.542   1.212 -0.1049  0.1877  0.1639
10690TIP3   OH253560   0.131   4.338  14.626 -0.2711 -0.2394  0.1458
10690TIP3    H153561   0.059   4.302  14.677 -0.1422 -1.1777 -0.3234
10690TIP3    H253562   0.205   4.340  14.687 -0.5792  0.3385  0.5061
10691TIP3   OH253563   1.286   0.475  14.267  0.1830 -0.3345  0.3570
10691TIP3    H153564   1.259   0.383  14.266  0.6377 -0.5115  2.2827
10691TIP3    H253565   1.347   0.483  14.194  0.0412 -1.5321  0.0995
10692TIP3   OH253566   2.838   2.435   2.945 -0.2764  0.4168 -0.0790
10692TIP3    H153567   2.778   2.369   2.980  2.4076 -1.8995  0.3304
10692TIP3    H253568   2.890   2.462   3.020  3.3621 -2.2303 -1.5278
10693TIP3   OH253569   1.831   1.718   4.169  0.4171 -0.9273  0.0251
10693TIP3    H153570   1.797   1.657   4.234  0.4191  0.0456  0.9601
10693TIP3    H253571   1.871   1.663   4.102 -1.0471 -2.0041  0.0226
10694TIP3   OH253572   1.207   4.299   6.306 -0.8386 -0.0696  0.1882
10694TIP3    H153573   1.223   4.288   6.400  0.1373  0.7777  0.1261
10694TIP3    H253574   1.289   4.275   6.264 -1.4420 -0.9560 -0.4929
10695TIP3   OH253575   3.994   0.572  16.425  0.4081  0.3159  0.2016
10695TIP3    H153576   3.938   0.647  16.402 -0.6024 -0.5552 -0.1997
10695TIP3    H253577   3.973   0.506  16.359  1.5816 -0.1840  0.3341
10696TIP3   OH253578   2.947   3.413  12.073 -0.1381 -0.0598 -0.1759
10696TIP3    H153579   2.979   3.366  12.151 -1.2981 -1.2392 -0.3885
10696TIP3    H253580   2.998   3.375  12.001  1.9019  1.9796  0.1344
10697TIP3   OH253581   5.982   4.709   3.429  0.2981  0.5388  0.0162
10697TIP3    H153582   6.072   4.706   3.461  0.2639  0.4654  0.1059
10697TIP3    H253583   5.987   4.668   3.342  0.2916  0.2156  0.1650
10698TIP3   OH253584   1.765   4.915   1.711  0.1834 -0.1015 -0.0499
10698TIP3    H153585   1.795   5.002   1.738 -0.7328 -0.5678  2.5976
10698TIP3    H253586   1.777   4.914   1.616  0.9250  2.6310 -0.0227
10699TIP3   OH253587   4.735   6.655  12.510 -0.0098  0.0051 -0.2904
10699TIP3    H153588   4.781   6.723  12.560 -0.1235  0.2084 -0.4645
10699TIP3    H253589   4.680   6.612  12.575 -1.0211  1.0166 -0.4581
10700TIP3   OH253590   3.029   6.508  17.010 -0.2998 -0.2050  0.6365
10700TIP3    H153591   3.101   6.484  16.952 -1.2820  0.2464 -0.7888
10700TIP3    H253592   3.061   6.585  17.057 -0.3136  0.7345 -0.8802
10701TIP3   OH253593   0.430   3.009  14.229  0.3010 -0.4013 -0.5645
10701TIP3    H153594   0.446   2.967  14.314 -0.6239 -1.0500 -0.7055
10701TIP3    H253595   0.363   3.075  14.247 -0.3081 -0.9196 -0.8864
10702TIP3   OH253596   1.355   2.169  13.822  0.1723  0.0753  0.3176
10702TIP3    H153597   1.276   2.122  13.797 -1.3401  2.4201  0.5421
10702TIP3    H253598   1.355   2.168  13.917 -0.4663  1.4729  0.3401
10703TIP3   OH253599   6.423   3.400  11.457  0.0809 -0.3283  0.0886
10703TIP3    H153600   6.444   3.370  11.368  0.5666  0.4992 -0.0841
10703TIP3    H253601   6.456   3.331  11.514  1.2927 -0.0755 -0.2938
10704TIP3   OH253602   3.962   5.505  13.841 -0.1443  0.4525  0.2325
10704TIP3    H153603   3.984   5.476  13.929  0.9991 -0.8106 -0.4573
10704TIP3    H253604   3.891   5.448  13.813  3.0505 -2.8721 -1.6750
10705TIP3   OH253605   0.822   4.248   2.628  0.1253  0.0140  0.2788
10705TIP3    H153606   0.866   4.286   2.703 -1.3549  0.4023  0.9639
10705TIP3    H253607   0.749   4.307   2.610 -0.1999 -0.6850 -0.7558
10706TIP3   OH253608   5.834   4.751  14.996 -0.1160 -0.5778  0.2523
10706TIP3    H153609   5.818   4.843  15.018 -0.0382 -0.6263  0.5142
10706TIP3    H253610   5.818   4.746  14.901 -1.3123 -0.5546  0.4484
10707TIP3   OH253611   0.897   0.838   5.200 -0.2447 -0.2973 -0.0362
10707TIP3    H153612   0.980   0.883   5.187 -0.8782  0.5427 -1.2878
10707TIP3    H253613   0.842   0.869   5.128 -1.7265 -0.6421  0.9368
10708TIP3   OH253614   2.495   3.812   4.459 -0.2085  0.1686 -0.0752
10708TIP3    H153615   2.549   3.767   4.394  2.9464  2.6534  0.7194
10708TIP3    H253616   2.502   3.757   4.537  0.2423 -0.1275 -0.3177
10709TIP3   OH253617   0.905   0.401  15.247  0.0711  0.0231 -0.1569
10709TIP3    H153618   0.876   0.315  15.217  2.3496 -0.7991 -0.0878
10709TIP3    H253619   0.919   0.390  15.341 -0.8662  0.8290  0.0832
10710TIP3   OH253620   3.308   6.697   4.373 -0.4074 -0.0938 -0.1515
10710TIP3    H153621   3.328   6.607   4.398 -0.1289  0.2041  0.7108
10710TIP3    H253622   3.338   6.704   4.282  0.3182 -0.6283  0.0433
10711TIP3   OH253623   6.788   0.375  14.723 -0.6313 -0.0111  0.1608
10711TIP3    H153624   6.785   0.471  14.728 -0.4564 -0.0748  1.9375
10711TIP3    H253625   6.697   0.347  14.726 -0.6971  0.1062 -0.6698
10712TIP3   OH253626   4.876   2.263   2.913  0.3244 -0.2434 -0.3207
10712TIP3    H153627   4.945   2.328   2.900 -0.3041  0.6638  0.8061
10712TIP3    H253628   4.809   2.286   2.849 -1.8199  2.9126  2.8827
10713TIP3   OH253629   0.949   4.195  16.046 -0.1937  0.3026  0.4433
10713TIP3    H153630   0.868   4.245  16.036  0.1050  0.9274  1.1445
10713TIP3    H253631   0.994   4.207  15.963  0.5506  2.4051  1.1244
10714TIP3   OH253632   1.567   6.347  16.482  0.3277 -0.3213  0.0375
10714TIP3    H153633   1.659   6.334  16.459  0.1607 -1.1347 -0.1971
10714TIP3    H253634   1.532   6.401  16.411  0.2581 -1.3010 -0.6910
10715TIP3   OH253635   4.552   0.368   2.584 -0.2372 -0.1496 -0.0951
10715TIP3    H153636   4.644   0.342   2.582 -0.5170 -1.1742 -0.0711
10715TIP3    H253637   4.550   0.447   2.637  0.6170 -0.1936  0.0024
10716TIP3   OH253638   0.376   4.260   3.510 -0.3795  0.1457  0.1613
10716TIP3    H153639   0.330   4.194   3.458  1.2227  0.4533 -1.7034
10716TIP3    H253640   0.316   4.334   3.513 -0.5480  0.0810 -1.1932
10717TIP3   OH253641   3.826   4.902  13.422 -0.3075 -0.6646  0.0702
10717TIP3    H153642   3.839   4.808  13.424  3.4291 -0.2145  0.2708
10717TIP3    H253643   3.840   4.927  13.331  2.6638  0.1145  0.6796
10718TIP3   OH253644   2.172   6.479  10.733 -0.3469  0.6056 -0.2816
10718TIP3    H153645   2.200   6.561  10.692  0.7104  0.5072  0.2308
10718TIP3    H253646   2.128   6.506  10.813 -0.5346  0.6922 -0.4122
10719TIP3   OH253647   1.852   6.654   3.097 -0.2725 -0.1398 -0.6461
10719TIP3    H153648   1.823   6.718   3.032  0.9151  1.3575  0.2701
10719TIP3    H253649   1.861   6.704   3.178 -1.4773 -1.9223  0.6310
10720TIP3   OH253650   6.702   4.536  12.429  0.1619 -0.2871  0.2578
10720TIP3    H153651   6.666   4.615  12.469  0.1639 -0.6026  0.8769
10720TIP3    H253652   6.797   4.552  12.428  0.0302  0.5277 -1.3403
10721TIP3   OH253653   2.664   3.173  15.725  0.2641 -0.3792  0.2942
10721TIP3    H153654   2.731   3.141  15.785 -0.1555 -0.8628  0.5126
10721TIP3    H253655   2.653   3.103  15.661 -0.0662 -0.3270  0.2905
10722TIP3   OH253656   1.457   4.768   3.612  0.6015 -0.5248  0.3843
10722TIP3    H153657   1.386   4.717   3.572  0.4088 -0.9568  1.2595
10722TIP3    H253658   1.413   4.844   3.650  0.5701 -0.9095  1.1278
10723TIP3   OH253659   4.258   1.186   5.131 -0.1308  0.5607 -0.0706
10723TIP3    H153660   4.202   1.116   5.164 -0.9663  0.7855 -0.9892
10723TIP3    H253661   4.328   1.141   5.084  0.4707  0.2790  1.0667
10724TIP3   OH253662   5.706   0.042   0.936 -0.5579  0.1469  0.1676
10724TIP3    H153663   5.658   0.123   0.917 -0.8482 -0.1210 -0.2414
10724TIP3    H253664   5.648  -0.028   0.907 -0.6505 -0.2462  1.2730
10725TIP3   OH253665   4.447   2.600   4.566 -0.4049 -0.3989 -0.0825
10725TIP3    H153666   4.446   2.695   4.576 -0.4075 -0.3041 -0.9002
10725TIP3    H253667   4.525   2.571   4.612  0.1701  0.1123 -0.7307
10726TIP3   OH253668   4.441   0.621  12.339  1.0360  0.0475  0.0191
10726TIP3    H153669   4.456   0.647  12.430  2.4410 -2.0505  0.4237
10726TIP3    H253670   4.346   0.610  12.333  0.8147  1.3754  0.8916
10727TIP3   OH253671   0.699   3.531  15.433 -0.3462 -0.2522  0.4499
10727TIP3    H153672   0.646   3.460  15.468 -0.4067 -1.1180 -1.3737
10727TIP3    H253673   0.776   3.488  15.396  0.4074  0.7827  0.7652
10728TIP3   OH253674   4.325   3.830  14.135  0.3834 -0.4125 -0.3047
10728TIP3    H153675   4.299   3.892  14.067  0.4103  1.2641  1.1719
10728TIP3    H253676   4.386   3.879  14.190  1.5736 -2.2392  0.0335
10729TIP3   OH253677   6.472   4.278   1.758 -0.5401  0.6864 -0.1570
10729TIP3    H153678   6.405   4.343   1.781 -2.2066 -0.2188 -2.3258
10729TIP3    H253679   6.422   4.200   1.733  1.4398 -1.5806  2.6745
10730TIP3   OH253680   3.196   3.577  11.973 -0.2000 -0.5484  0.3499
10730TIP3    H153681   3.223   3.654  11.923 -0.5258 -0.5005  0.2483
10730TIP3    H253682   3.104   3.565  11.951 -0.2533 -0.7349  0.6689
10731TIP3   OH253683   6.098   4.700   0.028  0.0196  0.5266 -0.3188
10731TIP3    H153684   6.105   4.722   0.121  1.8500  1.0107 -0.5466
10731TIP3    H253685   6.144   4.617   0.019 -1.1417 -0.0899 -0.6046
10732TIP3   OH253686   1.383   2.178  14.351  0.0361 -0.3513  0.1050
10732TIP3    H153687   1.423   2.199  14.436 -1.3003 -1.2915  0.9722
10732TIP3    H253688   1.291   2.203  14.362 -0.5050 -2.0734 -0.4952
10733TIP3   OH253689   3.393   0.598  12.735 -0.2414  0.0765 -0.3459
10733TIP3    H153690   3.474   0.633  12.773 -0.4151  0.8690 -0.6954
10733TIP3    H253691   3.352   0.674  12.693  0.5918 -1.0555 -3.2984
10734TIP3   OH253692   1.293   3.985   5.955  0.3119 -0.0435 -0.1302
10734TIP3    H153693   1.373   3.974   6.006  0.2217 -0.8583 -0.1454
10734TIP3    H253694   1.302   4.070   5.912  0.6002  0.4290  0.8672
10735TIP3   OH253695   6.081   4.396   4.293 -0.0837  0.3595  0.1807
10735TIP3    H153696   6.170   4.400   4.259 -0.5831  0.5434 -1.1502
10735TIP3    H253697   6.029   4.449   4.232 -1.5609 -1.8961 -0.6204
10736TIP3   OH253698   2.525   2.898   0.996 -0.4412  0.0654 -0.0022
10736TIP3    H153699   2.430   2.893   0.984 -0.2042  0.9852 -2.7697
10736TIP3    H253700   2.556   2.809   0.982 -0.6961  0.2031 -1.5538
10737TIP3   OH253701   1.697   2.654  12.227 -0.1983  0.0279  0.3108
10737TIP3    H153702   1.757   2.677  12.156 -0.8984  0.1001 -0.2600
10737TIP3    H253703   1.752   2.606  12.290  0.3939 -0.1693 -0.3459
10738TIP3   OH253704   0.058   0.653  17.208 -0.6800 -0.3224  0.2571
10738TIP3    H153705   0.011   0.685  17.131  0.3272  1.0828  0.2041
10738TIP3    H253706  -0.009   0.650  17.277 -1.7735 -2.3916 -0.8430
10739TIP3   OH253707   4.673   1.968   3.624  0.3783  0.5876 -0.0909
10739TIP3    H153708   4.671   1.881   3.662 -1.5738  0.0867 -1.2996
10739TIP3    H253709   4.651   1.955   3.532 -0.5495  2.4249 -0.1593
10740TIP3   OH253710   2.170   4.140  12.288 -0.1121 -0.0381 -0.3270
10740TIP3    H153711   2.116   4.064  12.266  1.7292 -1.6277  0.5033
10740TIP3    H253712   2.256   4.121  12.250  0.4652  1.4804  0.1621
10741TIP3   OH253713   3.191   2.469  11.291 -0.0256 -0.0525  0.0723
10741TIP3    H153714   3.280   2.467  11.257  0.2533 -0.2081  0.8173
10741TIP3    H253715   3.149   2.541  11.244  0.2023 -0.5956 -0.9958
10742TIP3   OH253716   0.708   6.451   0.732 -0.4022  0.2922  0.4678
10742TIP3    H153717   0.661   6.515   0.678  0.5999 -0.8213 -1.8123
10742TIP3    H253718   0.712   6.373   0.677  0.5341 -0.9417  2.2579
10743TIP3   OH253719   1.138   0.876   1.375  0.2251 -0.1237  0.2028
10743TIP3    H153720   1.189   0.796   1.380  0.7638  0.1225 -1.1182
10743TIP3    H253721   1.050   0.848   1.351  0.0648 -0.4271  1.1162
10744TIP3   OH253722   3.953   4.818   1.965  0.3732 -0.6755 -0.0911
10744TIP3    H153723   3.932   4.735   2.008 -0.7993 -0.1255  0.4330
10744TIP3    H253724   3.868   4.861   1.953  0.9258  0.2594 -0.7430
10745TIP3   OH253725   6.202   6.518  14.193  0.6254  0.2628 -0.4280
10745TIP3    H153726   6.204   6.610  14.166 -2.5852  0.3266 -0.6459
10745TIP3    H253727   6.198   6.522  14.289  2.3660  0.2771 -0.3433
10746TIP3   OH253728   0.298   5.168  11.367 -0.2354 -0.5317  0.5301
10746TIP3    H153729   0.354   5.113  11.422  1.1504  0.4967  0.1785
10746TIP3    H253730   0.348   5.179  11.286 -1.4854 -0.5839 -0.2507
10747TIP3   OH253731   5.781   5.838   1.203 -0.4717  0.0012 -0.4300
10747TIP3    H153732   5.715   5.876   1.145 -0.8497 -2.0864 -1.4254
10747TIP3    H253733   5.748   5.857   1.291 -4.3822 -3.9864 -0.8155
10748TIP3   OH253734   5.490   3.983  16.381  0.0315  0.1885 -0.3011
10748TIP3    H153735   5.455   3.903  16.342 -0.6221 -0.5004  1.6769
10748TIP3    H253736   5.498   4.043  16.307 -1.5387 -0.9711 -1.4528
10749TIP3   OH253737   3.707   4.193  16.006 -0.3228 -0.7022  0.0711
10749TIP3    H153738   3.655   4.241  16.070  1.1000  0.4620  0.3711
10749TIP3    H253739   3.754   4.260  15.957  1.6645 -1.7576  0.4607
10750TIP3   OH253740   2.802   0.381   4.661 -0.0307  0.1119  0.3202
10750TIP3    H153741   2.783   0.326   4.585 -0.8443  1.8431 -0.7713
10750TIP3    H253742   2.897   0.373   4.674 -0.2772 -2.3536  0.8583
10751TIP3   OH253743   2.737   4.901  14.717 -0.1459 -0.2459  0.3745
10751TIP3    H153744   2.762   4.993  14.717  0.6010 -0.4447  1.1835
10751TIP3    H253745   2.756   4.871  14.628 -2.2622  0.8661 -0.5012
10752TIP3   OH253746   5.551   3.003   6.193 -0.0564  0.2572 -0.0384
10752TIP3    H153747   5.547   3.049   6.277 -3.5908  0.1530 -0.0512
10752TIP3    H253748   5.517   2.916   6.212  0.9567 -0.4024 -1.1978
10753TIP3   OH253749   3.503   2.346  17.270 -0.7355 -0.7863  0.3624
10753TIP3    H153750   3.564   2.324  17.340  2.4500  1.7585 -1.4339
10753TIP3    H253751   3.505   2.271  17.211  0.4224 -0.8880  0.5245
10754TIP3   OH253752   1.056   6.475  16.285 -0.2281  0.6450 -0.1937
10754TIP3    H153753   1.120   6.503  16.220  0.7223 -0.3028  0.3087
10754TIP3    H253754   0.971   6.489  16.244  0.3199  1.4938 -1.0393
10755TIP3   OH253755   3.934   2.990  10.822 -0.2016 -0.7400  0.4155
10755TIP3    H153756   3.966   3.004  10.911  0.3376  0.5790  0.0379
10755TIP3    H253757   4.006   3.021  10.766 -1.2127  0.0600 -0.4615
10756TIP3   OH253758   5.130   1.913  12.341  0.1029 -0.4741  0.4382
10756TIP3    H153759   5.119   1.971  12.417 -0.7378 -1.5719  1.1759
10756TIP3    H253760   5.189   1.845  12.371  1.0663 -0.0326 -0.4209
10757TIP3   OH253761   2.474   3.874  12.551 -0.4671  0.3053  0.2823
10757TIP3    H153762   2.390   3.889  12.507  0.8795  1.4293 -2.0217
10757TIP3    H253763   2.458   3.799  12.608 -3.0899  0.6252  0.0394
10758TIP3   OH253764   5.818   1.022   3.732 -0.1502 -0.4364 -0.4880
10758TIP3    H153765   5.861   1.104   3.708 -0.0184 -0.6276 -0.9177
10758TIP3    H253766   5.888   0.968   3.768 -0.4091 -0.0356  0.6247
10759TIP3   OH253767   0.016   0.426   1.338 -0.0612 -0.0000 -0.4064
10759TIP3    H153768   0.085   0.389   1.284  2.1698  0.4859  2.0131
10759TIP3    H253769   0.024   0.381   1.422 -0.8800  1.9919  0.7957
10760TIP3   OH253770   3.404   6.556  16.218 -0.3113  0.4464  0.0265
10760TIP3    H153771   3.423   6.553  16.124  0.9874 -0.1880  0.2966
10760TIP3    H253772   3.481   6.516  16.259 -1.2465 -0.0586  1.3122
10761TIP3   OH253773   2.179   4.990   4.221 -0.0194 -0.5685  0.0125
10761TIP3    H153774   2.123   5.023   4.151 -1.7176 -0.4502  1.3687
10761TIP3    H253775   2.178   5.060   4.287  0.5027 -1.2128  0.7071
10762TIP3   OH253776   4.765   5.671   4.257  0.2862  0.1556  0.0477
10762TIP3    H153777   4.773   5.708   4.345  0.7361 -0.0992  0.1181
10762TIP3    H253778   4.762   5.748   4.200  1.2958  0.3132  0.1891
10763TIP3   OH253779   2.837   1.542  14.598 -0.4909 -0.1526  0.1326
10763TIP3    H153780   2.923   1.564  14.561 -0.5188 -0.7293 -0.2761
10763TIP3    H253781   2.794   1.627  14.609 -0.1704  0.0821 -0.4040
10764TIP3   OH253782   3.825   3.984  12.458 -0.1738 -0.2259 -0.2133
10764TIP3    H153783   3.900   4.027  12.499  0.4572 -0.9506 -0.6134
10764TIP3    H253784   3.809   3.906  12.511 -0.4517 -0.2386 -0.3132
10765TIP3   OH253785   1.551   6.087  15.711  0.4447  0.0616  0.3492
10765TIP3    H153786   1.577   6.114  15.799 -1.8224  0.1362  1.0350
10765TIP3    H253787   1.465   6.045  15.724  0.8396 -1.4063 -1.6071
10766TIP3   OH253788   3.559   6.569  10.605 -0.0025 -0.3811  0.0190
10766TIP3    H153789   3.465   6.588  10.603 -0.2038 -1.0044  2.0983
10766TIP3    H253790   3.583   6.560  10.513 -2.0117 -0.3739 -0.5446
10767TIP3   OH253791   4.316   6.516  16.242 -0.2002  0.0866 -0.6934
10767TIP3    H153792   4.341   6.607  16.233 -0.8177  0.1416 -2.2008
10767TIP3    H253793   4.397   6.467  16.233  0.2586  0.5212  1.0396
10768TIP3   OH253794   4.502   5.479   2.680 -0.2065  0.1832 -0.5969
10768TIP3    H153795   4.423   5.486   2.734 -1.6002  0.0295 -2.5332
10768TIP3    H253796   4.475   5.422   2.607  1.7154  0.1185 -1.2778
10769TIP3   OH253797   3.345   1.180  11.568 -0.1996 -0.9571 -0.2592
10769TIP3    H153798   3.259   1.177  11.527 -1.5138  1.6768  2.1067
10769TIP3    H253799   3.335   1.244  11.639  3.4912 -1.1860  0.5561
10770TIP3   OH253800   4.503   1.222   0.302  0.2091  0.2219 -0.0958
10770TIP3    H153801   4.539   1.177   0.379  0.5886 -0.0436 -0.4248
10770TIP3    H253802   4.478   1.308   0.334  0.7750  0.2688  0.2286
10771TIP3   OH253803   2.884   0.933   0.307  0.1035 -1.2550 -0.1284
10771TIP3    H153804   2.888   1.015   0.355 -3.1721  0.0887 -1.9705
10771TIP3    H253805   2.902   0.957   0.216  0.4712 -2.8006 -0.4824
10772TIP3   OH253806   4.616   3.537   2.568  0.0104 -0.5513  0.5347
10772TIP3    H153807   4.684   3.483   2.609  0.0695 -0.6626  0.2939
10772TIP3    H253808   4.556   3.559   2.639  0.6579  0.1067  0.8927
10773TIP3   OH253809   5.865   0.138   1.375 -0.1565  0.3538 -0.2660
10773TIP3    H153810   5.806   0.174   1.443  0.0862 -1.9159  1.1968
10773TIP3    H253811   5.840   0.046   1.368  2.2962 -0.3162 -0.6377
10774TIP3   OH253812   2.684   3.979  12.714 -0.3748 -0.1569 -0.3785
10774TIP3    H153813   2.665   4.056  12.768 -1.4654 -0.6849  0.0078
10774TIP3    H253814   2.606   3.968  12.660 -0.6125 -1.5697  0.2568
10775TIP3   OH253815   1.871   4.091   0.366  0.4428 -0.1854  0.0550
10775TIP3    H153816   1.927   4.157   0.407 -0.4142  0.9662 -0.5953
10775TIP3    H253817   1.794   4.087   0.423  0.1054  0.0186 -0.3869
10776TIP3   OH253818   4.968   1.380   5.213 -0.0440 -0.2101 -0.5920
10776TIP3    H153819   4.888   1.347   5.174 -0.2080  1.8658 -2.1011
10776TIP3    H253820   4.947   1.470   5.239  1.1635 -0.3527  0.9630
10777TIP3   OH253821   1.026   2.669  11.788 -0.0126 -0.0575 -0.5599
10777TIP3    H153822   1.029   2.728  11.863  2.7399  0.8372 -1.3110
10777TIP3    H253823   0.994   2.586  11.824  1.7784  0.1959  1.7426
10778TIP3   OH253824   0.171   5.815   6.132 -0.4056 -0.3097 -0.1119
10778TIP3    H153825   0.085   5.789   6.164 -0.9428  0.6447 -0.7590
10778TIP3    H253826   0.167   5.911   6.126  0.3987 -0.3207 -0.9845
10779TIP3   OH253827   3.716   6.529   4.483  0.1292  0.5710  0.4712
10779TIP3    H153828   3.638   6.504   4.533 -0.5374  0.5591 -0.5601
10779TIP3    H253829   3.761   6.446   4.466 -0.5773  0.3833 -0.4832
10780TIP3   OH253830   6.711   2.169  16.269 -0.2462 -0.6261 -0.3096
10780TIP3    H153831   6.636   2.116  16.244 -1.0879 -0.6011  2.0185
10780TIP3    H253832   6.742   2.129  16.351  1.1113  0.5001 -0.2558
10781TIP3   OH253833   4.075   6.157   1.304 -0.0065  0.1259 -0.2332
10781TIP3    H153834   4.022   6.107   1.366  1.6883  0.1255  1.2572
10781TIP3    H253835   4.075   6.105   1.224  0.9203 -1.8019  0.9805
10782TIP3   OH253836   1.013   1.608  16.621 -0.4536 -0.6533 -0.0294
10782TIP3    H153837   1.047   1.685  16.576 -0.6310 -0.8071 -0.4277
10782TIP3    H253838   0.923   1.599  16.590 -0.4382 -1.0155  0.0236
10783TIP3   OH253839   5.093   6.770  13.051 -0.0369 -0.1471  0.3717
10783TIP3    H153840   5.007   6.781  13.092 -0.1668  0.1657  0.0200
10783TIP3    H253841   5.151   6.749  13.123 -0.7717 -2.2815  0.3533
10784TIP3   OH253842   2.450   0.930   1.014 -0.1363  0.2157 -0.7381
10784TIP3    H153843   2.518   0.969   0.959  0.6658  0.6634  0.5609
10784TIP3    H253844   2.477   0.838   1.024 -0.2557  0.1461 -1.0409
10785TIP3   OH253845   3.759   0.540  14.378 -0.1902  0.1290 -0.2599
10785TIP3    H153846   3.838   0.489  14.360  1.5248  2.5733  0.1069
10785TIP3    H253847   3.687   0.476  14.375  2.0281 -2.5326  1.6091
10786TIP3   OH253848   6.195   5.540  13.222 -0.3787 -0.0410 -0.0993
10786TIP3    H153849   6.157   5.627  13.231  0.1592  0.1224  0.6091
10786TIP3    H253850   6.180   5.518  13.130 -0.4784  0.8195 -0.3017
10787TIP3   OH253851   5.693   2.897   2.238  0.0268 -0.2053 -0.0334
10787TIP3    H153852   5.690   2.801   2.237  0.8062 -0.2263 -0.6620
10787TIP3    H253853   5.750   2.919   2.311  1.0788 -0.2645 -0.8190
10788TIP3   OH253854   2.510   3.078   2.845  0.0570 -0.1779 -0.1781
10788TIP3    H153855   2.561   3.068   2.925  0.3143 -0.9902 -0.4452
10788TIP3    H253856   2.419   3.067   2.874  0.0945  0.2646  0.1231
10789TIP3   OH253857   4.913   6.598  14.908 -0.1078  0.7572 -0.0417
10789TIP3    H153858   4.842   6.662  14.906  0.8061  1.8102  0.7653
10789TIP3    H253859   4.960   6.616  14.989  0.6839 -0.3675 -0.2386
10790TIP3   OH253860   1.112   2.718  14.475  0.4314  0.4269 -0.5546
10790TIP3    H153861   1.158   2.662  14.538  0.6033 -2.3629 -3.0283
10790TIP3    H253862   1.021   2.691  14.480  0.2676  0.9281 -0.7640
10791TIP3   OH253863   3.280   0.892   3.701  0.3713  0.0288 -0.3500
10791TIP3    H153864   3.356   0.833   3.695  0.7708  0.5637 -0.5608
10791TIP3    H253865   3.253   0.887   3.793 -0.1500 -1.1669 -0.5490
10792TIP3   OH253866   6.175   1.789   5.818  0.3056 -0.1985  0.0559
10792TIP3    H153867   6.254   1.735   5.821  1.5923  1.6992  2.0841
10792TIP3    H253868   6.197   1.867   5.870 -2.9556  0.2864  0.8386
10793TIP3   OH253869   1.525   4.507   1.767 -0.0531  0.1193 -0.7310
10793TIP3    H153870   1.470   4.461   1.830 -0.3980  1.0111 -0.3690
10793TIP3    H253871   1.557   4.439   1.708 -1.2773 -0.4458 -0.7503
10794TIP3   OH253872   5.979   3.225   5.856 -0.0697 -0.1408 -0.1634
10794TIP3    H153873   6.001   3.318   5.847 -0.7998 -0.0426 -1.0471
10794TIP3    H253874   6.057   3.180   5.824 -0.2326  0.1881 -1.0610
10795TIP3   OH253875   1.516   2.833  13.299  0.1216  0.1076 -0.2624
10795TIP3    H153876   1.581   2.837  13.229  1.0758  0.6676  0.6253
10795TIP3    H253877   1.447   2.893  13.271  1.1284  1.3570 -0.1141
10796TIP3   OH253878   4.493   2.568   3.688 -0.6721 -0.1538 -0.0526
10796TIP3    H153879   4.481   2.544   3.780 -0.7552 -0.3595 -0.1163
10796TIP3    H253880   4.467   2.660   3.683 -0.5448 -0.1056  0.1545
10797TIP3   OH253881   5.298   2.755   3.149 -0.3307 -0.3063  0.1887
10797TIP3    H153882   5.348   2.675   3.131 -0.8043 -0.2216 -1.5996
10797TIP3    H253883   5.216   2.743   3.100 -0.4199  1.2460 -0.0508
10798TIP3   OH253884   0.984   2.747   0.240  0.0523  0.0132 -0.3627
10798TIP3    H153885   1.016   2.725   0.152 -0.4028  2.1299 -1.0653
10798TIP3    H253886   0.966   2.661   0.280  0.2992 -0.9811 -2.3051
10799TIP3   OH253887   4.471   2.714  16.410  0.0533 -0.0036 -0.1198
10799TIP3    H153888   4.380   2.733  16.387 -0.4783 -0.6636  1.4006
10799TIP3    H253889   4.472   2.710  16.505  1.2483 -2.1006 -0.1776
10800TIP3   OH253890   2.921   5.466   0.877  0.2353  0.1462  0.7552
10800TIP3    H153891   2.992   5.402   0.886 -0.0309 -0.3999 -0.7774
10800TIP3    H253892   2.883   5.473   0.965  0.4925 -1.5532  1.0184
10801TIP3   OH253893   3.456   3.393  11.784  0.6910 -0.2379 -0.6860
10801TIP3    H153894   3.444   3.476  11.830  1.3980  0.0750 -1.0595
10801TIP3    H253895   3.383   3.389  11.722  0.2439 -0.2403 -0.1562
10802TIP3   OH253896   6.334   4.884   3.312 -0.1847  0.3802 -0.2543
10802TIP3    H153897   6.256   4.855   3.265 -0.3348  0.0778  0.1746
10802TIP3    H253898   6.377   4.944   3.252 -0.0139 -0.5273 -1.0614
10803TIP3   OH253899   2.870   4.204  14.418 -0.0460 -0.1387 -0.1280
10803TIP3    H153900   2.826   4.267  14.361  0.4045  0.9028  0.6647
10803TIP3    H253901   2.820   4.208  14.500  1.8882  1.5191  1.0001
10804TIP3   OH253902   3.215   6.817   6.395  0.1845 -0.2421 -0.5080
10804TIP3    H153903   3.123   6.805   6.372 -0.0208 -0.3619  0.3851
10804TIP3    H253904   3.251   6.728   6.396  0.1885 -0.2369 -0.3214
10805TIP3   OH253905   2.468   3.942   3.559  0.0087 -0.0967  0.1442
10805TIP3    H153906   2.426   3.887   3.625  1.2118 -0.8938  0.2524
10805TIP3    H253907   2.476   4.028   3.601  0.4061 -0.4963  0.8799
10806TIP3   OH253908   2.711   0.867  12.560 -0.3147  0.3320 -0.5827
10806TIP3    H153909   2.663   0.798  12.514  3.0084 -1.8312 -0.9348
10806TIP3    H253910   2.752   0.822  12.634  0.5749  2.2788  0.1293
10807TIP3   OH253911   0.750   3.527   5.889 -0.0817  0.4847 -0.3718
10807TIP3    H153912   0.838   3.493   5.909  0.4471  0.8249 -2.0639
10807TIP3    H253913   0.729   3.582   5.964  0.7536 -0.3471  0.4964
10808TIP3   OH253914   2.555   4.920  11.721  0.0020  0.3508  0.7185
10808TIP3    H153915   2.608   4.845  11.747 -0.8004 -1.3675 -2.4124
10808TIP3    H253916   2.484   4.922  11.786 -0.8098 -2.5421 -0.0134
10809TIP3   OH253917   4.434   5.911   3.191  0.0530  0.7576 -0.8272
10809TIP3    H153918   4.445   5.849   3.263 -0.3310  0.4464 -1.0280
10809TIP3    H253919   4.463   5.863   3.114 -0.6650  0.6698 -1.0485
10810TIP3   OH253920   5.606   0.399  12.297  0.1762 -0.5129 -0.2047
10810TIP3    H153921   5.655   0.466  12.345  0.9788 -0.6619 -0.7920
10810TIP3    H253922   5.614   0.426  12.205  1.5763 -2.0713 -0.5667
10811TIP3   OH253923   4.403   4.196   3.884  0.2706  0.4650 -0.0472
10811TIP3    H153924   4.432   4.176   3.795 -1.8442  1.7011 -1.0459
10811TIP3    H253925   4.308   4.190   3.880  0.1982 -0.7303  2.4781
10812TIP3   OH253926   3.346   0.823  11.817 -0.6673 -0.3108 -0.2873
10812TIP3    H153927   3.401   0.760  11.770 -2.0873 -0.4074 -1.8848
10812TIP3    H253928   3.381   0.824  11.906  1.4458 -0.9117 -1.0633
10813TIP3   OH253929   6.584   0.317   1.318  0.1321 -0.1695  0.2209
10813TIP3    H153930   6.674   0.343   1.340  0.4706 -0.0373 -1.2767
10813TIP3    H253931   6.587   0.296   1.225 -0.9711 -2.0160  0.5836
10814TIP3   OH253932   3.455   5.799  12.464  0.0073  0.1101 -0.2865
10814TIP3    H153933   3.496   5.844  12.538 -0.6226  2.2485 -1.1862
10814TIP3    H253934   3.526   5.790  12.400 -0.0366  0.5611 -0.4057
10815TIP3   OH253935   0.922   3.305  15.708  0.0463 -0.0506 -0.0442
10815TIP3    H153936   0.922   3.237  15.775 -0.6238 -0.1792 -0.1797
10815TIP3    H253937   0.932   3.258  15.625  0.8746  0.1084 -0.0490
10816TIP3   OH253938   0.680   0.217  12.543 -0.5503  0.1530  0.1897
10816TIP3    H153939   0.714   0.186  12.459 -1.2871 -2.1260  0.6876
10816TIP3    H253940   0.589   0.241  12.525 -0.4677  0.4521  0.1665
10817TIP3   OH253941   4.434   0.780  12.981  0.0997  0.0937 -0.0043
10817TIP3    H153942   4.440   0.779  13.077  0.7488 -0.1191 -0.0477
10817TIP3    H253943   4.524   0.791  12.951 -0.0797 -0.0371 -0.5965
10818TIP3   OH253944   0.180   3.381  15.828 -0.3042 -0.3229  0.8273
10818TIP3    H153945   0.146   3.345  15.746 -0.6256 -0.9512  1.2386
10818TIP3    H253946   0.231   3.458  15.800  0.2951 -1.0195 -0.0368
10819TIP3   OH253947   0.757   0.694   2.910 -0.1622 -0.4147 -0.2516
10819TIP3    H153948   0.814   0.617   2.900  0.9071  0.4072 -0.5703
10819TIP3    H253949   0.668   0.659   2.900  0.3410 -1.4988 -1.0794
10820TIP3   OH253950   5.815   6.339  13.934 -0.0791 -0.2454  0.1796
10820TIP3    H153951   5.733   6.313  13.892 -0.5548 -0.9195  1.4804
10820TIP3    H253952   5.802   6.432  13.955 -0.5093 -0.3347  0.3377
10821TIP3   OH253953   0.509   4.769  15.002 -0.0594 -0.2643 -0.2391
10821TIP3    H153954   0.496   4.734  15.090 -0.8030 -0.3292 -0.3759
10821TIP3    H253955   0.484   4.861  15.009  1.4581  0.1554  0.0080
10822TIP3   OH253956   0.509   5.386  11.590 -0.8549  0.1227  0.1720
10822TIP3    H153957   0.465   5.318  11.539 -0.2775  1.2746 -1.8750
10822TIP3    H253958   0.593   5.347  11.614 -0.7205 -0.0651 -0.5886
10823TIP3   OH253959   2.653   2.510  15.425  0.3306  0.0789 -0.1324
10823TIP3    H153960   2.659   2.533  15.518 -0.1050 -0.6161  0.0670
10823TIP3    H253961   2.629   2.418  15.425  1.3393 -0.1870 -0.9391
10824TIP3   OH253962   5.631   5.392   2.157  0.5432 -0.2718 -0.6131
10824TIP3    H153963   5.694   5.372   2.226 -0.1283  0.8741  0.3543
10824TIP3    H253964   5.584   5.310   2.142  1.9666 -1.0275 -1.0596
10825TIP3   OH253965   3.341   5.945  14.184  0.4760 -0.2460 -0.1903
10825TIP3    H153966   3.280   5.951  14.259  1.9357 -0.1520  1.0106
10825TIP3    H253967   3.312   5.866  14.137  1.1255 -1.8080  1.9375
10826TIP3   OH253968   6.670   1.556   3.014 -0.3178  0.3951 -0.4063
10826TIP3    H153969   6.731   1.536   2.943 -1.7112  2.6421 -2.3124
10826TIP3    H253970   6.593   1.592   2.971 -3.0964 -2.4135  1.9336
10827TIP3   OH253971   2.357   4.612   4.903 -0.2009 -0.0230 -0.1838
10827TIP3    H153972   2.269   4.585   4.876 -0.7455  1.3319  0.1920
10827TIP3    H253973   2.401   4.530   4.925 -0.6500 -0.9216 -2.4554
10828TIP3   OH253974   4.954   5.580   4.709  0.0465  0.2012 -0.1840
10828TIP3    H153975   4.893   5.654   4.703  0.9418  0.9729  0.0688
10828TIP3    H253976   4.986   5.583   4.800  1.9152  1.0023 -0.8336
10829TIP3   OH253977   6.678   6.085  16.241  0.1988  0.2580  0.2064
10829TIP3    H153978   6.627   6.043  16.310  1.1365  1.4218  1.6351
10829TIP3    H253979   6.754   6.028  16.229  0.2112  0.2321  0.4054
10830TIP3   OH253980   1.400   2.229   6.153 -0.3197 -0.0331  0.6064
10830TIP3    H153981   1.353   2.285   6.214 -0.7397 -0.4092  0.6279
10830TIP3    H253982   1.337   2.210   6.084  0.1836  0.4743 -0.0038
10831TIP3   OH253983   5.683   5.139  15.457  0.4961  0.3454  0.4469
10831TIP3    H153984   5.768   5.180  15.473  1.5156 -1.9495  1.1491
10831TIP3    H253985   5.688   5.106  15.368 -0.2072  1.4372 -0.0080
10832TIP3   OH253986   3.032   1.924   0.290  0.2280 -0.0673  0.0308
10832TIP3    H153987   3.034   1.924   0.386 -2.9619  0.2199  0.1412
10832TIP3    H253988   3.028   2.016   0.265 -3.1073 -0.1890 -0.1668
10833TIP3   OH253989   4.886   6.593  13.276 -0.1657 -0.7546  0.5801
10833TIP3    H153990   4.975   6.624  13.264 -0.8588  0.5771 -1.5567
10833TIP3    H253991   4.833   6.673  13.280 -1.3636 -1.5445  0.9410
10834TIP3   OH253992   2.584   4.433  10.949  0.5330 -0.1347  0.0789
10834TIP3    H153993   2.602   4.384  10.869  2.8087 -1.2718  1.2408
10834TIP3    H253994   2.513   4.385  10.991  1.8691 -1.7465  0.5599
10835TIP3   OH253995   0.637   2.550   4.549  0.1504 -0.2961 -0.2571
10835TIP3    H153996   0.666   2.468   4.509 -1.4297 -0.8245 -0.3723
10835TIP3    H253997   0.560   2.575   4.497 -0.3114  0.4198  0.7641
10836TIP3   OH253998   3.618   2.109   0.819  0.0913 -0.1357 -0.0096
10836TIP3    H153999   3.647   2.174   0.755 -2.4324  0.7336 -0.3367
10836TIP3    H254000   3.628   2.025   0.775  1.3319  0.1896 -0.3700
10837TIP3   OH254001   6.746   2.691  14.269  0.3458  0.3503 -0.0509
10837TIP3    H154002   6.735   2.602  14.234 -0.7867  1.2267 -2.0046
10837TIP3    H254003   6.736   2.748  14.192  1.0343  2.1639  1.1896
10838TIP3   OH254004   1.050   6.055   4.059  0.1334 -0.0922  0.0041
10838TIP3    H154005   1.006   6.113   4.121  0.7017 -0.6865  0.9858
10838TIP3    H254006   1.143   6.075   4.069  0.5161 -2.4186  1.7135
10839TIP3   OH254007   5.500   4.613  15.162 -0.6079  0.4418 -0.0563
10839TIP3    H154008   5.462   4.565  15.088 -1.2834  1.4525 -0.3701
10839TIP3    H254009   5.427   4.627  15.222  0.1376 -1.1951  1.2512
10840TIP3   OH254010   1.831   2.731   1.817 -0.6512  0.2513 -0.0375
10840TIP3    H154011   1.785   2.747   1.734  1.8912  0.0364 -1.5303
10840TIP3    H254012   1.829   2.636   1.828  4.3056 -0.3664 -3.0926
10841TIP3   OH254013   6.020   3.319   4.470  0.0617  0.1255 -0.3238
10841TIP3    H154014   6.107   3.311   4.509  0.6285  1.6655 -1.2119
10841TIP3    H254015   6.030   3.280   4.383 -0.3470 -0.4017 -0.1345
10842TIP3   OH254016   1.786   4.678  16.056 -0.4228 -0.7213  0.2298
10842TIP3    H154017   1.870   4.634  16.070  0.1019  0.5860  1.3336
10842TIP3    H254018   1.732   4.613  16.011  1.2492 -1.5025 -0.6816
10843TIP3   OH254019   6.324   1.339   1.228  0.0322  0.3854 -0.3167
10843TIP3    H154020   6.283   1.417   1.265 -0.2883 -0.3411  0.8957
10843TIP3    H254021   6.255   1.272   1.230  0.2768  0.0881 -1.4180
10844TIP3   OH254022   1.028   1.765   5.510  0.1430 -0.0607  0.1234
10844TIP3    H154023   1.038   1.776   5.415 -1.3376 -0.2285 -0.0672
10844TIP3    H254024   1.022   1.670   5.522  1.4657 -0.0955  0.5095
10845TIP3   OH254025   5.174   6.339   2.214  0.2756 -0.1196  0.5750
10845TIP3    H154026   5.205   6.249   2.217  0.0506 -0.2219 -0.0460
10845TIP3    H254027   5.080   6.333   2.231 -0.0369 -0.1745 -1.0627
10846TIP3   OH254028   4.121   2.881  16.014  0.0665 -0.1484  0.3557
10846TIP3    H154029   4.072   2.800  16.000 -0.4111  0.3376 -0.8972
10846TIP3    H254030   4.091   2.939  15.944 -3.3084  2.9183  4.0848
10847TIP3   OH254031   0.461   0.954   4.538 -0.6533 -0.5748 -0.1287
10847TIP3    H154032   0.487   0.968   4.447 -2.8600  1.0446 -0.5618
10847TIP3    H254033   0.473   0.861   4.553  1.5417 -0.5330 -1.4931
10848TIP3   OH254034   0.122   2.757   4.793 -0.2769 -0.0727  0.1352
10848TIP3    H154035   0.072   2.829   4.754  0.2105  1.1957  1.7816
10848TIP3    H254036   0.057   2.707   4.843 -0.2387  0.4170  0.6673
10849TIP3   OH254037   4.246   5.526  16.877  0.6945 -0.3836  0.0775
10849TIP3    H154038   4.163   5.505  16.835  1.5833 -1.1507 -1.3458
10849TIP3    H254039   4.259   5.619  16.861 -0.0218 -0.2100  0.5294
10850TIP3   OH254040   6.775   3.653  14.982 -0.2334 -0.5594  0.0267
10850TIP3    H154041   6.694   3.642  15.031 -1.8190  3.0271 -1.6268
10850TIP3    H254042   6.816   3.730  15.020  0.9782 -0.6474 -1.0602
10851TIP3   OH254043   4.512   1.063   0.916  0.2558  0.4384 -0.4637
10851TIP3    H154044   4.461   0.999   0.866  0.4865  0.1417 -0.3230
10851TIP3    H254045   4.450   1.097   0.981  0.8473 -1.6717  1.2905
10852TIP3   OH254046   4.458   6.506  13.899 -0.2605 -0.4044 -0.2539
10852TIP3    H154047   4.365   6.504  13.878 -0.8285 -0.2257  2.0164
10852TIP3    H254048   4.494   6.425  13.862 -0.9228  0.4172 -2.7310
10853TIP3   OH254049   4.336   6.523   3.545  0.6020 -0.6122 -0.2159
10853TIP3    H154050   4.389   6.594   3.582  0.7537  0.4198 -2.3775
10853TIP3    H254051   4.290   6.562   3.471 -1.7619 -1.9811  0.4476
10854TIP3   OH254052   5.087   6.290   3.177  0.2564  0.2369 -0.0557
10854TIP3    H154053   5.034   6.369   3.161 -0.7659 -0.6675 -1.2781
10854TIP3    H254054   5.177   6.319   3.164 -0.1403  1.1133 -0.9840
10855TIP3   OH254055   2.283   5.933  13.764 -0.0462  0.0057 -0.9222
10855TIP3    H154056   2.360   5.970  13.807 -1.0763  2.7130 -1.3155
10855TIP3    H254057   2.318   5.892  13.684  1.3542 -1.6507  0.4940
10856TIP3   OH254058   2.792   4.439   3.924  0.6549 -0.5815  0.0936
10856TIP3    H154059   2.770   4.462   3.833 -0.4799  2.2110  1.0254
10856TIP3    H254060   2.884   4.464   3.934  0.8144 -1.0005 -0.3124
10857TIP3   OH254061   1.415   1.674  15.692 -0.1797  0.4621  0.3017
10857TIP3    H154062   1.335   1.674  15.743  0.9727 -0.4364  2.1702
10857TIP3    H254063   1.483   1.703  15.753  1.0183  0.5665 -1.0528
10858TIP3   OH254064   6.620   4.806   5.653  0.5923 -0.1092  0.5530
10858TIP3    H154065   6.529   4.820   5.679  0.9631 -0.7362  2.2976
10858TIP3    H254066   6.635   4.867   5.581 -0.1334  2.6001  2.6437
10859TIP3   OH254067   4.321   2.430  16.532 -0.0106 -0.3355 -0.4990
10859TIP3    H154068   4.234   2.465  16.551  0.5605  0.1500  1.3560
10859TIP3    H254069   4.328   2.432  16.437 -2.5987 -1.7726 -0.7386
10860TIP3   OH254070   5.617   0.078   2.454 -0.2167  0.3541 -0.0764
10860TIP3    H154071   5.630  -0.017   2.459 -0.7090  0.2779 -0.2274
10860TIP3    H254072   5.529   0.092   2.490 -0.4798  0.6643 -0.8256
10861TIP3   OH254073   1.641   4.590  17.244  0.0017  0.1051 -0.9668
10861TIP3    H154074   1.620   4.588  17.338  1.2463  1.4967 -0.6484
10861TIP3    H254075   1.693   4.512  17.230  0.1115  0.0733 -0.4251
10862TIP3   OH254076   6.347   1.742   1.195  0.1374  0.0474  0.5140
10862TIP3    H154077   6.418   1.691   1.235 -2.6305 -3.0606  1.7084
10862TIP3    H254078   6.383   1.772   1.111  2.0770 -3.5652 -0.0543
10863TIP3   OH254079   2.441   2.482  11.279  0.0446  0.3220 -0.4744
10863TIP3    H154080   2.495   2.481  11.358 -1.9828  0.6539  0.9626
10863TIP3    H254081   2.455   2.569  11.242  0.9544  0.1884 -0.4584
10864TIP3   OH254082   3.923   5.234   5.313 -0.6019 -0.0999 -0.7165
10864TIP3    H154083   3.893   5.278   5.233 -1.5241  1.8627  0.6443
10864TIP3    H254084   3.851   5.247   5.375  1.0881  0.4839  1.1638
10865TIP3   OH254085   4.260   0.595  16.418 -0.0468 -0.2202 -0.8053
10865TIP3    H154086   4.274   0.620  16.326 -0.6276  1.2790 -0.5099
10865TIP3    H254087   4.165   0.596  16.429 -0.0099 -1.1846 -0.3981
10866TIP3   OH254088   2.693   0.996   0.575  0.0969 -0.8089  0.3808
10866TIP3    H154089   2.758   1.053   0.535 -0.0123 -0.1242  1.1694
10866TIP3    H254090   2.634   0.973   0.503 -0.0311  0.3149  0.1165
10867TIP3   OH254091   4.625   0.237   5.146 -0.0067  0.4031 -0.6557
10867TIP3    H154092   4.557   0.260   5.083 -0.2694 -0.5444 -0.7227
10867TIP3    H254093   4.630   0.141   5.143  0.5503  0.3967  0.1616
10868TIP3   OH254094   3.335   3.416  13.415  0.1492 -0.2604  0.7394
10868TIP3    H154095   3.251   3.426  13.371  0.5392 -2.2109 -0.4879
10868TIP3    H254096   3.399   3.452  13.354  0.3687 -0.1505  1.0344
10869TIP3   OH254097   2.965   1.958   5.530 -0.2985  0.1031  0.7995
10869TIP3    H154098   3.041   2.010   5.503 -0.7108  0.2321 -0.1466
10869TIP3    H254099   2.969   1.957   5.625  0.0226  1.4058  0.8077
10870TIP3   OH254100   5.435   1.832  13.750 -0.3120  1.0088 -0.3529
10870TIP3    H154101   5.459   1.745  13.780 -0.7568  0.6952 -0.9060
10870TIP3    H254102   5.404   1.878  13.828 -2.3328 -0.0877 -0.4904
10871TIP3   OH254103   3.698   5.874   5.723  0.3982  0.3245 -0.1833
10871TIP3    H154104   3.741   5.958   5.734 -0.5770  0.4581  3.0450
10871TIP3    H254105   3.663   5.853   5.809 -2.3522 -1.7637 -1.7002
10872TIP3   OH254106   3.871   5.629   2.784 -0.3228 -0.6999 -0.5375
10872TIP3    H154107   3.886   5.543   2.823  1.3810 -1.1864 -2.1684
10872TIP3    H254108   3.906   5.622   2.695  1.1596  2.0717 -0.2688
10873TIP3   OH254109   0.510   5.756   4.825 -0.0564  0.6310  0.0532
10873TIP3    H154110   0.471   5.677   4.788  0.1042  0.0098  1.1784
10873TIP3    H254111   0.465   5.828   4.782 -1.4250 -0.0776  0.2764
10874TIP3   OH254112   1.767   1.463   3.139  0.5114 -0.1881  0.2504
10874TIP3    H154113   1.794   1.415   3.061  0.8501 -1.1499  0.9624
10874TIP3    H254114   1.802   1.552   3.126 -0.9617  0.1627 -1.5197
10875TIP3   OH254115   5.583   3.004   5.473  0.4392  0.6081  0.3305
10875TIP3    H154116   5.514   2.994   5.407 -0.0898  1.7596  0.7039
10875TIP3    H254117   5.553   2.951   5.547 -0.2580  1.4422  0.6538
10876TIP3   OH254118   1.632   0.420   3.633  0.3838 -0.3010  0.3209
10876TIP3    H154119   1.540   0.392   3.639 -0.8319  2.5906 -2.7083
10876TIP3    H254120   1.644   0.476   3.710 -1.9769  3.0384 -1.5454
10877TIP3   OH254121   0.122   4.784  14.178  0.0946  0.3375 -0.0193
10877TIP3    H154122   0.120   4.692  14.151 -3.2964  0.1687  0.5162
10877TIP3    H254123   0.134   4.781  14.273  0.2391  0.4521 -0.0340
10878TIP3   OH254124   2.657   1.492   1.568  0.1672 -0.6530  0.3483
10878TIP3    H154125   2.570   1.499   1.607  0.0116  0.7601 -0.2207
10878TIP3    H254126   2.652   1.416   1.510 -0.4989 -0.9410  0.7860
10879TIP3   OH254127   4.696   1.979  14.516  0.3048  0.1173 -0.7141
10879TIP3    H154128   4.670   2.034  14.443 -0.5606  0.4019 -0.2076
10879TIP3    H254129   4.791   1.982  14.516  0.3254 -0.1634 -2.0344
10880TIP3   OH254130   5.400   1.490   1.095  0.6112  0.1025 -0.0174
10880TIP3    H154131   5.389   1.585   1.099 -2.1125 -0.1955 -0.1014
10880TIP3    H254132   5.361   1.464   1.012  0.8309 -1.1647  0.2653
10881TIP3   OH254133   4.594   0.915  14.761 -0.3001  0.6820  0.1717
10881TIP3    H154134   4.561   0.837  14.718  1.6895 -0.5842  0.8913
10881TIP3    H254135   4.517   0.971  14.773 -2.0238 -1.8390  1.1045
10882TIP3   OH254136   5.186   5.919  15.898 -0.4018 -0.6063 -0.3241
10882TIP3    H154137   5.166   5.864  15.823 -0.0177  2.0313 -2.4533
10882TIP3    H254138   5.245   5.867  15.952 -0.1240 -2.2818 -2.2007
10883TIP3   OH254139   4.630   1.294   3.583 -0.1775 -0.5538 -0.3676
10883TIP3    H154140   4.690   1.321   3.652 -0.5172  0.3849 -0.4324
10883TIP3    H254141   4.684   1.288   3.505 -0.1778  0.3731 -0.4450
10884TIP3   OH254142   3.597   2.090  16.793  0.7031 -0.1199  0.0990
10884TIP3    H154143   3.509   2.117  16.819  1.2229 -1.3644  3.3516
10884TIP3    H254144   3.645   2.172  16.785 -0.2289  0.4543  0.2477
10885TIP3   OH254145   4.471   6.293   5.273 -0.0117  0.0798  0.8524
10885TIP3    H154146   4.521   6.235   5.331  2.4255  1.2588  0.0376
10885TIP3    H254147   4.480   6.252   5.187  0.5906  0.9353  0.5032
10886TIP3   OH254148   1.087   3.237  14.003 -0.3220  0.2059 -0.1916
10886TIP3    H154149   1.000   3.208  13.974  0.3256 -1.9945  0.0057
10886TIP3    H254150   1.070   3.293  14.078 -1.5348 -0.8404  0.3285
10887TIP3   OH254151   1.375   4.840   0.082 -0.3804 -0.4564 -0.3167
10887TIP3    H154152   1.321   4.864   0.157 -1.2946 -1.4289 -0.6547
10887TIP3    H254153   1.425   4.919   0.063 -0.6268  0.0062  0.8990
10888TIP3   OH254154   2.993   0.920   5.360 -0.3095  0.4150 -0.1918
10888TIP3    H154155   2.998   1.013   5.379  1.1703  0.3189 -0.0659
10888TIP3    H254156   3.083   0.889   5.366 -0.7314 -0.9465 -0.6320
10889TIP3   OH254157   1.669   2.296   4.575 -0.7543  0.0023  0.1751
10889TIP3    H154158   1.592   2.256   4.616 -0.9916 -0.9405 -1.1665
10889TIP3    H254159   1.688   2.240   4.500  0.0499  1.3519 -0.6527
10890TIP3   OH254160   2.091   5.711   0.760  0.0759  0.3151  0.5602
10890TIP3    H154161   2.035   5.738   0.833 -1.2115 -1.0548  0.0961
10890TIP3    H254162   2.063   5.622   0.740  1.2997  0.2193 -0.7744
10891TIP3   OH254163   1.968   0.317  16.743 -0.2889 -0.5427 -0.5988
10891TIP3    H154164   1.923   0.257  16.803 -0.4346  0.4303  0.2856
10891TIP3    H254165   1.946   0.404  16.776  2.3652 -0.0417 -0.0934
10892TIP3   OH254166   5.001   1.872  15.841  0.3447 -0.4075 -0.2518
10892TIP3    H154167   5.083   1.856  15.889 -0.3136 -1.7134  0.4695
10892TIP3    H254168   4.933   1.868  15.908 -0.2651  1.4573 -0.7156
10893TIP3   OH254169   3.085   0.303   6.578 -0.7901 -0.1514  0.1677
10893TIP3    H154170   3.006   0.356   6.569  0.4086  1.7250  0.2843
10893TIP3    H254171   3.082   0.243   6.503 -1.7609  0.6558 -0.4568
10894TIP3   OH254172   2.869   3.502   4.660 -0.0224 -1.2028  0.5984
10894TIP3    H154173   2.961   3.483   4.680  0.2888 -0.9501 -0.5232
10894TIP3    H254174   2.861   3.597   4.675  0.1330 -1.0679 -0.1352
10895TIP3   OH254175   2.165   5.721   5.348  0.0071  0.0888  0.6508
10895TIP3    H154176   2.088   5.745   5.400 -0.0751  0.3545  0.4099
10895TIP3    H254177   2.210   5.804   5.333 -0.1754  0.0667 -0.0300
10896TIP3   OH254178   6.038   2.625   4.867  0.1480  0.1324 -0.0337
10896TIP3    H154179   6.100   2.639   4.939  0.1901  0.6947 -0.1848
10896TIP3    H254180   6.047   2.532   4.846 -0.8819 -0.3856  1.6501
10897TIP3   OH254181   0.295   6.023  14.075 -0.7226  0.0815  0.3836
10897TIP3    H154182   0.280   6.032  14.169 -2.2347 -1.1884  0.2902
10897TIP3    H254183   0.243   6.093  14.035 -0.9279 -0.0475  0.4280
10898TIP3   OH254184   5.498   0.357  13.725  0.0633  0.3216  0.1477
10898TIP3    H154185   5.562   0.426  13.710 -1.2784  1.7264  0.8146
10898TIP3    H254186   5.504   0.337  13.818 -0.4609  0.4448  0.2092
10899TIP3   OH254187   5.984   5.242   2.668  0.9334 -0.2485 -0.0226
10899TIP3    H154188   6.030   5.321   2.641  0.6119 -0.4398 -1.1326
10899TIP3    H254189   5.941   5.266   2.750 -1.0803  1.4528 -1.5138
10900TIP3   OH254190   3.449   3.902  16.201  0.1847 -0.1973 -0.7450
10900TIP3    H154191   3.434   3.988  16.239 -0.2762 -0.3043 -0.6864
10900TIP3    H254192   3.484   3.920  16.114  0.4102  0.0471 -0.6035
10901TIP3   OH254193   5.165   6.038   1.756  0.2062 -0.5111  0.5519
10901TIP3    H154194   5.172   5.960   1.811  0.6760 -2.2332 -1.8636
10901TIP3    H254195   5.112   6.010   1.682 -0.4024  1.7623  0.0832
10902TIP3   OH254196   6.708   0.615  13.453 -0.1213 -0.2706 -0.1558
10902TIP3    H154197   6.703   0.588  13.545 -0.7874 -0.0487 -0.1254
10902TIP3    H254198   6.617   0.631  13.428 -0.0503 -1.4666 -1.1992
10903TIP3   OH254199   1.632   0.421  12.159  0.2961  0.2111  0.5061
10903TIP3    H154200   1.688   0.367  12.215  1.3562  0.9871  0.2111
10903TIP3    H254201   1.637   0.509  12.198 -0.6174  0.3060  0.4049
10904TIP3   OH254202   6.497   1.148  15.541  0.0955 -0.0719  0.1747
10904TIP3    H154203   6.406   1.119  15.529 -1.4411  2.9511  3.4861
10904TIP3    H254204   6.523   1.110  15.625  0.4194  2.3752  1.2161
10905TIP3   OH254205   3.916   6.665  15.782 -0.1281  0.4996 -0.2145
10905TIP3    H154206   3.860   6.604  15.829 -2.7771  1.1723 -2.3971
10905TIP3    H254207   3.896   6.750  15.820  0.2006  0.6055 -0.2797
10906TIP3   OH254208   0.770   0.658   4.707  0.4986  0.3507 -0.0681
10906TIP3    H154209   0.729   0.740   4.679 -1.0681 -0.4372 -0.1285
10906TIP3    H254210   0.783   0.609   4.626 -1.6431 -0.8411  0.2733
10907TIP3   OH254211   3.020   4.312  13.152 -0.5457  0.9135 -0.6306
10907TIP3    H154212   3.112   4.325  13.128 -1.2050  0.3939 -3.6287
10907TIP3    H254213   2.973   4.383  13.108 -1.5829  1.3244  1.0789
10908TIP3   OH254214   5.214   4.835   1.878 -0.6332  0.3623 -0.4392
10908TIP3    H154215   5.249   4.837   1.967  3.2201 -0.2590 -1.8497
10908TIP3    H254216   5.119   4.831   1.889 -0.1576 -1.5881  3.6457
10909TIP3   OH254217   4.945   6.722   0.692 -0.0726  0.1929 -0.2473
10909TIP3    H154218   4.953   6.627   0.706  1.3031  0.3465  0.0823
10909TIP3    H254219   4.944   6.759   0.780  1.8842  0.6569 -0.3878
10910TIP3   OH254220   1.056   1.128  13.006 -0.1909  0.0565  0.0071
10910TIP3    H154221   1.095   1.054  12.959 -2.3159 -3.0746  2.9302
10910TIP3    H254222   1.101   1.129  13.091 -1.3004  1.0816  0.6117
10911TIP3   OH254223   6.603   6.672   5.246 -0.3475  0.2180  0.3523
10911TIP3    H154224   6.524   6.647   5.295 -2.2246  1.3652 -1.9816
10911TIP3    H254225   6.636   6.589   5.212 -0.0924 -0.3632  1.9565
10912TIP3   OH254226   5.824   6.352   3.370 -0.2726 -0.2396 -0.1405
10912TIP3    H154227   5.890   6.421   3.368 -1.3246  0.7950 -0.2486
10912TIP3    H254228   5.763   6.380   3.440 -1.3135 -0.4685 -0.9434
10913TIP3   OH254229   2.419   2.126   2.080  0.2750 -0.1556  0.0596
10913TIP3    H154230   2.500   2.155   2.122  0.1615 -0.8293  0.7422
10913TIP3    H254231   2.351   2.185   2.115  0.6660  1.2783 -1.5181
10914TIP3   OH254232   2.316   4.318  16.079  0.7127 -0.4048 -0.0626
10914TIP3    H154233   2.291   4.231  16.048 -1.3335 -0.4595  1.6716
10914TIP3    H254234   2.369   4.301  16.157 -0.2567 -0.1062  0.6739
10915TIP3   OH254235   3.349   0.786   5.255 -0.8259 -0.3724  0.3989
10915TIP3    H154236   3.444   0.786   5.266 -1.0104 -1.5545  2.2646
10915TIP3    H254237   3.327   0.877   5.239  0.7854 -0.3082 -1.7156
10916TIP3   OH254238   0.174   5.731   5.395  0.4919  0.1959  0.0891
10916TIP3    H154239   0.101   5.785   5.423  0.9272  0.6435  0.3818
10916TIP3    H254240   0.252   5.784   5.413  0.8958 -0.3188 -0.0999
10917TIP3   OH254241   6.288   1.987   0.739  0.2766 -0.1446  0.1581
10917TIP3    H154242   6.346   2.056   0.707  0.5986 -1.2242 -1.6428
10917TIP3    H254243   6.200   2.019   0.722  0.4432 -0.5817 -1.5711
10918TIP3   OH254244   3.347   5.354  10.769 -0.4844  0.0986  0.3974
10918TIP3    H154245   3.408   5.286  10.742 -0.6924 -0.2145  0.7146
10918TIP3    H254246   3.355   5.422  10.702  0.6571  0.3303  0.7701
10919TIP3   OH254247   6.450   5.513  15.384  0.3181 -0.1357  0.5241
10919TIP3    H154248   6.376   5.513  15.444  0.7771 -0.0246  1.0923
10919TIP3    H254249   6.411   5.514  15.297 -0.3587  2.0418  0.8243
10920TIP3   OH254250   3.111   4.164  10.601  0.0465 -0.4092  0.2474
10920TIP3    H154251   3.100   4.134  10.691  1.1827  0.0218  0.5338
10920TIP3    H254252   3.146   4.088  10.555 -0.6373 -0.6624  0.1435
10921TIP3   OH254253   0.359   6.634   0.833  0.4258  0.2009 -0.3344
10921TIP3    H154254   0.277   6.659   0.877  0.7977  0.4704  0.2054
10921TIP3    H254255   0.423   6.626   0.903  1.2619  1.5547 -0.9003
10922TIP3   OH254256   2.650   4.422  14.717  0.0380  0.1035  0.7275
10922TIP3    H154257   2.560   4.390  14.718 -0.3966  1.0968 -1.9543
10922TIP3    H254258   2.647   4.504  14.766 -0.6741  0.4660  0.0925
10923TIP3   OH254259   3.561   3.092   1.983  0.3408 -0.4113 -0.0022
10923TIP3    H154260   3.609   3.129   1.910 -0.6573 -0.6644 -0.8028
10923TIP3    H254261   3.593   3.003   1.991  0.8991 -0.1862  0.2734
10924TIP3   OH254262   6.283   6.491   1.893  0.5060  0.3934  0.6830
10924TIP3    H154263   6.189   6.506   1.883  0.1325 -1.2366  1.6033
10924TIP3    H254264   6.324   6.562   1.844 -1.2148 -0.0493 -1.4952
10925TIP3   OH254265   5.085   3.511  11.552 -0.3176  0.2312 -0.7265
10925TIP3    H154266   5.004   3.548  11.587  0.0999 -0.0112  0.5469
10925TIP3    H254267   5.059   3.428  11.513 -0.8892  0.7767 -1.5132
10926TIP3   OH254268   4.991   0.859   2.236 -0.4974 -0.5248  0.4194
10926TIP3    H154269   4.954   0.775   2.207  0.9870 -1.0160 -0.1004
10926TIP3    H254270   4.957   0.923   2.174 -1.3692 -0.7831  0.6188
10927TIP3   OH254271   6.183   1.400   4.596 -0.0223  0.0973  0.0835
10927TIP3    H154272   6.227   1.318   4.618  0.8517  0.8860  1.3565
10927TIP3    H254273   6.246   1.447   4.542 -0.8921 -0.4458 -1.4464
10928TIP3   OH254274   0.423   3.707   4.704 -0.2273  0.0133  0.3195
10928TIP3    H154275   0.358   3.646   4.669  0.7553 -1.4727  1.0399
10928TIP3    H254276   0.507   3.670   4.679  0.3784  1.4562  0.1640
10929TIP3   OH254277   3.293   1.130   1.441  0.4005  0.5996  0.5880
10929TIP3    H154278   3.279   1.223   1.460 -1.1456  0.4405  0.3215
10929TIP3    H254279   3.212   1.087   1.469  0.6028 -0.4945 -0.4371
10930TIP3   OH254280   4.288   1.159   3.284 -0.6099  0.0473  0.6802
10930TIP3    H154281   4.286   1.147   3.189  0.0046 -0.6024  0.7486
10930TIP3    H254282   4.217   1.104   3.317 -0.1628 -0.5364  0.6794
10931TIP3   OH254283   0.779   5.927   6.520  0.4458 -0.6449 -0.4965
10931TIP3    H154284   0.866   5.896   6.546 -0.2468 -1.4896  0.8300
10931TIP3    H254285   0.736   5.951   6.602 -1.2138 -1.8992 -0.9859
10932TIP3   OH254286   6.690   4.162   0.813 -0.5852  0.1016 -0.1661
10932TIP3    H154287   6.734   4.089   0.769 -0.3724 -0.0499  0.3001
10932TIP3    H254288   6.618   4.186   0.753 -0.7849 -0.6224 -0.2172
10933TIP3   OH254289   6.359   4.009   4.742 -0.1660 -0.0294  0.7629
10933TIP3    H154290   6.427   4.061   4.699  0.4455  0.0293  1.7712
10933TIP3    H254291   6.331   4.062   4.817  0.1706 -0.9520  1.5599
10934TIP3   OH254292   5.304   3.678   1.417 -0.3671  0.2923 -0.5964
10934TIP3    H154293   5.390   3.658   1.455  0.7615 -0.6912 -3.5379
10934TIP3    H254294   5.242   3.662   1.488  1.5353 -2.7221  0.4620
10935TIP3   OH254295   5.282   0.576  13.684  0.9942  0.4100 -0.4806
10935TIP3    H154296   5.211   0.607  13.741  2.0362  0.5242  0.7943
10935TIP3    H254297   5.290   0.483  13.707  1.1447  0.3602 -0.7427
10936TIP3   OH254298   3.351   1.000   4.500  0.0173 -0.1385  0.6633
10936TIP3    H154299   3.278   1.021   4.558 -0.5766  0.1121 -0.1741
10936TIP3    H254300   3.423   1.054   4.532 -0.5792  0.7253  0.5631
10937TIP3   OH254301   3.158   2.517   1.360 -0.3557 -0.2980  0.6407
10937TIP3    H154302   3.066   2.544   1.354 -0.3670 -0.4291  0.1515
10937TIP3    H254303   3.155   2.433   1.405 -0.2480  0.8766  2.9149
10938TIP3   OH254304   4.861   6.436  17.142 -0.0817  0.4457  0.1705
10938TIP3    H154305   4.770   6.451  17.116 -0.1655  0.8250  0.6756
10938TIP3    H254306   4.893   6.370  17.079 -0.8132  0.0314  0.2182
10939TIP3   OH254307   4.906   6.014   5.297  0.2481  0.0641 -0.0808
10939TIP3    H154308   4.888   5.921   5.281  0.6711 -0.0452  0.0806
10939TIP3    H254309   4.998   6.017   5.324 -0.1961  0.3617  1.4044
10940TIP3   OH254310   3.437   6.053   5.064  0.2588  0.3261  0.4189
10940TIP3    H154311   3.505   6.088   5.006 -0.3077 -0.1240 -0.5323
10940TIP3    H254312   3.363   6.111   5.051 -0.6824 -1.1915 -1.1512
10941TIP3   OH254313   6.346   0.014   4.546 -0.7479  0.2432  0.0397
10941TIP3    H154314   6.376   0.053   4.464 -1.2466 -0.7421 -0.6234
10941TIP3    H254315   6.352   0.084   4.611 -0.3837  1.0294 -0.8497
10942TIP3   OH254316   5.995   1.168   5.419  0.4985  0.0951  0.1942
10942TIP3    H154317   5.970   1.228   5.489  1.1956  0.4481  0.1458
10942TIP3    H254318   5.912   1.143   5.379  0.0246 -0.7876  1.6814
10943TIP3   OH254319   5.637   2.172   3.392  0.1267  0.2936 -0.1096
10943TIP3    H154320   5.639   2.267   3.381 -0.2948  0.4170  0.8497
10943TIP3    H254321   5.729   2.147   3.398  0.2421  0.6249 -0.4684
10944TIP3   OH254322   1.096   4.611   0.805 -0.1180 -0.5135 -0.1394
10944TIP3    H154323   1.061   4.695   0.775 -0.9912 -0.9327 -0.3245
10944TIP3    H254324   1.032   4.546   0.774 -0.0809 -1.1288  1.0278
10945TIP3   OH254325   3.473   5.826   1.592 -0.1714 -0.0538  0.2676
10945TIP3    H154326   3.525   5.900   1.622  2.2062 -0.3981 -2.7371
10945TIP3    H254327   3.528   5.749   1.610 -1.8469 -0.9628  1.7083
10946TIP3   OH254328   5.221   3.551   4.799  0.1428  0.0659 -0.0564
10946TIP3    H154329   5.174   3.493   4.859 -2.8471  1.2214 -1.1465
10946TIP3    H254330   5.218   3.505   4.715 -0.6604  0.9409 -0.5250
10947TIP3   OH254331   3.942   5.418   1.307 -0.1055 -0.0388 -0.0463
10947TIP3    H154332   3.858   5.431   1.350 -0.3496  0.3137 -0.6189
10947TIP3    H254333   3.965   5.327   1.325 -0.7888 -0.2426 -0.2005
10948TIP3   OH254334   2.521   0.361  14.504  0.0866  0.4560 -0.5243
10948TIP3    H154335   2.598   0.337  14.555  0.1894 -0.6678 -1.1896
10948TIP3    H254336   2.459   0.396  14.569 -0.1929 -1.9442  0.5604
10949TIP3   OH254337   6.202   5.126   2.469 -0.5213 -0.2789  0.4073
10949TIP3    H154338   6.160   5.046   2.438 -0.3715 -1.1724  2.3955
10949TIP3    H254339   6.129   5.184   2.491 -0.6284  0.2103 -1.1947
10950TIP3   OH254340   0.560   0.407  16.128  0.6687  0.3151  0.3464
10950TIP3    H154341   0.520   0.426  16.213 -0.2837  0.0146 -0.0309
10950TIP3    H254342   0.487   0.412  16.066  0.8360 -2.2023 -0.0879
10951TIP3   OH254343   6.237   1.727   0.789 -0.0380 -0.5308 -0.2389
10951TIP3    H154344   6.260   1.815   0.760  0.3953 -0.5956 -0.0965
10951TIP3    H254345   6.238   1.674   0.709  2.0142 -0.8945 -0.0173
10952TIP3   OH254346   2.601   1.374   5.702  0.1726 -0.0735  0.1825
10952TIP3    H154347   2.512   1.342   5.713  0.4080 -1.1583 -0.9034
10952TIP3    H254348   2.655   1.295   5.696  1.3319  0.5810  1.7509
10953TIP3   OH254349   0.738   0.607  12.160  0.3461  0.3190 -0.1651
10953TIP3    H154350   0.771   0.641  12.077  0.8208  0.8862  0.2534
10953TIP3    H254351   0.767   0.670  12.226 -0.3585  0.0745  0.3871
10954TIP3   OH254352   5.852   3.819   2.474 -0.1244 -0.2453  1.1257
10954TIP3    H154353   5.787   3.887   2.489 -0.1149 -0.1651  0.7900
10954TIP3    H254354   5.911   3.825   2.550  0.6701  1.0193  0.4198
10955TIP3   OH254355   0.308   2.618  12.972 -0.4299 -0.2227  0.0613
10955TIP3    H154356   0.217   2.593  12.991 -0.2485 -0.3927  0.7271
10955TIP3    H254357   0.355   2.598  13.053 -0.1392  1.5170  0.3478
10956TIP3   OH254358   1.010   4.033  11.470  0.0175 -0.1399  0.4272
10956TIP3    H154359   1.000   3.957  11.412  0.5620  0.3848 -0.3699
10956TIP3    H254360   1.000   3.997  11.558 -0.9130 -0.9412  0.0109
10957TIP3   OH254361   3.843   0.985  14.908 -0.0882 -0.7882  0.5686
10957TIP3    H154362   3.844   1.072  14.869  3.2088 -0.6973  0.7108
10957TIP3    H254363   3.798   0.930  14.844 -1.5725  0.8600  0.1685
10958TIP3   OH254364   0.117   6.600  15.908 -0.0765 -0.4276  0.5990
10958TIP3    H154365   0.045   6.548  15.873 -0.4815  0.7483 -0.3778
10958TIP3    H254366   0.076   6.680  15.940  0.2596 -1.5836  4.0704
10959TIP3   OH254367   1.626   1.765   2.801 -0.0429 -0.4872  0.0864
10959TIP3    H154368   1.539   1.781   2.763 -0.2884 -0.0971  0.8087
10959TIP3    H254369   1.650   1.847   2.842 -0.6885 -1.5119  2.5896
10960TIP3   OH254370   3.030   2.864   0.165  0.1882  0.2667  0.3816
10960TIP3    H154371   3.030   2.896   0.255  1.3172  2.6732 -0.4576
10960TIP3    H254372   3.118   2.828   0.152 -0.5651 -1.7972  0.8092
10961TIP3   OH254373   3.865   0.157  10.655 -0.4677  0.2893 -0.7225
10961TIP3    H154374   3.948   0.113  10.638 -0.1917  1.2700 -2.0371
10961TIP3    H254375   3.819   0.154  10.571 -0.6288  2.0972 -0.7167
10962TIP3   OH254376   4.991   5.444  15.139  0.1834 -0.3214  0.4900
10962TIP3    H154377   4.919   5.470  15.083 -0.7168  1.0472  2.2379
10962TIP3    H254378   5.028   5.526  15.171  0.6592 -1.0646  1.8969
10963TIP3   OH254379   0.808   4.681  16.845  0.5376 -0.3841  0.2519
10963TIP3    H154380   0.835   4.769  16.821  0.5081  0.2094  2.2790
10963TIP3    H254381   0.865   4.658  16.919 -0.6229 -1.3562  0.8629
10964TIP3   OH254382   2.000   5.551  14.993  0.2759  0.0800  0.4739
10964TIP3    H154383   2.030   5.605  15.066  1.7992  0.6306 -0.5217
10964TIP3    H254384   2.058   5.474  14.994  0.3048  0.0875 -0.1211
10965TIP3   OH254385   6.310   4.790   5.907 -0.0130  0.1919  0.2203
10965TIP3    H154386   6.371   4.831   5.968 -1.0999  0.3200  1.2320
10965TIP3    H254387   6.240   4.853   5.895 -0.5107 -0.4020 -0.0673
10966TIP3   OH254388   2.070   0.630   3.210 -0.0308 -0.1225  0.0516
10966TIP3    H154389   2.049   0.537   3.201  1.9801 -0.3433 -3.0571
10966TIP3    H254390   1.989   0.670   3.242 -0.5561 -3.0794  2.7011
10967TIP3   OH254391   4.964   6.105  11.346  0.2959 -0.0824  0.2162
10967TIP3    H154392   4.929   6.017  11.331  0.5116 -0.4531  1.7135
10967TIP3    H254393   5.052   6.102  11.309 -0.0326 -0.2195 -0.5475
10968TIP3   OH254394   0.993   6.512  17.054  0.5909 -0.2861 -0.0375
10968TIP3    H154395   1.060   6.501  16.987 -0.0933  2.0301 -1.1537
10968TIP3    H254396   1.021   6.588  17.104  0.6340 -1.4641  1.8031
10969TIP3   OH254397   2.948   1.787  17.096 -0.8651 -0.5475  0.6924
10969TIP3    H154398   2.975   1.701  17.064  1.7473  0.1315  0.9317
10969TIP3    H254399   2.955   1.781  17.192 -1.0800 -0.2169  0.7328
10970TIP3   OH254400   0.821   2.487  12.700 -0.0032 -0.7990  0.1415
10970TIP3    H154401   0.744   2.526  12.741 -0.0727 -1.0349  0.2375
10970TIP3    H254402   0.858   2.557  12.645 -0.3620 -0.7309 -0.0088
10971TIP3   OH254403   5.101   2.207  15.894 -0.8085  0.4133 -0.3568
10971TIP3    H154404   5.147   2.131  15.858  0.5599  0.8692  0.3987
10971TIP3    H254405   5.166   2.278  15.891 -1.0229  0.7368  1.9655
10972TIP3   OH254406   4.858   3.675  14.486  0.1896 -0.1124 -0.1484
10972TIP3    H154407   4.920   3.739  14.451 -0.2793  0.3586 -0.1296
10972TIP3    H254408   4.904   3.633  14.558 -0.3072  1.8154  1.3399
10973TIP3   OH254409   0.558   3.179   4.338 -0.1948 -0.0474 -0.0478
10973TIP3    H154410   0.628   3.155   4.399  0.3943 -0.7514 -0.9917
10973TIP3    H254411   0.481   3.132   4.369 -0.1152  0.3102  0.6856
10974TIP3   OH254412   0.491   4.726  11.252 -0.5397 -0.4327  0.3248
10974TIP3    H154413   0.516   4.736  11.344 -0.0896 -1.0666  0.2814
10974TIP3    H254414   0.558   4.669  11.215  2.0393  3.6210 -1.6098
10975TIP3   OH254415   2.931   4.448  11.532  0.7290 -0.2824 -0.2822
10975TIP3    H154416   2.942   4.383  11.600  0.7063  0.5225  0.5015
10975TIP3    H254417   2.850   4.493  11.554  2.0756  1.7638  0.6791
10976TIP3   OH254418   5.693   0.407  12.999 -0.7544 -0.1431  0.2736
10976TIP3    H154419   5.788   0.398  12.999 -0.5142  2.1258 -0.3358
10976TIP3    H254420   5.673   0.445  13.084 -1.1165 -0.4704  0.3355
10977TIP3   OH254421   0.213   5.134   2.953  0.0622 -0.2191 -0.3919
10977TIP3    H154422   0.212   5.229   2.944 -1.6909 -0.2517 -0.7823
10977TIP3    H254423   0.275   5.117   3.023 -0.3447  1.2912  0.3601
10978TIP3   OH254424   3.371   5.587  14.307  0.1548 -0.4180 -0.0696
10978TIP3    H154425   3.354   5.494  14.299 -0.4471 -0.3205  0.0394
10978TIP3    H254426   3.389   5.600  14.400 -0.3314 -0.3365  0.0164
10979TIP3   OH254427   2.234   3.261   6.036 -0.1902 -0.4896 -0.3722
10979TIP3    H154428   2.318   3.223   6.011 -0.2639  0.0034 -1.3781
10979TIP3    H254429   2.252   3.307   6.118  0.3985 -0.8387 -0.3044
10980TIP3   OH254430   0.906   0.963   2.086  0.2867  0.4103  0.2741
10980TIP3    H154431   0.994   0.949   2.121  0.7580  0.1489 -0.9840
10980TIP3    H254432   0.847   0.933   2.156  1.1554  1.9110  1.6915
10981TIP3   OH254433   3.838   3.439  15.752 -0.0454  0.2609 -0.4168
10981TIP3    H154434   3.819   3.502  15.682 -0.1020  0.4497 -0.2335
10981TIP3    H254435   3.924   3.404  15.730  1.4451  2.7593  1.2068
10982TIP3   OH254436   5.667   3.294  14.065  0.4915 -0.2772  0.5431
10982TIP3    H154437   5.730   3.258  14.128  0.4179  0.1885  0.8826
10982TIP3    H254438   5.718   3.355  14.012  0.1743  0.5987  1.2531
10983TIP3   OH254439   5.875   6.430   0.287  0.1577 -0.0019 -0.2422
10983TIP3    H154440   5.796   6.418   0.234  0.1879  2.6034 -0.9124
10983TIP3    H254441   5.920   6.346   0.281 -2.2307 -1.3425 -0.3484
10984TIP3   OH254442   1.217   2.741   4.159 -0.1853 -0.1538 -0.1114
10984TIP3    H154443   1.282   2.811   4.154  0.1686 -0.6479 -2.9699
10984TIP3    H254444   1.133   2.786   4.144 -0.3767  0.1932  1.7842
10985TIP3   OH254445   2.354   5.859  17.226 -0.7809  0.4602 -0.1768
10985TIP3    H154446   2.434   5.827  17.270 -1.3510  0.9793  1.2695
10985TIP3    H254447   2.355   5.953  17.242 -0.6676  0.7541 -1.8614
10986TIP3   OH254448   3.593   2.781   3.520  0.1134 -0.4028  0.2518
10986TIP3    H154449   3.520   2.843   3.522 -0.8503 -1.3929 -2.4021
10986TIP3    H254450   3.556   2.701   3.558 -0.1014 -0.8067 -0.7960
10987TIP3   OH254451   3.289   6.027   1.281  0.1595  0.0957 -0.3687
10987TIP3    H154452   3.213   5.990   1.327  0.1437  0.7001  0.0955
10987TIP3    H254453   3.322   5.955   1.228 -1.1463  0.0071 -1.0891
10988TIP3   OH254454   3.166   1.174   3.373 -0.0092 -0.1377 -0.2543
10988TIP3    H154455   3.170   1.222   3.456 -0.6522  1.9738 -1.3987
10988TIP3    H254456   3.072   1.167   3.354  0.1177 -1.0676 -0.5554
10989TIP3   OH254457   5.997   6.409   3.097  0.2701  0.3710 -0.6176
10989TIP3    H154458   6.022   6.420   3.189  1.6456  1.2960 -1.0942
10989TIP3    H254459   5.988   6.498   3.063  1.2030  0.0501 -1.7520
10990TIP3   OH254460   0.099   6.805  15.619 -0.3372  0.2937  0.3543
10990TIP3    H154461   0.111   6.897  15.599 -0.1843  0.1731 -0.0982
10990TIP3    H254462   0.134   6.795  15.708 -1.2111  0.8643  0.7831
10991TIP3   OH254463   6.069   3.784  12.205 -0.1725 -0.5617 -0.3904
10991TIP3    H154464   6.145   3.826  12.165  0.7497  1.1652  3.0276
10991TIP3    H254465   6.088   3.690  12.200  1.6925 -0.1955 -0.4792
10992TIP3   OH254466   4.043   6.431   5.565 -0.4152 -0.0268  0.1745
10992TIP3    H154467   4.125   6.468   5.533 -0.0581  0.3775  1.5025
10992TIP3    H254468   4.064   6.339   5.584 -0.8772 -0.5149 -1.6066
10993TIP3   OH254469   1.469   3.832   3.925  0.1550 -0.1911  0.0930
10993TIP3    H154470   1.563   3.829   3.939  0.1416 -2.2826 -0.0935
10993TIP3    H254471   1.437   3.890   3.994  1.6613  1.2604 -0.4099
10994TIP3   OH254472   6.019   4.437   1.275  0.1178  0.1365  0.3094
10994TIP3    H154473   5.960   4.470   1.343  1.0267  1.9161  0.2777
10994TIP3    H254474   6.106   4.466   1.303  0.5450  0.5682 -1.4154
10995TIP3   OH254475   3.690   5.098   0.898  0.8083 -0.6186 -0.2398
10995TIP3    H154476   3.605   5.124   0.862  1.1470  0.6783 -0.1288
10995TIP3    H254477   3.693   5.138   0.985  1.0308 -1.6817  0.2513
10996TIP3   OH254478   6.653   5.194  14.583  0.2450  0.2464  0.6026
10996TIP3    H154479   6.748   5.198  14.584  0.2560  0.0405  0.3905
10996TIP3    H254480   6.624   5.285  14.578  0.4414  0.2288 -0.8445
10997TIP3   OH254481   5.456   3.252   5.258 -0.5292 -0.0179 -0.1664
10997TIP3    H154482   5.511   3.290   5.327 -1.8480  0.8201  0.4545
10997TIP3    H254483   5.450   3.159   5.280  1.5377 -0.3304 -0.8753
10998TIP3   OH254484   0.252   4.532  16.092 -0.4102 -0.4994  0.0960
10998TIP3    H154485   0.246   4.556  16.185 -0.3439  0.6101 -0.1819
10998TIP3    H254486   0.217   4.608  16.045 -0.7899 -1.2065 -0.7762
10999TIP3   OH254487   2.400   6.027  11.770  0.3754 -0.0175 -0.7698
10999TIP3    H154488   2.369   6.028  11.680 -0.3213 -2.1630 -0.5877
10999TIP3    H254489   2.321   6.017  11.823  0.8920 -0.1071  0.0033
11000TIP3   OH254490   2.968   1.035  12.316  0.0096  0.2886 -0.0071
11000TIP3    H154491   3.013   1.057  12.235  0.8778  1.8471  0.8842
11000TIP3    H254492   2.990   0.943  12.331 -0.6988 -0.1936 -1.8671
11001TIP3   OH254493   6.716   4.938  14.118 -0.0762 -0.0161  0.4566
11001TIP3    H154494   6.751   4.956  14.031 -0.4824 -2.8471 -0.3415
11001TIP3    H254495   6.785   4.889  14.162 -1.2006 -1.5976  0.4993
11002TIP3   OH254496   4.191   0.748  14.593  0.2262 -0.4523  0.3688
11002TIP3    H154497   4.206   0.827  14.541  0.0760 -0.1639  0.7634
11002TIP3    H254498   4.153   0.686  14.532 -0.3340  0.0269  0.2316
11003TIP3   OH254499   2.755   3.458  12.410  0.6985  0.4189  0.3508
11003TIP3    H154500   2.692   3.481  12.478 -0.7508  2.0330 -1.4898
11003TIP3    H254501   2.838   3.496  12.440  0.1152  0.9657  1.2834
11004TIP3   OH254502   5.771   5.014  11.278  0.2329  0.0149 -0.1733
11004TIP3    H154503   5.811   5.038  11.194  0.8247  2.2149  0.7064
11004TIP3    H254504   5.689   4.971  11.253  1.2278 -0.9781 -1.9061
11005TIP3   OH254505   2.644   1.525  15.271  0.1060 -0.1836 -0.2178
11005TIP3    H154506   2.551   1.525  15.292 -0.1191 -0.1682 -1.2127
11005TIP3    H254507   2.663   1.615  15.244  0.7554  0.2107  1.4426
11006TIP3   OH254508   6.553   6.244  17.219 -0.2845  0.2841 -0.1062
11006TIP3    H154509   6.506   6.245  17.302 -0.5928 -2.4606 -0.2062
11006TIP3    H254510   6.644   6.265  17.243 -0.4979  0.1816  0.8084
11007TIP3   OH254511   3.532   4.568   5.459 -0.5613 -0.4357 -0.2561
11007TIP3    H154512   3.588   4.614   5.522 -0.9844 -1.0387  0.5697
11007TIP3    H254513   3.517   4.632   5.390  2.1066 -0.6174 -1.0861
11008TIP3   OH254514   5.410   4.878   3.816 -0.0185  0.8106 -0.0303
11008TIP3    H154515   5.344   4.819   3.780 -0.6628  1.5487 -0.0785
11008TIP3    H254516   5.440   4.835   3.896  0.1430  0.0041 -0.5291
11009TIP3   OH254517   1.284   1.118   5.721 -0.0868  0.6354  0.5097
11009TIP3    H154518   1.301   1.192   5.779  1.2936 -0.7346  1.9227
11009TIP3    H254519   1.333   1.045   5.761 -0.3536 -0.7057 -1.5438
11010TIP3   OH254520   4.101   3.900   3.335  0.2137 -0.0667 -0.3898
11010TIP3    H154521   4.147   3.958   3.396  0.5864 -0.2218 -0.5201
11010TIP3    H254522   4.065   3.831   3.390 -0.9540  0.7325 -0.1220
11011TIP3   OH254523   6.710   4.834  15.351  0.5158 -0.6591  0.0835
11011TIP3    H154524   6.654   4.868  15.420  0.5381 -1.0126  0.2751
11011TIP3    H254525   6.749   4.912  15.311  0.0868 -0.4253  0.1161
11012TIP3   OH254526   2.239   6.542  14.786  0.4446  0.3797 -0.0129
11012TIP3    H154527   2.175   6.473  14.807  0.5732  0.0569 -0.6742
11012TIP3    H254528   2.187   6.609  14.741  0.5204  0.2361 -0.3145
11013TIP3   OH254529   1.762   2.255   6.056  0.6191 -0.1908  0.0631
11013TIP3    H154530   1.733   2.304   5.979  0.6028 -0.5401 -0.1529
11013TIP3    H254531   1.746   2.314   6.129 -0.7095 -0.3821 -0.0441
11014TIP3   OH254532   5.715   5.436   1.885 -0.0906  0.0364  0.2273
11014TIP3    H154533   5.718   5.362   1.946  0.0592 -0.4539 -0.3644
11014TIP3    H254534   5.622   5.455   1.874 -0.1534 -0.3667  0.0326
11015TIP3   OH254535   5.505   3.260   0.225 -0.2028 -0.2803  0.5406
11015TIP3    H154536   5.453   3.302   0.294 -1.2993  0.8040 -0.9240
11015TIP3    H254537   5.524   3.330   0.163 -1.9636 -1.8992 -1.9017
11016TIP3   OH254538   2.964   6.711  14.477  0.2551  0.0923  0.3403
11016TIP3    H154539   2.919   6.742  14.555 -0.1520  0.2282  0.0541
11016TIP3    H254540   2.894   6.694  14.414  0.5729 -0.1153  0.0400
11017TIP3   OH254541   4.284   4.558  13.008  0.1605  0.3353  0.3328
11017TIP3    H154542   4.348   4.538  13.078  0.9185  1.0874 -0.1363
11017TIP3    H254543   4.232   4.478  13.001  1.4656 -0.5351  0.2907
11018TIP3   OH254544   1.780   4.570  11.130  0.2547  0.1340  0.0865
11018TIP3    H154545   1.809   4.629  11.199  1.0591 -1.3430  1.0507
11018TIP3    H254546   1.839   4.589  11.056  1.3247 -0.3097  0.8084
11019TIP3   OH254547   0.767   4.888   3.424 -0.7936  0.1076 -0.3720
11019TIP3    H154548   0.773   4.836   3.344  0.1389  0.1487 -0.3400
11019TIP3    H254549   0.773   4.979   3.394 -1.9643  0.1851 -0.3870
11020TIP3   OH254550   1.294   5.953   1.365 -0.6569  0.1137  0.0762
11020TIP3    H154551   1.266   6.042   1.344 -2.1927 -0.5088 -0.5729
11020TIP3    H254552   1.389   5.958   1.366 -0.7313  2.1704  1.7906
11021TIP3   OH254553   6.705   2.704  15.798  0.2289 -0.3096 -0.1844
11021TIP3    H154554   6.796   2.720  15.822  0.1106  1.0538 -0.5995
11021TIP3    H254555   6.693   2.749  15.715 -0.6080 -1.1607 -0.5393
11022TIP3   OH254556   5.221   6.436  16.249  0.2156 -0.4548  0.1586
11022TIP3    H154557   5.170   6.487  16.186  1.8742 -0.4036 -1.1785
11022TIP3    H254558   5.199   6.475  16.334 -0.7211  0.6222 -0.5523
11023TIP3   OH254559   5.138   5.246   5.923 -0.5381  0.0111 -0.1336
11023TIP3    H154560   5.096   5.191   5.857 -3.2237  1.9976 -0.1176
11023TIP3    H254561   5.231   5.246   5.898 -1.1234 -1.2882 -2.4433
11024TIP3   OH254562   0.680   6.418   4.555  0.3193  0.0136  0.1426
11024TIP3    H154563   0.771   6.435   4.529  0.5921 -2.0120 -0.3180
11024TIP3    H254564   0.683   6.410   4.650  0.6624 -0.1793  0.1184
11025TIP3   OH254565   3.563   3.861  15.122  0.4228 -0.2892 -0.4297
11025TIP3    H154566   3.572   3.766  15.131 -0.1142 -0.3111 -0.0734
11025TIP3    H254567   3.482   3.882  15.168  1.0704  0.4869  0.3738
11026TIP3   OH254568   0.411   5.680   3.632  0.0549  0.0642 -0.3363
11026TIP3    H154569   0.415   5.605   3.691  0.3016 -0.5880 -1.1648
11026TIP3    H254570   0.326   5.673   3.590  0.7831 -0.7722 -1.7123
11027TIP3   OH254571   5.876   3.975   3.943  0.0716  0.0150  0.3789
11027TIP3    H154572   5.961   3.942   3.914  0.4331 -0.3378  1.8125
11027TIP3    H254573   5.873   4.065   3.910  0.4838 -0.3516 -0.6911
11028TIP3   OH254574   0.680   2.600  11.719  0.0658  0.8432  0.3682
11028TIP3    H154575   0.687   2.550  11.638 -1.8752 -0.0034  0.6939
11028TIP3    H254576   0.714   2.687  11.696  0.4592  0.3244 -1.0755
11029TIP3   OH254577   2.617   2.915  14.413  0.3109 -0.5755  0.1344
11029TIP3    H154578   2.562   2.869  14.477 -2.7461  0.6629 -1.5171
11029TIP3    H254579   2.587   2.882  14.328  1.6217  0.6906 -0.8326
11030TIP3   OH254580   0.724   2.379   5.960  0.0554 -0.5727 -0.0020
11030TIP3    H154581   0.707   2.472   5.947 -1.8535 -0.8798  0.2113
11030TIP3    H254582   0.663   2.352   6.028  1.0987 -1.8362  0.4646
11031TIP3   OH254583   0.300   1.428   3.869 -0.1237 -0.1671 -0.9247
11031TIP3    H154584   0.369   1.464   3.813  0.8072 -0.6815 -0.1162
11031TIP3    H254585   0.334   1.436   3.958 -0.7872 -1.1190 -0.5807
11032TIP3   OH254586   5.667   5.158   5.288  0.4155 -0.2097  0.0175
11032TIP3    H154587   5.700   5.157   5.199  1.3423  0.9560  0.3374
11032TIP3    H254588   5.732   5.207   5.338 -0.8078  0.4370  1.0372
11033TIP3   OH254589   3.876   2.818  15.889 -0.1654 -0.0475 -0.4582
11033TIP3    H154590   3.904   2.832  15.799  1.5656  0.5523  0.1455
11033TIP3    H254591   3.791   2.862  15.895  0.0705  0.5779 -1.5821
11034TIP3   OH254592   2.273   5.117  15.499  0.1447 -0.1182 -0.1813
11034TIP3    H154593   2.242   5.114  15.409 -1.2956 -0.3660  0.3044
11034TIP3    H254594   2.368   5.109  15.493  0.0165 -0.5654 -1.6443
11035TIP3   OH254595   2.825   3.637   1.841 -0.1826  0.2165 -0.6016
11035TIP3    H154596   2.769   3.569   1.803 -0.6064  0.9775 -1.3580
11035TIP3    H254597   2.898   3.589   1.880  0.0714 -0.6187 -2.0627
11036TIP3   OH254598   0.218   2.376   1.914 -0.6703 -0.2663  0.4712
11036TIP3    H154599   0.148   2.428   1.874 -1.2187 -1.5016 -0.2041
11036TIP3    H254600   0.293   2.390   1.857 -0.4125  0.8895  1.0758
11037TIP3   OH254601   2.662   5.978   4.138  0.7479  0.0934  0.1772
11037TIP3    H154602   2.611   5.977   4.219  0.3162  1.2818 -0.0781
11037TIP3    H254603   2.674   5.885   4.116  0.6729 -0.2263  1.4701
11038TIP3   OH254604   4.886   0.824   4.529 -0.0989 -0.2496 -0.4550
11038TIP3    H154605   4.950   0.822   4.458 -0.5701 -0.3061 -0.8884
11038TIP3    H254606   4.803   0.803   4.486 -0.0027 -2.8296  0.5150
11039TIP3   OH254607   4.686   2.833  15.131 -0.0036 -0.5631  0.2817
11039TIP3    H154608   4.610   2.778  15.116  0.1831 -0.0310 -2.8495
11039TIP3    H254609   4.679   2.903  15.066  2.0234  0.7054  1.3604
11040TIP3   OH254610   2.687   1.305  11.114 -1.2116 -0.1300  0.2724
11040TIP3    H154611   2.730   1.314  11.029 -0.9039 -0.9790  0.3299
11040TIP3    H254612   2.750   1.342  11.177 -0.2459 -1.9758  0.4357
11041TIP3   OH254613   0.103   5.286   3.887  0.5079  0.3922 -0.4135
11041TIP3    H154614   0.073   5.233   3.961 -0.5159  2.5988  0.8164
11041TIP3    H254615   0.082   5.233   3.810 -3.7290  0.4415  0.5866
11042TIP3   OH254616   6.348   0.033  15.973 -0.5424  0.3458  0.0560
11042TIP3    H154617   6.442   0.037  15.990 -0.3373  0.9716 -1.1913
11042TIP3    H254618   6.309   0.091  16.039 -0.2249 -1.2236  1.6764
11043TIP3   OH254619   1.798   0.180   2.536 -0.2307  0.4974  0.4177
11043TIP3    H154620   1.732   0.142   2.594 -0.9037  1.0498  0.0254
11043TIP3    H254621   1.872   0.119   2.540 -1.3468 -0.9232 -0.3130
11044TIP3   OH254622   2.353   0.657   1.557 -0.1280  0.3480  0.2537
11044TIP3    H154623   2.360   0.638   1.651  2.0528  0.3333  0.1138
11044TIP3    H254624   2.274   0.709   1.549 -0.1369  0.6677  2.1553
11045TIP3   OH254625   2.568   0.775   4.497 -0.0982 -0.3434 -0.2588
11045TIP3    H154626   2.650   0.751   4.453 -0.1202 -0.8393 -0.0382
11045TIP3    H254627   2.526   0.837   4.438 -0.0194 -0.8288 -0.8324
11046TIP3   OH254628   1.147   5.833  12.982  0.3647 -0.6754 -0.3081
11046TIP3    H154629   1.079   5.870  13.039  2.4728  0.6889  1.4020
11046TIP3    H254630   1.100   5.771  12.927 -2.0640 -0.7342  1.7142
11047TIP3   OH254631   2.162   6.795  11.839 -0.1713 -0.1832 -0.1089
11047TIP3    H154632   2.247   6.831  11.815  0.4491  0.0338  2.2309
11047TIP3    H254633   2.098   6.852  11.795  0.8735  0.5430 -0.7048
11048TIP3   OH254634   6.542   5.553  14.848 -0.3100 -0.0880  0.5162
11048TIP3    H154635   6.486   5.623  14.883 -0.6367 -0.0269 -0.1201
11048TIP3    H254636   6.482   5.498  14.797  0.3253  0.3368 -0.7039
11049TIP3   OH254637   5.680   0.039   0.479  0.2684 -0.0586  0.0621
11049TIP3    H154638   5.775   0.047   0.473  0.1796  1.0692 -0.0269
11049TIP3    H254639   5.656  -0.019   0.407  0.9728 -1.0776  0.6361
11050TIP3   OH254640   6.657   2.249   5.995  0.5056 -0.0957  0.1542
11050TIP3    H154641   6.712   2.254   5.916 -1.3982 -1.3741 -1.2904
11050TIP3    H254642   6.653   2.155   6.015 -0.3470  0.0823  0.8283
11051TIP3   OH254643   0.724   6.198  15.607  0.3751 -0.5597  0.4870
11051TIP3    H154644   0.645   6.217  15.556 -0.1868 -1.2799  1.0776
11051TIP3    H254645   0.784   6.269  15.586  0.4508 -1.2564 -1.8098
11052TIP3   OH254646   4.545   4.576  11.568 -0.6142 -0.3503  0.1548
11052TIP3    H154647   4.536   4.653  11.512  0.7696  1.0185  1.7412
11052TIP3    H254648   4.468   4.580  11.625  0.3984  0.9486  1.4755
11053TIP3   OH254649   1.653   5.436  16.563 -0.2465  0.0237  0.4797
11053TIP3    H154650   1.626   5.345  16.549  2.0778 -0.8794  1.5770
11053TIP3    H254651   1.584   5.488  16.522 -0.5671 -2.2525 -1.9904
11054TIP3   OH254652   2.178   5.924   0.472 -0.6000 -0.2357  0.3522
11054TIP3    H154653   2.133   6.008   0.481 -0.1523  0.0548 -0.0863
11054TIP3    H254654   2.110   5.858   0.486 -1.5979  0.1829 -2.2315
11055TIP3   OH254655   5.554   2.375   5.317  0.6916 -0.1311 -0.6055
11055TIP3    H154656   5.503   2.408   5.391  1.3335  1.9937 -1.0743
11055TIP3    H254657   5.601   2.452   5.284  3.2200 -1.7747 -0.9660
11056TIP3   OH254658   0.955   5.207   4.679 -1.0094  0.1836 -0.3467
11056TIP3    H154659   0.933   5.259   4.756 -2.7805 -2.3688  0.9066
11056TIP3    H254660   0.919   5.257   4.606 -1.5878  1.3387  0.7124
11057TIP3   OH254661   1.900   5.460  14.256  0.1026  0.8387  0.0252
11057TIP3    H154662   1.980   5.432  14.301 -0.3528 -0.1424  0.2351
11057TIP3    H254663   1.931   5.494  14.171  0.6234 -0.9157 -0.5137
11058TIP3   OH254664   2.857   4.057  17.045 -0.1866  0.4440 -0.6264
11058TIP3    H154665   2.793   4.003  16.998 -0.8303 -0.3571  1.1430
11058TIP3    H254666   2.931   3.998  17.059 -1.3867 -0.4225  2.4168
11059TIP3   OH254667   1.379   3.641  15.877 -0.2611 -0.2420 -0.4863
11059TIP3    H154668   1.422   3.667  15.795  0.8712 -0.7051 -0.0532
11059TIP3    H254669   1.446   3.654  15.944 -1.4027  0.7521  0.4626
11060TIP3   OH254670   2.326   1.366   5.618 -0.0630 -0.5107 -0.1716
11060TIP3    H154671   2.251   1.321   5.580 -0.1367  0.1138 -0.7611
11060TIP3    H254672   2.295   1.394   5.704 -0.5485 -0.1230 -0.4747
11061TIP3   OH254673   5.889   4.820   4.592  0.0686  0.8580 -0.3217
11061TIP3    H154674   5.895   4.753   4.660  0.3869  0.5287 -0.6715
11061TIP3    H254675   5.855   4.898   4.637 -1.6067  0.0739 -0.1866
11062TIP3   OH254676   5.209   6.641   5.485 -0.5192  0.4429  0.1243
11062TIP3    H154677   5.150   6.613   5.415 -0.6592  1.2756 -0.0972
11062TIP3    H254678   5.192   6.735   5.495  0.4703  0.6129  0.3289
11063TIP3   OH254679   1.995   5.383   0.943 -0.1815  0.4272 -0.0933
11063TIP3    H154680   2.036   5.457   0.988 -0.8830  1.4143 -1.0200
11063TIP3    H254681   2.055   5.362   0.872 -0.2364  0.4684 -0.1526
11064TIP3   OH254682   1.355   0.207  13.398  0.2621 -0.6165 -0.1711
11064TIP3    H154683   1.331   0.126  13.354 -0.2660 -0.7084  0.2863
11064TIP3    H254684   1.317   0.199  13.486 -1.1879  0.8411 -0.6658
11065TIP3   OH254685   6.309   5.074  11.534 -0.5862 -0.1713  0.0671
11065TIP3    H154686   6.333   4.993  11.578 -0.3301  0.1376  0.5062
11065TIP3    H254687   6.221   5.058  11.501 -0.3283 -0.8129 -0.3137
11066TIP3   OH254688   0.658   4.099   1.981 -0.0230  0.5671  0.3535
11066TIP3    H154689   0.620   4.127   1.898 -0.2313 -0.4334  0.1040
11066TIP3    H254690   0.638   4.170   2.042 -1.5522  0.4244  0.0176
11067TIP3   OH254691   5.832   3.307  12.406 -0.4266 -0.0006  0.2966
11067TIP3    H154692   5.911   3.284  12.455  0.2758  0.0351 -0.8052
11067TIP3    H254693   5.852   3.283  12.315 -1.0495  1.5402 -0.2611
11068TIP3   OH254694   4.606   4.452   0.900  0.1885 -0.3684  0.0389
11068TIP3    H154695   4.668   4.447   0.972 -1.1560  1.4273  1.3648
11068TIP3    H254696   4.521   4.435   0.940 -0.4531 -0.3313 -1.2828
11069TIP3   OH254697   0.674   5.741  13.227  0.3121  0.1115 -0.5051
11069TIP3    H154698   0.607   5.810  13.226  0.4943  0.2912 -0.3230
11069TIP3    H254699   0.651   5.688  13.303  0.5644  0.3573 -0.2584
11070TIP3   OH254700   4.468   6.815  15.688 -0.3021 -0.4205  0.3169
11070TIP3    H154701   4.412   6.862  15.625 -1.1382 -2.3193 -0.3817
11070TIP3    H254702   4.546   6.870  15.695 -2.2937  2.3808  1.4409
11071TIP3   OH254703   3.824   1.250  14.251 -0.2032  0.3519 -0.0709
11071TIP3    H154704   3.789   1.165  14.277 -4.0573  1.0207 -2.6897
11071TIP3    H254705   3.915   1.232  14.226 -0.5909 -2.7427  0.5493
11072TIP3   OH254706   6.284   4.509   1.837 -0.0456  0.1580 -0.0534
11072TIP3    H154707   6.333   4.587   1.811 -0.0302  0.0810 -0.2529
11072TIP3    H254708   6.280   4.515   1.933 -0.2771  0.5436 -0.0838
11073TIP3   OH254709   3.628   0.697  11.751  0.0848 -0.0205 -1.0370
11073TIP3    H154710   3.669   0.783  11.761  0.8053 -0.2736 -1.7216
11073TIP3    H254711   3.565   0.708  11.679 -2.6502  0.9249  1.4034
11074TIP3   OH254712   2.963   3.174   0.372  0.1926  0.4352 -0.0584
11074TIP3    H154713   3.055   3.160   0.350 -0.2181  0.0311 -1.5509
11074TIP3    H254714   2.915   3.146   0.295 -1.0682  3.3004 -0.3742
11075TIP3   OH254715   6.000   4.121  15.970 -0.0541  0.0805 -0.1087
11075TIP3    H154716   5.971   4.034  15.996  0.5994 -0.4159 -1.0374
11075TIP3    H254717   5.997   4.172  16.052  1.5725 -1.3577  0.8792
11076TIP3   OH254718   0.447   0.612  10.867 -0.9076 -0.3225  1.0272
11076TIP3    H154719   0.431   0.553  10.793 -0.5201 -0.3750  0.9831
11076TIP3    H254720   0.542   0.610  10.879 -0.8967  0.2801  1.0403
11077TIP3   OH254721   4.717   6.073  13.996 -0.2219  0.2010  0.2217
11077TIP3    H154722   4.795   6.032  14.036 -0.7997 -1.7951 -0.6271
11077TIP3    H254723   4.692   6.013  13.926 -3.2328  0.2210  1.2352
11078TIP3   OH254724   1.378   0.605   4.336  0.1124  0.6724 -0.2302
11078TIP3    H154725   1.458   0.654   4.355 -0.2211  1.4078 -0.7234
11078TIP3    H254726   1.320   0.668   4.294 -0.0941 -0.2913 -1.4352
11079TIP3   OH254727   6.303   4.859  16.860 -0.4186 -0.7903 -0.2745
11079TIP3    H154728   6.280   4.818  16.943  0.5564 -0.8462 -0.0289
11079TIP3    H254729   6.392   4.891  16.873 -1.3021  1.8449 -0.2771
11080TIP3   OH254730   4.393   2.504   2.859 -0.2950 -0.0528 -0.4353
11080TIP3    H154731   4.438   2.421   2.875 -0.4853 -0.1791 -0.5581
11080TIP3    H254732   4.463   2.569   2.864 -0.1459 -0.2178 -0.3312
11081TIP3   OH254733   0.012   2.576   3.753  0.2202  0.4334 -0.0552
11081TIP3    H154734  -0.073   2.539   3.728 -0.2598  0.4074  1.5708
11081TIP3    H254735   0.055   2.507   3.803 -0.2965  1.7099  2.1966
11082TIP3   OH254736   5.807   2.252   5.812 -0.3962 -0.0015 -0.4326
11082TIP3    H154737   5.753   2.312   5.864 -1.1875 -0.6737 -0.4671
11082TIP3    H254738   5.785   2.273   5.721 -0.3284 -0.0297 -0.4550
11083TIP3   OH254739   1.512   6.499  14.979 -0.2514 -0.1607  0.1032
11083TIP3    H154740   1.562   6.576  14.952  0.9803 -1.1433 -0.4266
11083TIP3    H254741   1.473   6.466  14.898 -0.6005 -0.2243  0.2966
11084TIP3   OH254742   0.471   4.733   0.398 -0.2304 -0.3922 -0.1627
11084TIP3    H154743   0.552   4.775   0.426 -0.6014  0.1643  0.0661
11084TIP3    H254744   0.500   4.648   0.363  0.3314 -0.7079  1.0231
11085TIP3   OH254745   6.412   4.798  11.660  0.2993 -0.0008  0.4240
11085TIP3    H154746   6.355   4.813  11.736 -0.5508 -1.5150  0.1054
11085TIP3    H254747   6.498   4.778  11.697  0.3863  1.2325  0.9280
11086TIP3   OH254748   5.885   6.245   0.051  0.1178  0.4030  0.4869
11086TIP3    H154749   5.810   6.304   0.062  0.9532  1.5227  0.2239
11086TIP3    H254750   5.852   6.175  -0.005 -0.4414  1.4433 -0.5016
11087TIP3   OH254751   5.250   6.042   2.821 -0.0208 -0.1577 -0.1464
11087TIP3    H154752   5.301   6.073   2.897 -1.3862 -0.2607  0.8296
11087TIP3    H254753   5.294   5.961   2.795  1.6123  0.8801 -0.6750
11088TIP3   OH254754   5.435   4.365   1.098 -0.6446 -0.8810  0.1869
11088TIP3    H154755   5.464   4.395   1.184 -1.7107 -0.8464  0.5371
11088TIP3    H254756   5.467   4.275   1.092  1.6299 -0.0888 -0.4254
11089TIP3   OH254757   6.077   5.968  14.440 -0.0319 -0.2283 -0.1252
11089TIP3    H154758   5.988   6.003  14.444  0.6136  1.5002 -0.7023
11089TIP3    H254759   6.122   6.021  14.374  1.1976 -1.6302 -0.4511
11090TIP3   OH254760   6.664   3.501  17.038  0.8115 -0.3762 -0.4485
11090TIP3    H154761   6.646   3.456  16.955  0.8116  0.2277 -0.7820
11090TIP3    H254762   6.701   3.434  17.095 -0.8751 -1.2419 -0.3369
11091TIP3   OH254763   6.416   5.355  16.992 -0.3757  0.9166 -0.3819
11091TIP3    H154764   6.423   5.287  16.924  0.7742  0.4451  0.1892
11091TIP3    H254765   6.342   5.327  17.046 -0.5846  0.6944 -0.7792
11092TIP3   OH254766   4.357   0.012  11.773 -0.6843 -0.1656 -0.0449
11092TIP3    H154767   4.336  -0.039  11.694 -0.5430 -0.3795  0.0526
11092TIP3    H254768   4.411   0.084  11.741 -0.6282 -0.2512 -0.1449
11093TIP3   OH254769   5.540   0.892   2.255  0.1429 -0.5012  0.4287
11093TIP3    H154770   5.564   0.933   2.338  2.0422 -0.9879  0.1552
11093TIP3    H254771   5.448   0.868   2.265 -0.2208  1.2720  1.6233
11094TIP3   OH254772   4.780   6.247  16.490  0.0647 -0.3702  0.1117
11094TIP3    H154773   4.799   6.257  16.396 -3.1245  1.0361 -0.4590
11094TIP3    H254774   4.726   6.323  16.511 -0.5007 -1.4764  2.7579
11095TIP3   OH254775   0.836   0.014   2.805  0.3813  0.0786 -0.3315
11095TIP3    H154776   0.800  -0.053   2.862 -1.4438  0.9224 -0.4377
11095TIP3    H254777   0.817  -0.018   2.716  0.2589  0.3269 -0.3953
11096TIP3   OH254778   0.392   6.702  12.311 -0.5125 -0.8424  0.5729
11096TIP3    H154779   0.329   6.697  12.383 -1.3775  2.7612  0.1622
11096TIP3    H254780   0.342   6.675  12.234 -1.0213  0.0856  0.5665
11097TIP3   OH254781   5.232   1.363  16.747  0.5758 -0.0126 -0.5962
11097TIP3    H154782   5.325   1.367  16.725  0.7256 -1.4100 -0.2715
11097TIP3    H254783   5.189   1.338  16.664  0.8491 -2.5578 -0.0068
11098TIP3   OH254784   1.678   4.955  13.286 -0.3031 -0.1170 -0.6893
11098TIP3    H154785   1.655   4.934  13.195 -0.0394  0.6533 -0.9391
11098TIP3    H254786   1.744   4.890  13.309 -0.5287 -0.4544 -0.9724
11099TIP3   OH254787   4.235   0.294  13.210  0.1182  0.1286 -0.3390
11099TIP3    H154788   4.291   0.337  13.275  0.1396 -0.3296 -0.0570
11099TIP3    H254789   4.166   0.253  13.261 -0.3933  0.5544 -0.6757
11100TIP3   OH254790   6.012   4.691   1.978  0.0248  0.0961  0.3526
11100TIP3    H154791   6.089   4.746   1.965  0.4844 -0.4708  0.6720
11100TIP3    H254792   6.046   4.611   2.017 -0.9396  0.5232  2.0859
11101TIP3   OH254793   3.635   4.068   4.405 -0.0808 -0.0983  0.0902
11101TIP3    H154794   3.621   4.154   4.366  2.1451 -0.4312 -1.5317
11101TIP3    H254795   3.556   4.019   4.385 -0.0432  0.5719 -1.7485
11102TIP3   OH254796   0.118   3.434  15.110  0.0490 -0.4109  0.1040
11102TIP3    H154797   0.094   3.417  15.201  0.6648 -2.0831 -0.0251
11102TIP3    H254798   0.056   3.500  15.081  0.1074  0.4517  1.8611
11103TIP3   OH254799   1.728   3.985  11.423 -0.7177  0.2058 -0.2149
11103TIP3    H154800   1.662   3.923  11.393 -1.1006  0.0349  0.9382
11103TIP3    H254801   1.683   4.069  11.425 -0.6624  0.2355 -0.2039
11104TIP3   OH254802   3.222   1.567  13.282  0.0870  0.1058 -0.6164
11104TIP3    H154803   3.161   1.608  13.220 -0.8257 -1.1465 -0.5703
11104TIP3    H254804   3.254   1.489  13.236 -0.3691 -0.6718  0.3590
11105TIP3   OH254805   6.045   0.676  12.492 -0.0819 -0.3513 -0.0022
11105TIP3    H154806   6.026   0.601  12.437 -1.4562  0.1005 -0.1750
11105TIP3    H254807   5.959   0.715  12.509  0.6079  1.1535  0.1040
11106TIP3   OH254808   5.623   1.825  15.626  0.0779 -0.0344  0.0772
11106TIP3    H154809   5.665   1.754  15.576 -1.6115 -0.0826 -1.3120
11106TIP3    H254810   5.589   1.782  15.705  0.2145 -0.5173 -0.1252
11107TIP3   OH254811   4.538   4.118   0.075  0.2688  0.4419 -0.4174
11107TIP3    H154812   4.592   4.095   0.150 -1.6233 -1.9953  0.2768
11107TIP3    H254813   4.543   4.041   0.017 -0.7240  1.0478 -1.3344
11108TIP3   OH254814   5.912   1.350  16.187 -0.1946  0.0580 -0.0836
11108TIP3    H154815   5.893   1.273  16.135  1.2242 -1.6575  1.8098
11108TIP3    H254816   5.878   1.329  16.274  1.8368  0.7704  0.9215
11109TIP3   OH254817   3.625   3.348  15.181 -0.4650  0.1474  0.5275
11109TIP3    H154818   3.702   3.293  15.194 -1.0400 -0.3802  1.8558
11109TIP3    H254819   3.551   3.288  15.192 -1.0693  0.6194 -0.8545
11110TIP3   OH254820   3.110   4.977   5.854 -0.5928  0.0449  0.2786
11110TIP3    H154821   3.169   5.029   5.907 -0.5459  2.4241 -1.9955
11110TIP3    H254822   3.024   4.991   5.892 -0.2781 -0.0030  1.0072
11111TIP3   OH254823   2.017   3.534  16.072  0.4256 -0.5067  0.1344
11111TIP3    H154824   2.009   3.589  15.994  1.0186 -1.3483 -0.5260
11111TIP3    H254825   1.947   3.565  16.130 -1.9724 -1.8391 -1.9159
11112TIP3   OH254826   0.331   0.790   3.103  0.3287  0.3169 -0.1338
11112TIP3    H154827   0.273   0.718   3.079 -0.0699  0.1939  1.1115
11112TIP3    H254828   0.359   0.769   3.192  0.9334  1.2324 -0.0989
11113TIP3   OH254829   1.112   3.207   1.113  0.2315  0.2522  0.3949
11113TIP3    H154830   1.103   3.301   1.127 -0.0633  0.3089 -0.1401
11113TIP3    H254831   1.071   3.168   1.191  0.8833  0.5645  0.8989
11114TIP3   OH254832   4.781   2.502  14.755 -0.6707  0.1483 -0.0036
11114TIP3    H154833   4.697   2.542  14.730 -1.6286 -1.0203  1.2729
11114TIP3    H254834   4.811   2.554  14.829  0.9794  2.0917 -1.9446
11115TIP3   OH254835   2.394   1.962  17.096 -0.2067  0.5871  0.1152
11115TIP3    H154836   2.411   1.870  17.118  1.1464  0.2747 -2.1098
11115TIP3    H254837   2.405   1.966  17.002 -0.1895  3.0818  0.2025
11116TIP3   OH254838   1.811   2.446   5.292  0.1183 -0.4826 -0.4538
11116TIP3    H154839   1.904   2.448   5.271  0.5960 -2.5555  1.2844
11116TIP3    H254840   1.783   2.357   5.269 -1.2245 -0.1842 -0.0425
11117TIP3   OH254841   4.005   3.794  12.201 -0.4774  0.1470 -0.1056
11117TIP3    H154842   3.999   3.803  12.296 -1.4501 -0.4777 -0.0980
11117TIP3    H254843   4.097   3.775  12.184 -0.4197 -0.4090  0.7791
11118TIP3   OH254844   3.648   4.868  17.148 -0.1779  0.1107  1.0395
11118TIP3    H154845   3.613   4.912  17.225  2.1034  2.1303  0.9884
11118TIP3    H254846   3.644   4.935  17.079  0.4796 -0.7494  0.1535
11119TIP3   OH254847   5.516   1.619  16.074 -0.0537  0.4094 -0.0951
11119TIP3    H154848   5.560   1.541  16.042 -1.6075 -0.7304  0.4806
11119TIP3    H254849   5.423   1.599  16.066 -0.4666  2.3184 -0.2179
11120TIP3   OH254850   2.845   4.807  12.390  0.7347 -0.0963  0.1282
11120TIP3    H154851   2.825   4.743  12.458  3.0941 -0.9832  0.0215
11120TIP3    H254852   2.910   4.865  12.430  1.0535  0.2490 -0.8768
11121TIP3   OH254853   2.504   3.178   1.037 -0.2148  0.4746  0.5542
11121TIP3    H154854   2.540   3.091   1.023 -0.3125  0.4943  0.1851
11121TIP3    H254855   2.415   3.174   1.002 -0.8225  0.2258  2.0747
11122TIP3   OH254856   1.048   1.967   2.820 -0.2909  0.2865  0.4402
11122TIP3    H154857   1.091   1.883   2.836  0.9912  0.5315 -1.5839
11122TIP3    H254858   1.047   2.010   2.906  3.5780  0.2751  0.5853
11123TIP3   OH254859   4.590   3.561  14.122 -0.1229 -0.1341  0.5672
11123TIP3    H154860   4.675   3.594  14.095 -0.9099  1.6684  0.2046
11123TIP3    H254861   4.594   3.467  14.107  1.5237  0.0488 -0.1698
11124TIP3   OH254862   3.575   1.756   4.284 -0.4345  0.4575  0.4249
11124TIP3    H154863   3.541   1.727   4.368 -0.7328  1.3438  0.6195
11124TIP3    H254864   3.549   1.688   4.222 -3.1729  1.4333  0.4392
11125TIP3   OH254865   6.640   1.840   0.216  0.1653 -0.2468  0.0584
11125TIP3    H154866   6.617   1.799   0.133 -2.3360  0.0507  0.5672
11125TIP3    H254867   6.604   1.929   0.209  0.3945 -0.0577  1.2543
11126TIP3   OH254868   2.955   1.459   0.603 -0.0126  0.1255  0.0875
11126TIP3    H154869   2.946   1.509   0.684 -0.9930  0.5722 -0.2907
11126TIP3    H254870   2.866   1.431   0.582  0.5130 -1.7039  0.2412
11127TIP3   OH254871   1.725   3.579   1.559 -0.1717 -0.0455  0.2129
11127TIP3    H154872   1.796   3.548   1.616 -0.1883 -0.7848 -0.1664
11127TIP3    H254873   1.742   3.539   1.474 -1.0970 -0.3268  0.1437
11128TIP3   OH254874   0.557   0.361   2.528 -0.1465 -0.0726  0.2968
11128TIP3    H154875   0.638   0.400   2.560  0.9273 -0.6300 -1.7061
11128TIP3    H254876   0.498   0.435   2.515  0.5037  0.4649  0.3993
11129TIP3   OH254877   4.992   4.257   1.869  0.2646 -0.0556  0.0544
11129TIP3    H154878   4.942   4.190   1.916  0.8517  0.6758  1.7868
11129TIP3    H254879   5.083   4.228   1.875  0.3528  0.0863 -0.5638
11130TIP3   OH254880   5.846   4.311  14.708 -0.0355 -0.1416 -0.5960
11130TIP3    H154881   5.908   4.381  14.691 -0.7805  0.4796 -0.7465
11130TIP3    H254882   5.760   4.352  14.700 -0.4609 -0.9035  0.0141
11131TIP3   OH254883   2.538   1.278   1.902 -0.2438 -0.4083  0.7599
11131TIP3    H154884   2.495   1.260   1.986 -3.5173  0.7261 -0.5817
11131TIP3    H254885   2.535   1.194   1.855  0.7124 -0.7975  1.3802
11132TIP3   OH254886   0.280   6.419   0.651  0.1015  0.1365 -0.0499
11132TIP3    H154887   0.299   6.453   0.738  0.5565 -0.2034 -0.0166
11132TIP3    H254888   0.290   6.495   0.593 -0.2278  0.3689  0.1949
11133TIP3   OH254889   1.596   5.880   5.232 -0.5089 -0.2412 -0.4719
11133TIP3    H154890   1.539   5.803   5.228 -0.4624 -0.1878 -2.5389
11133TIP3    H254891   1.573   5.922   5.315 -1.2946 -1.8966  0.1714
11134TIP3   OH254892   5.259   2.417   2.496 -0.5592 -0.3172  0.1896
11134TIP3    H154893   5.219   2.372   2.422  0.4093  0.8675 -1.0994
11134TIP3    H254894   5.305   2.492   2.456  0.3225  0.1036  1.9383
11135TIP3   OH254895   2.887   5.184   0.702  0.5039  0.0300  0.3912
11135TIP3    H154896   2.960   5.243   0.684  0.8639  0.0028  1.6666
11135TIP3    H254897   2.809   5.233   0.676  0.8931  0.5246  0.1462
11136TIP3   OH254898   4.663   5.069   0.247  0.1301  0.4812 -0.0293
11136TIP3    H154899   4.738   5.125   0.267  1.4146 -0.9360 -0.7240
11136TIP3    H254900   4.698   4.980   0.256 -1.1499 -0.1845 -1.5812
11137TIP3   OH254901   5.254   3.123   2.200  0.8372 -0.1971 -0.4317
11137TIP3    H154902   5.273   3.193   2.137  1.1762  0.9999  0.9596
11137TIP3    H254903   5.340   3.089   2.225  0.6409 -1.5302 -1.5583
11138TIP3   OH254904   3.760   5.132   4.079  0.1411  0.1100 -0.4719
11138TIP3    H154905   3.842   5.105   4.038  0.4538 -0.5523  0.6050
11138TIP3    H254906   3.784   5.159   4.167 -0.8195 -0.2422 -0.0919
11139TIP3   OH254907   1.015   5.557   4.802  0.0462 -0.1162 -0.2927
11139TIP3    H154908   0.987   5.477   4.847  2.1773 -1.7681 -1.7967
11139TIP3    H254909   0.934   5.605   4.786 -1.0025 -0.4432  3.3948
11140TIP3   OH254910   2.937   2.538   2.702  0.3302  0.4398  0.3246
11140TIP3    H154911   2.875   2.555   2.631  1.4692 -2.6764 -1.5396
11140TIP3    H254912   2.884   2.502   2.772 -0.2340 -0.8576 -0.7372
11141TIP3   OH254913   6.095   5.381  12.130 -0.5710  0.2988 -0.7818
11141TIP3    H154914   6.179   5.385  12.083 -0.4563 -0.1537 -0.6181
11141TIP3    H254915   6.111   5.429  12.211 -1.2546  2.5152 -1.9257
11142TIP3   OH254916   0.968   0.705   4.908  0.5895 -0.2173  0.5103
11142TIP3    H154917   0.900   0.735   4.847  0.6438 -0.7820  0.1653
11142TIP3    H254918   0.947   0.613   4.924  0.6553 -0.1061  1.2474
11143TIP3   OH254919   0.664   1.222   4.133 -0.9674 -0.1505 -0.2585
11143TIP3    H154920   0.695   1.216   4.043  1.1131 -0.8586  0.4828
11143TIP3    H254921   0.714   1.294   4.171 -0.4290 -1.1105  0.8669
11144TIP3   OH254922   5.721   5.435   6.399  0.2362 -0.8677 -0.2824
11144TIP3    H154923   5.633   5.449   6.431  0.4146 -2.0291  0.7462
11144TIP3    H254924   5.750   5.353   6.441  1.2537 -1.2787 -1.7233
11145TIP3   OH254925   3.087   0.704   6.215 -0.3332 -0.2528  0.0547
11145TIP3    H154926   3.150   0.649   6.169 -1.2191 -0.1374 -1.3371
11145TIP3    H254927   3.133   0.786   6.231 -0.0802 -0.2242 -0.8124
11146TIP3   OH254928   0.080   0.949  12.650  0.9535 -0.2661  0.5732
11146TIP3    H154929   0.120   0.979  12.568 -0.4438 -1.1751 -0.4466
11146TIP3    H254930   0.115   0.861  12.662  1.6323  0.0911  1.2949
11147TIP3   OH254931   0.407   0.820  16.100  0.5452  0.0553  0.2292
11147TIP3    H154932   0.372   0.770  16.174  1.4819 -1.0296 -0.0413
11147TIP3    H254933   0.493   0.781  16.083  0.1255 -0.0939 -1.7651
11148TIP3   OH254934   4.556   1.404  13.011  0.7514  0.5199  0.2125
11148TIP3    H154935   4.540   1.350  12.933 -0.0324  0.7788  0.1948
11148TIP3    H254936   4.476   1.455  13.022  1.0227  0.7887  0.9480
11149TIP3   OH254937   4.966   3.756   3.709  0.3420  0.3519  0.2280
11149TIP3    H154938   5.042   3.806   3.739  0.4236 -0.3752  1.2607
11149TIP3    H254939   4.896   3.781   3.769  0.1076  0.0365  0.0882
11150TIP3   OH254940   5.433   3.231  15.701  0.0678  0.4215  0.0210
11150TIP3    H154941   5.471   3.146  15.679  0.5916  0.8434 -0.7061
11150TIP3    H254942   5.374   3.212  15.774  0.3680 -0.5255  0.0281
11151TIP3   OH254943   1.907   3.151   5.252  0.2009  0.2569 -0.0576
11151TIP3    H154944   1.906   3.058   5.231 -0.0486  0.1209  0.5500
11151TIP3    H254945   1.997   3.168   5.281  0.3652  0.3014 -0.5947
11152TIP3   OH254946   2.098   4.131   2.287  0.4393  0.0098  0.8874
11152TIP3    H154947   2.093   4.220   2.322  0.1582  0.4766 -0.2896
11152TIP3    H254948   2.132   4.143   2.198  0.6342 -1.0854  0.8105
11153TIP3   OH254949   1.360   2.417  16.786 -0.5000 -0.1638 -0.1100
11153TIP3    H154950   1.398   2.432  16.872 -2.1747 -0.3483  0.6819
11153TIP3    H254951   1.269   2.393  16.804 -1.5670  2.2228 -2.0599
11154TIP3   OH254952   6.058   2.103  12.872 -0.2290 -0.0068  0.5031
11154TIP3    H154953   5.969   2.117  12.841 -0.6378  0.6744  1.9733
11154TIP3    H254954   6.060   2.012  12.900 -0.0977 -0.3790 -0.6619
11155TIP3   OH254955   1.618   1.855   4.088 -0.6047  1.0109 -0.0248
11155TIP3    H154956   1.688   1.802   4.128  0.5039  1.3336 -1.4669
11155TIP3    H254957   1.570   1.792   4.034 -0.2749  1.1575 -0.4892
11156TIP3   OH254958   5.322   0.232  12.910 -0.4290  0.0210 -0.1725
11156TIP3    H154959   5.324   0.210  13.003 -3.4863 -1.6878 -0.4358
11156TIP3    H254960   5.289   0.322  12.908 -1.1423 -0.2214  0.3755
11157TIP3   OH254961   4.332   0.425   5.244  0.0092  0.7587  0.1197
11157TIP3    H154962   4.256   0.380   5.280 -0.2820  0.0095 -1.4061
11157TIP3    H254963   4.326   0.411   5.149  1.7409  1.1486 -0.0689
11158TIP3   OH254964   6.311   3.627  16.523 -0.0236 -0.1667 -0.1004
11158TIP3    H154965   6.393   3.672  16.544  0.2215 -0.8764  0.4973
11158TIP3    H254966   6.243   3.683  16.561  0.0571  1.2510 -1.9844
11159TIP3   OH254967   6.130   5.516   1.074 -0.1853 -0.8379  0.0127
11159TIP3    H154968   6.130   5.428   1.111  0.7399 -0.5031  0.8416
11159TIP3    H254969   6.114   5.574   1.148  1.3818 -0.1747 -0.1303
11160TIP3   OH254970   5.306   0.200  12.535 -0.0824 -0.5167  0.1351
11160TIP3    H154971   5.391   0.197  12.580  0.0122 -0.7756 -0.0553
11160TIP3    H254972   5.308   0.283  12.486  0.6893 -1.2268 -1.0717
11161TIP3   OH254973   6.158   4.041  16.471  0.3602 -0.1586  0.1797
11161TIP3    H154974   6.105   3.965  16.447  0.6885 -0.7578  1.3241
11161TIP3    H254975   6.227   4.006  16.528 -0.4827  1.2327  2.1236
11162TIP3   OH254976   5.928   2.467   3.904 -0.4318  0.0965 -0.8105
11162TIP3    H154977   6.006   2.500   3.859 -0.3664 -0.8014 -1.3685
11162TIP3    H254978   5.960   2.439   3.990  0.0785 -1.2242 -1.4063
11163TIP3   OH254979   6.408   6.595   4.792 -0.6785  0.2684  0.0506
11163TIP3    H154980   6.427   6.663   4.856  3.0122 -0.9686  0.3889
11163TIP3    H254981   6.352   6.533   4.839  0.2445  0.4518  1.4155
11164TIP3   OH254982   6.608   6.736   4.639 -0.0018 -0.5029 -0.6652
11164TIP3    H154983   6.553   6.795   4.587  0.7228  2.5804  1.9047
11164TIP3    H254984   6.552   6.711   4.713  0.8866 -0.1697  0.1217
11165TIP3   OH254985   5.545   5.832  15.784 -0.0364  0.3872  0.8689
11165TIP3    H154986   5.491   5.788  15.850  1.1710 -1.2998  0.7625
11165TIP3    H254987   5.580   5.909  15.830 -0.7967  0.3035  1.6007
11166TIP3   OH254988   2.442   3.399   5.192  0.2621  0.0972  1.3023
11166TIP3    H154989   2.504   3.388   5.265 -1.0392 -2.6394  2.0692
11166TIP3    H254990   2.491   3.372   5.115 -0.2920 -3.2787  2.0724
11167TIP3   OH254991   1.867   1.099   1.702  0.0297 -0.2553 -0.6945
11167TIP3    H154992   1.812   1.154   1.646  1.6539 -0.1572 -2.2376
11167TIP3    H254993   1.857   1.136   1.789 -1.7291  0.2321 -1.0689
11168TIP3   OH254994   1.941   2.282   1.289  0.1041  0.7062 -0.8256
11168TIP3    H154995   1.870   2.340   1.262 -0.1300  1.4541  1.3471
11168TIP3    H254996   2.002   2.283   1.215 -0.5654  2.6005 -1.3768
11169TIP3   OH254997   2.374   3.563  15.423  0.6318  0.4477  0.1920
11169TIP3    H154998   2.429   3.493  15.458 -0.2516 -0.4313 -0.1457
11169TIP3    H254999   2.287   3.523  15.414  0.1594  1.5309 -0.1951
11170TIP3   OH255000   6.364   0.271  13.393 -0.4049 -0.3996 -0.4630
11170TIP3    H155001   6.323   0.269  13.307  0.4074  1.7314 -0.9467
11170TIP3    H255002   6.440   0.213  13.385  0.1724  0.4756 -1.4726
11171TIP3   OH255003   0.805   1.029  16.976  0.1240 -0.4121 -0.0270
11171TIP3    H155004   0.849   1.022  17.060  1.6299 -1.5526 -0.8865
11171TIP3    H255005   0.874   1.015  16.911 -1.6831 -3.4253 -1.3941
11172TIP3   OH255006   1.621   4.990  15.746 -0.7867 -0.5503 -0.8275
11172TIP3    H155007   1.640   4.896  15.739 -0.9823 -0.7112  0.7222
11172TIP3    H255008   1.548   5.004  15.687 -1.3769 -1.5656 -0.3516
11173TIP3   OH255009   4.394   4.806  15.054  0.3303  0.1552  0.2422
11173TIP3    H155010   4.441   4.888  15.038 -1.5660  1.4425  1.0560
11173TIP3    H255011   4.392   4.798  15.150  1.3346 -1.3713  0.1672
11174TIP3   OH255012   3.576   6.618  11.272  0.2225  0.4501  1.0650
11174TIP3    H155013   3.637   6.569  11.216 -1.3834 -0.7202  0.3066
11174TIP3    H255014   3.612   6.707  11.274  0.4813  0.4280 -1.5597
11175TIP3   OH255015   3.082   5.902   1.367 -0.2029  0.0444 -0.2178
11175TIP3    H155016   3.114   5.877   1.453 -0.1987  0.0045 -0.2310
11175TIP3    H255017   3.046   5.821   1.330  0.6742 -0.1528 -0.6433
11176TIP3   OH255018   4.745   0.304   1.451  0.4587  0.7927  0.8607
11176TIP3    H155019   4.701   0.387   1.470  2.0783  1.9922 -0.4261
11176TIP3    H255020   4.702   0.240   1.507 -3.5034  1.7356 -0.9834
11177TIP3   OH255021   6.584   3.829   2.920 -0.3411  0.7312  0.0445
11177TIP3    H155022   6.497   3.839   2.958 -0.6059 -1.4683  0.0539
11177TIP3    H255023   6.628   3.764   2.975  0.1927 -0.5085 -1.8032
11178TIP3   OH255024   5.043   0.651   4.034 -0.7791  0.2428 -0.4493
11178TIP3    H155025   5.092   0.574   4.063  0.8342  1.7600  0.9763
11178TIP3    H255026   5.045   0.710   4.109 -1.5041  1.9076 -1.7079
11179TIP3   OH255027   0.288   2.878   5.930 -0.3837  0.0307 -0.3751
11179TIP3    H155028   0.217   2.826   5.891  0.4556 -0.3087 -1.4842
11179TIP3    H255029   0.327   2.924   5.856  1.7072 -1.1791 -0.0509
11180TIP3   OH255030   5.073   3.737  12.318 -0.1473 -0.0305 -0.4016
11180TIP3    H155031   5.167   3.732  12.338  0.0890  2.5555 -0.7354
11180TIP3    H255032   5.064   3.690  12.235  1.3576  2.1621 -1.8589
11181TIP3   OH255033   6.144   4.060  11.055 -0.1967 -0.1296 -0.6903
11181TIP3    H155034   6.055   4.072  11.021  0.0300  0.8744 -0.9462
11181TIP3    H255035   6.156   4.133  11.116  1.0323  0.6697 -1.8755
11182TIP3   OH255036   4.683   3.813  11.755 -0.1153 -0.1393 -0.5556
11182TIP3    H155037   4.738   3.830  11.832 -0.7355 -1.0469  0.0906
11182TIP3    H255038   4.628   3.891  11.748  0.5586  0.3396 -0.6133
11183TIP3   OH255039   1.442   0.944   1.181  0.1526 -0.2822  0.2074
11183TIP3    H155040   1.511   0.890   1.141  1.4911 -0.6455  2.9358
11183TIP3    H255041   1.485   0.988   1.254 -2.3712 -0.0274  1.5880
11184TIP3   OH255042   1.115   1.268   2.271  0.3707  0.3740  0.5223
11184TIP3    H155043   1.038   1.242   2.322 -0.7062  0.7037 -0.9001
11184TIP3    H255044   1.085   1.265   2.180  1.9902  0.7152 -0.0339
11185TIP3   OH255045   0.353   2.726   2.077  0.3986 -0.7288 -0.2316
11185TIP3    H155046   0.445   2.733   2.050  0.8282 -1.9423  0.8468
11185TIP3    H255047   0.344   2.635   2.107 -1.2289 -0.6908 -0.5907
11186TIP3   OH255048   5.277   0.412  15.017 -0.1310  0.8740 -0.7533
11186TIP3    H155049   5.255   0.499  15.049 -1.3731  0.2566  0.1242
11186TIP3    H255050   5.198   0.383  14.971  1.0566  1.0869 -2.9895
11187TIP3   OH255051   3.377   6.671  13.632  0.2210 -0.5662 -0.2245
11187TIP3    H155052   3.329   6.591  13.613 -0.2483 -0.5787  0.9522
11187TIP3    H255053   3.410   6.701  13.547 -1.2780 -0.9376 -0.9478
11188TIP3   OH255054   1.653   5.581   3.595  0.2152  0.0380  0.4462
11188TIP3    H155055   1.574   5.573   3.649 -0.7943  1.3288 -0.8328
11188TIP3    H255056   1.720   5.613   3.656 -0.2695 -0.8557  1.4831
11189TIP3   OH255057   0.960   0.122  15.341  0.0976  0.3515  0.0307
11189TIP3    H155058   0.924   0.150  15.425  0.3805  3.0624 -0.7041
11189TIP3    H255059   1.040   0.075  15.364  0.0235  0.8167  1.2826
11190TIP3   OH255060   1.518   6.506   6.407  0.3177  1.1664 -0.0731
11190TIP3    H155061   1.435   6.504   6.454 -0.0754 -1.1832 -0.7696
11190TIP3    H255062   1.570   6.437   6.448  0.0636 -0.7444 -2.8282
11191TIP3   OH255063   5.844   2.086   5.443 -0.2829  0.8194 -0.4067
11191TIP3    H155064   5.927   2.128   5.466 -0.2208  1.5530 -1.8734
11191TIP3    H255065   5.861   1.993   5.450  0.5469  0.9762 -0.2887
11192TIP3   OH255066   0.522   1.021   4.271  0.2484 -0.1190 -0.3134
11192TIP3    H155067   0.588   1.073   4.225  1.8068 -1.1177  0.7621
11192TIP3    H255068   0.512   0.942   4.218 -1.8645  1.0831 -1.7604
11193TIP3   OH255069   1.496   6.820   5.132  0.2758 -0.0582  0.4087
11193TIP3    H155070   1.591   6.825   5.143  0.1288  1.0194  1.3150
11193TIP3    H255071   1.467   6.911   5.132 -0.7824 -0.3846  0.3918
11194TIP3   OH255072   6.733   2.215   3.588  0.0322 -0.2546 -0.1131
11194TIP3    H155073   6.733   2.310   3.586  0.2465 -0.2673 -0.6832
11194TIP3    H255074   6.700   2.188   3.503 -0.4601 -0.6896  0.2098
11195TIP3   OH255075   3.619   0.745  12.824 -0.1593  0.3503 -0.6369
11195TIP3    H155076   3.710   0.771  12.812  0.2534 -0.4317  0.6226
11195TIP3    H255077   3.616   0.707  12.912 -1.3909 -0.9181 -1.1885
11196TIP3   OH255078   3.236   4.240   3.758  0.0375  0.1983 -0.6985
11196TIP3    H155079   3.245   4.336   3.756 -0.1275  0.2108 -0.9910
11196TIP3    H255080   3.210   4.217   3.669 -0.0096 -0.1113 -0.6054
11197TIP3   OH255081   3.154   6.724   0.615  0.2981  0.3052 -0.1358
11197TIP3    H155082   3.067   6.765   0.609 -0.1767 -0.9028 -1.7117
11197TIP3    H255083   3.185   6.749   0.702 -1.1133  1.7632 -0.0075
11198TIP3   OH255084   4.654   0.778  12.809  0.1191 -0.1695 -0.4778
11198TIP3    H155085   4.735   0.729  12.817 -0.3590 -1.0317 -0.8365
11198TIP3    H255086   4.681   0.870  12.808  0.9765 -0.4106  0.6516
11199TIP3   OH255087   6.017   1.991  16.569 -0.1335 -0.0276 -0.8022
11199TIP3    H155088   6.045   1.969  16.658 -1.2067 -2.0922 -0.9549
11199TIP3    H255089   6.099   2.000  16.520  0.4657  1.1541  0.3702
11200TIP3   OH255090   3.314   5.163  15.094  0.2658 -0.7768 -0.6159
11200TIP3    H155091   3.260   5.155  15.172 -1.0011  0.4019 -1.3301
11200TIP3    H255092   3.267   5.227  15.039  1.1506 -1.5326 -2.2966
11201TIP3   OH255093   0.104   6.591  14.471  0.2420 -0.1427  0.4781
11201TIP3    H155094   0.116   6.685  14.488 -1.1340  0.0030  0.7250
11201TIP3    H255095   0.188   6.562  14.436  0.5632  1.2664  0.0338
11202TIP3   OH255096   2.135   5.132  11.119 -0.3872 -0.2859  0.1952
11202TIP3    H155097   2.218   5.087  11.105 -0.2388  0.2979 -0.8296
11202TIP3    H255098   2.113   5.169  11.034 -1.6497 -0.3459  0.4851
11203TIP3   OH255099   4.189   2.051   2.593  0.6276 -0.0711  0.1072
11203TIP3    H155100   4.219   2.014   2.510 -0.4633 -1.5302  0.3338
11203TIP3    H255101   4.101   2.014   2.605  0.5832  0.4993  1.6709
11204TIP3   OH255102   3.367   2.188  11.282  0.1716  0.8038  0.1118
11204TIP3    H155103   3.426   2.220  11.350  0.3363 -0.5852  0.6446
11204TIP3    H255104   3.419   2.125  11.232 -0.0870  1.4820 -1.0174
11205TIP3   OH255105   5.521   1.174   0.515 -0.0854  0.1421 -0.6480
11205TIP3    H155106   5.591   1.126   0.470  0.1103  1.4453 -1.7499
11205TIP3    H255107   5.441   1.126   0.494  0.1303  0.1931 -1.5929
11206TIP3   OH255108   1.788   5.128   2.001 -0.0521  0.1703 -0.3470
11206TIP3    H155109   1.696   5.152   2.002 -0.0687  0.1020 -0.0817
11206TIP3    H255110   1.810   5.119   1.909 -0.2675  0.3531 -0.4162
11207TIP3   OH255111   6.194   1.052   1.847  0.2627 -0.1527  0.5075
11207TIP3    H155112   6.289   1.064   1.847  0.0094  1.9358  0.2386
11207TIP3    H255113   6.180   0.975   1.792  1.7320  0.1509 -0.3137
11208TIP3   OH255114   2.005   2.467  17.172  0.2431 -0.4101 -0.0493
11208TIP3    H155115   1.969   2.424  17.250  0.0943  1.1733  0.7753
11208TIP3    H255116   1.970   2.556  17.176  1.9804  0.3122 -0.7691
11209TIP3   OH255117   2.471   5.250   5.462  0.8265 -0.0443  0.6367
11209TIP3    H155118   2.484   5.156   5.461 -1.2015 -0.3610  0.1374
11209TIP3    H255119   2.556   5.287   5.440  1.8124 -1.7244  1.5223
11210TIP3   OH255120   6.026   0.798  16.101  0.8171 -0.3283  0.3341
11210TIP3    H155121   6.096   0.734  16.108  2.5640  1.4006 -0.6204
11210TIP3    H255122   5.989   0.784  16.014  0.1703 -1.0458  0.7240
11211TIP3   OH255123   5.304   5.407   4.519 -0.0472 -0.0257  0.8376
11211TIP3    H155124   5.327   5.475   4.583 -0.0834 -0.9571  1.8529
11211TIP3    H255125   5.218   5.434   4.486  1.0441  1.7595 -0.6302
11212TIP3   OH255126   4.182   4.426  13.284  0.0920 -0.5539  0.8751
11212TIP3    H155127   4.089   4.412  13.300  0.1375 -1.0162  0.7286
11212TIP3    H255128   4.209   4.352  13.230  0.4401 -0.1747  0.5262
11213TIP3   OH255129   2.519   2.574  12.794  0.3516  0.1054  0.4469
11213TIP3    H155130   2.435   2.563  12.838  0.2947 -1.8408 -0.0882
11213TIP3    H255131   2.511   2.521  12.714  1.7303  0.7083 -0.1030
11214TIP3   OH255132   3.284   3.691   2.444 -0.3208 -0.1666  0.1683
11214TIP3    H155133   3.236   3.714   2.365  0.2295 -0.2579 -0.1952
11214TIP3    H255134   3.374   3.717   2.426 -0.5196  1.5115  1.4516
11215TIP3   OH255135   2.889   0.648  14.827  0.5077 -0.1200 -0.3190
11215TIP3    H155136   2.830   0.626  14.754  1.2854 -1.1399 -0.6673
11215TIP3    H255137   2.855   0.598  14.901  0.6038 -0.2757 -0.3785
11216TIP3   OH255138   5.381   2.511  14.294 -0.0635 -0.3501 -0.3465
11216TIP3    H155139   5.379   2.480  14.385 -1.1024 -0.0433 -0.2620
11216TIP3    H255140   5.306   2.468  14.253 -0.5477  0.7760 -0.6407
11217TIP3   OH255141   5.581   4.508  11.298 -0.0764 -0.3871  0.4211
11217TIP3    H155142   5.503   4.559  11.275  1.2413  1.5388  0.1413
11217TIP3    H255143   5.583   4.510  11.394 -0.8595 -1.1995  0.4570
11218TIP3   OH255144   4.328   0.869   0.595 -0.8242 -0.1261 -0.2763
11218TIP3    H155145   4.292   0.949   0.557  0.3044 -0.0533 -1.2190
11218TIP3    H255146   4.257   0.805   0.589 -1.5978  0.6840  0.1277
11219TIP3   OH255147   5.675   5.458  12.300 -0.0098 -0.7706  0.7775
11219TIP3    H155148   5.668   5.462  12.395  0.4950 -0.1077  0.7958
11219TIP3    H255149   5.599   5.407  12.271 -1.2449  0.6969  1.3926
11220TIP3   OH255150   1.349   1.103  11.799  0.3269 -0.0497 -0.3614
11220TIP3    H155151   1.331   1.135  11.710  0.5158 -1.3942 -0.9078
11220TIP3    H255152   1.439   1.071  11.794  0.2174 -0.4473  0.2167
11221TIP3   OH255153   5.343   3.038  17.081  0.1222 -0.0840 -0.0010
11221TIP3    H155154   5.408   2.980  17.042 -1.4549 -0.6719 -1.8503
11221TIP3    H255155   5.271   2.980  17.106 -0.9608  0.9068 -0.7513
11222TIP3   OH255156   5.165   0.409   0.305  0.1814  0.1524 -0.3227
11222TIP3    H155157   5.131   0.464   0.376 -1.3957 -0.7075 -0.3818
11222TIP3    H255158   5.238   0.362   0.344 -1.9549 -1.8764  1.4051
11223TIP3   OH255159   2.570   6.515  16.983 -0.3200 -0.3616 -0.1023
11223TIP3    H155160   2.657   6.502  16.947  0.5698  1.5542  1.2953
11223TIP3    H255161   2.557   6.441  17.042  1.3252  0.5723  1.4705
11224TIP3   OH255162   4.496   3.951  16.010  0.1779 -0.1874  0.4779
11224TIP3    H155163   4.462   3.885  15.950 -0.5256  1.7694 -1.3704
11224TIP3    H255164   4.418   3.985  16.054  0.3084  0.7054  0.0276
11225TIP3   OH255165   5.724   2.297   2.056  0.1782 -1.0582 -0.1040
11225TIP3    H155166   5.742   2.249   2.137  1.3273 -2.8584 -1.3989
11225TIP3    H255167   5.639   2.339   2.072  1.1859  0.0350  2.6696
11226TIP3   OH255168   0.635   0.380  15.385 -0.6696  0.0083  0.4673
11226TIP3    H155169   0.605   0.466  15.354 -0.1787 -0.0471 -0.1722
11226TIP3    H255170   0.714   0.399  15.436  0.0576 -0.1680 -0.5845
11227TIP3   OH255171   6.561   3.467   5.968 -0.4355  0.5725 -0.1297
11227TIP3    H155172   6.570   3.401   5.899 -0.8634  0.8187 -0.4268
11227TIP3    H255173   6.593   3.424   6.047 -3.5274 -1.0593  0.3088
11228TIP3   OH255174   0.904   2.031   0.447  0.0156  0.1038  0.0078
11228TIP3    H155175   0.986   2.061   0.487 -0.2485  1.2097 -0.2682
11228TIP3    H255176   0.876   1.958   0.503 -0.2276  1.4702  1.7203
11229TIP3   OH255177   1.245   1.225  12.107  0.0533 -0.3743 -0.2614
11229TIP3    H155178   1.293   1.301  12.073 -1.2790  0.5933 -0.0128
11229TIP3    H255179   1.275   1.217  12.198  0.2496 -0.1930 -0.3091
11230TIP3   OH255180   5.168   0.274   4.877  0.5107  0.2465  0.6010
11230TIP3    H155181   5.139   0.273   4.968 -1.5422  0.5122 -0.0148
11230TIP3    H255182   5.154   0.365   4.848 -1.2761 -0.4143 -0.6937
11231TIP3   OH255183   4.042   5.015   3.008  0.1479  0.2772 -0.1353
11231TIP3    H155184   4.021   5.046   2.920  0.0427 -1.1795 -0.6492
11231TIP3    H255185   4.049   4.920   2.998 -0.7851  0.0079  1.6322
11232TIP3   OH255186   6.151   2.038  11.263  0.8170  0.1965 -0.3992
11232TIP3    H155187   6.180   1.949  11.284  0.4709  0.4973  1.4774
11232TIP3    H255188   6.194   2.058  11.180  0.3928 -1.9515 -1.1666
11233TIP3   OH255189   2.802   1.201   0.430  0.1137 -0.0168  0.0512
11233TIP3    H155190   2.817   1.295   0.441 -0.0687 -0.2041  2.1215
11233TIP3    H255191   2.730   1.196   0.366  0.6244  1.2091 -0.6416
11234TIP3   OH255192   5.580   1.666   2.939  0.2065  0.0705 -0.0038
11234TIP3    H155193   5.649   1.678   3.004 -2.0435 -0.6100  2.6420
11234TIP3    H255194   5.614   1.706   2.859  2.4785  2.3086  2.0092
11235TIP3   OH255195   3.540   3.429  16.152  0.3925  0.5383 -0.9573
11235TIP3    H155196   3.465   3.444  16.209  1.4885 -0.7452  0.8779
11235TIP3    H255197   3.613   3.412  16.212  2.0179  1.1375 -2.7064
11236TIP3   OH255198   1.477   0.985  14.815 -0.0916  0.0759 -0.6373
11236TIP3    H155199   1.424   0.918  14.858 -1.1880  1.1135 -0.3725
11236TIP3    H255200   1.433   1.000  14.731 -0.5519  1.3278 -0.1897
11237TIP3   OH255201   3.077   0.374  11.697  0.3268  0.4232 -0.2720
11237TIP3    H155202   3.018   0.412  11.762  0.1244  0.2994 -0.3829
11237TIP3    H255203   3.089   0.442  11.632 -1.6372 -0.3840 -1.5069
11238TIP3   OH255204   5.172   3.367   3.669  0.4890  0.4275 -0.0975
11238TIP3    H155205   5.173   3.272   3.664  1.7737  0.4789 -1.1820
11238TIP3    H255206   5.088   3.388   3.711  0.7147 -1.2036  1.2041
11239TIP3   OH255207   2.024   1.323   2.041  0.3504 -0.0807 -0.3181
11239TIP3    H155208   2.014   1.412   2.075 -0.0504 -0.4987  0.6987
11239TIP3    H255209   1.952   1.314   1.978  1.3878  0.8641 -1.6540
11240TIP3   OH255210   4.775   2.359  12.900  0.2771  0.2706  0.3508
11240TIP3    H155211   4.751   2.410  12.978  1.5820  1.1821  0.1508
11240TIP3    H255212   4.726   2.399  12.829 -1.6533 -1.1424  0.8234
11241TIP3   OH255213   0.704   3.287   1.195  0.3788  0.0291 -0.2073
11241TIP3    H155214   0.752   3.206   1.213  1.6418  0.8750  0.3078
11241TIP3    H255215   0.764   3.338   1.139 -0.9272  0.0674 -1.5871
11242TIP3   OH255216   5.962   2.178  11.410  0.2150 -0.1685 -0.1305
11242TIP3    H155217   6.026   2.130  11.358  0.3078 -2.1344  1.7601
11242TIP3    H255218   5.879   2.133  11.395 -0.0908  0.3250  0.0447
11243TIP3   OH255219   2.774   6.430   1.131  0.7538  0.5841  0.3055
11243TIP3    H155220   2.779   6.426   1.227 -0.4320  0.8095  0.3835
11243TIP3    H255221   2.753   6.340   1.105  1.1335  0.5098  0.2531
11244TIP3   OH255222   5.260   5.084   5.047 -0.3748  0.3482  0.0229
11244TIP3    H155223   5.311   5.160   5.075 -0.7743  0.6933 -0.1797
11244TIP3    H255224   5.246   5.034   5.127 -0.3904  0.6597  0.2167
11245TIP3   OH255225   1.305   1.663   5.657 -0.4478  0.0510  0.1031
11245TIP3    H155226   1.300   1.609   5.736 -0.3051  2.3481  1.7588
11245TIP3    H255227   1.218   1.703   5.651  0.0725  1.2036  0.1054
11246TIP3   OH255228   6.811   4.256   5.370 -0.2946 -0.2255 -0.7031
11246TIP3    H155229   6.856   4.219   5.293 -0.4951 -0.5732 -0.6547
11246TIP3    H255230   6.845   4.345   5.377 -0.1745 -0.2379 -1.1176
11247TIP3   OH255231   4.849   5.740   6.112 -0.1279 -0.5941 -0.0035
11247TIP3    H155232   4.872   5.779   6.027 -1.2415  1.5657  0.6620
11247TIP3    H255233   4.756   5.722   6.105 -0.5107  0.8293  1.2124
11248TIP3   OH255234   0.749   6.678  16.090 -0.4373 -0.3006 -0.3216
11248TIP3    H155235   0.727   6.763  16.127 -1.6058 -0.2241 -1.1831
11248TIP3    H255236   0.791   6.699  16.006  0.5914 -0.5361  0.1210
11249TIP3   OH255237   0.365   3.430  15.420 -0.4382 -0.7269 -0.1481
11249TIP3    H155238   0.384   3.463  15.332  0.4912  0.3762  0.4388
11249TIP3    H255239   0.421   3.353  15.429  0.8790  0.2507  0.1505
11250TIP3   OH255240   0.538   4.162  15.495 -0.2811 -0.0582 -0.1659
11250TIP3    H155241   0.493   4.226  15.550 -0.1118  0.1374 -0.2575
11250TIP3    H255242   0.522   4.078  15.539  1.0706  0.2664  0.9664
11251TIP3   OH255243   2.763   2.130   4.253  0.2172 -0.0818  0.0338
11251TIP3    H155244   2.717   2.157   4.173  0.9428  0.1138 -0.3151
11251TIP3    H255245   2.693   2.121   4.318 -0.1418  1.6738 -0.0939
11252TIP3   OH255246   2.440   0.893  14.411 -0.0664  0.3462  0.3202
11252TIP3    H155247   2.384   0.873  14.486  0.3471 -0.2913  0.4675
11252TIP3    H255248   2.485   0.974  14.435 -3.5226  2.8872 -1.2627
11253TIP3   OH255249   6.076   4.689  11.683  0.1943  0.2603  0.2201
11253TIP3    H155250   6.153   4.645  11.718 -0.4758 -1.4900 -0.4601
11253TIP3    H255251   6.109   4.775  11.656  2.0497 -0.6664 -0.5941
11254TIP3   OH255252   0.185   1.679  15.510  0.2137  0.1213  0.0682
11254TIP3    H155253   0.172   1.725  15.593  1.5850 -0.5613  0.6649
11254TIP3    H255254   0.272   1.705  15.481  0.7173 -1.5138  0.0561
11255TIP3   OH255255   2.638   1.603   3.076 -0.1531 -0.2436 -0.0572
11255TIP3    H155256   2.564   1.553   3.042  0.3673 -1.3445  0.3823
11255TIP3    H255257   2.665   1.658   3.003 -1.9533  0.8246  0.0592
11256TIP3   OH255258   1.254   2.947  17.177  0.2041  0.0542 -0.1122
11256TIP3    H155259   1.209   3.021  17.137  0.3123  0.0302 -0.2759
11256TIP3    H255260   1.332   2.935  17.124  0.3132 -0.0195  0.0651
11257TIP3   OH255261   1.170   5.574  15.370  0.1093 -0.2173  0.2419
11257TIP3    H155262   1.113   5.635  15.416  0.5536  0.7012 -0.4085
11257TIP3    H255263   1.128   5.561  15.285 -0.0348 -0.8982  0.4138
11258TIP3   OH255264   6.398   4.274  14.686  0.1333 -0.1311 -0.2057
11258TIP3    H155265   6.402   4.291  14.780 -0.9343  3.0353 -0.6755
11258TIP3    H255266   6.310   4.239  14.672 -0.0463  0.3006 -0.1589
11259TIP3   OH255267   5.175   3.043  15.617  0.2766  0.3047 -0.1965
11259TIP3    H155268   5.223   3.044  15.699  0.0433 -1.9234 -0.0020
11259TIP3    H255269   5.083   3.044  15.643  0.1939 -1.5506 -0.3871
11260TIP3   OH255270   2.348   0.389  15.277 -0.0625 -0.1903  0.0073
11260TIP3    H155271   2.284   0.427  15.337  0.1487  0.8414 -0.4230
11260TIP3    H255272   2.378   0.310  15.322 -0.3794  0.2291  0.9744
11261TIP3   OH255273   3.054   1.793   0.595  0.1772 -0.1743 -0.1721
11261TIP3    H155274   3.003   1.873   0.584 -0.6075 -0.7844 -1.0421
11261TIP3    H255275   3.006   1.743   0.662 -0.5311 -0.8677 -1.1833
11262TIP3   OH255276   1.703   4.151   1.922 -0.0100 -0.4651 -0.2571
11262TIP3    H155277   1.784   4.122   1.881  1.1323  1.6027  0.4968
11262TIP3    H255278   1.704   4.246   1.913 -1.9589 -0.3479  0.5102
11263TIP3   OH255279   3.678   2.393   1.180  0.3108 -0.7111 -0.0146
11263TIP3    H155280   3.616   2.327   1.209 -1.1279  0.4773 -0.3293
11263TIP3    H255281   3.676   2.390   1.085 -1.1127  0.9835 -0.0661
11264TIP3   OH255282   1.857   2.757  13.337 -0.2155 -0.0636  0.0662
11264TIP3    H155283   1.842   2.837  13.387 -1.2036 -0.4471  0.3991
11264TIP3    H255284   1.944   2.768  13.299 -0.8997  1.7914 -1.0358
11265TIP3   OH255285   5.158   1.214  11.669 -0.0097 -0.3200  0.5038
11265TIP3    H155286   5.240   1.178  11.636  0.6695  1.7693 -0.1431
11265TIP3    H255287   5.171   1.222  11.763 -0.0361 -1.3664  0.6078
11266TIP3   OH255288   5.642   4.441  12.591  0.0265 -0.0102 -0.2179
11266TIP3    H155289   5.729   4.476  12.611 -0.2084  0.8257 -0.6360
11266TIP3    H255290   5.585   4.517  12.590 -0.6694 -0.5290 -0.1935
11267TIP3   OH255291   0.455   0.793   2.145 -0.2155  0.6654  0.5246
11267TIP3    H155292   0.359   0.798   2.148 -0.2474  0.8758 -0.6080
11267TIP3    H255293   0.476   0.791   2.051  0.7988 -1.0749  0.7616
11268TIP3   OH255294   1.970   3.028  11.124 -0.1300  0.5341 -0.0174
11268TIP3    H155295   2.060   3.058  11.135  0.3490 -0.7908 -0.1459
11268TIP3    H255296   1.949   3.047  11.032  0.3769 -0.0696 -0.2613
11269TIP3   OH255297   4.546   6.116  15.864 -0.6199  0.2946 -0.1722
11269TIP3    H155298   4.458   6.153  15.871 -0.1310  1.2510  1.2033
11269TIP3    H255299   4.551   6.052  15.935  0.2195  1.1919  0.6032
11270TIP3   OH255300   3.521   3.834   5.850  0.3739 -0.0643  0.1840
11270TIP3    H155301   3.597   3.856   5.904  0.7608  0.8194 -0.6924
11270TIP3    H255302   3.446   3.852   5.905  0.7577  1.0610  0.3527
11271TIP3   OH255303   2.854   3.126  12.142 -0.0431 -0.5331  0.5408
11271TIP3    H155304   2.924   3.159  12.198 -1.0357 -0.0414  1.5064
11271TIP3    H255305   2.863   3.031  12.145 -0.1812 -0.5144  1.6415
11272TIP3   OH255306   0.046   1.329   1.565  0.3057  0.0657 -0.2199
11272TIP3    H155307   0.097   1.251   1.545 -1.7977 -1.3544 -0.2682
11272TIP3    H255308   0.034   1.373   1.481 -0.9061 -1.0897 -0.6652
11273TIP3   OH255309   2.248   1.696  16.205 -0.2247 -0.1848  0.0786
11273TIP3    H155310   2.183   1.765  16.198  0.4124  0.2399 -1.9243
11273TIP3    H255311   2.255   1.679  16.299 -3.1283 -0.1716  0.3401
11274TIP3   OH255312   1.310   2.451  11.705 -0.2715  1.1160 -0.4195
11274TIP3    H155313   1.263   2.418  11.628  0.9946  2.0222 -1.6102
11274TIP3    H255314   1.381   2.388  11.719  0.2425  1.6174 -0.7581
11275TIP3   OH255315   5.718   5.459   5.154 -0.0592  0.4945  0.3730
11275TIP3    H155316   5.745   5.539   5.199  0.1232  0.3607  0.5019
11275TIP3    H255317   5.719   5.483   5.061 -2.9800  1.5473  0.5496
11276TIP3   OH255318   6.336   4.975   2.672 -0.8409 -0.6484 -0.0508
11276TIP3    H155319   6.310   4.998   2.583 -0.5341 -0.9508 -0.2203
11276TIP3    H255320   6.289   5.036   2.728 -1.7155 -1.0293 -0.3711
11277TIP3   OH255321   3.942   1.754   1.492 -0.7840  0.6026 -0.0111
11277TIP3    H155322   3.930   1.847   1.470 -0.9393  1.4720  3.5005
11277TIP3    H255323   3.853   1.718   1.494 -0.9622  1.1391  1.7486
11278TIP3   OH255324   6.135   4.456   5.831 -0.0568 -0.0733  0.8159
11278TIP3    H155325   6.190   4.446   5.909 -0.0028 -1.4192  0.6281
11278TIP3    H255326   6.160   4.382   5.775 -1.8828 -0.5959  0.6466
11279TIP3   OH255327   1.349   2.132   2.337  0.1665 -0.4269  0.1527
11279TIP3    H155328   1.273   2.128   2.396 -0.3776  0.7577 -0.4580
11279TIP3    H255329   1.367   2.225   2.328  1.2276 -0.6762 -0.3166
11280TIP3   OH255330   5.209   4.355  17.215 -0.2675 -0.0429  0.1610
11280TIP3    H155331   5.189   4.448  17.226 -1.4962 -0.0546 -1.7967
11280TIP3    H255332   5.170   4.313  17.291 -0.1032  0.9848  0.8300
11281TIP3   OH255333   4.818   5.617   5.143  0.1655 -0.3107 -0.7102
11281TIP3    H155334   4.767   5.536   5.151 -0.3069 -0.0914 -1.4446
11281TIP3    H255335   4.852   5.633   5.231  0.1654 -1.2452 -0.5419
11282TIP3   OH255336   5.474   1.815  14.751 -0.4111  0.1942 -0.1959
11282TIP3    H155337   5.548   1.781  14.701  0.5188  0.9439  0.6548
11282TIP3    H255338   5.493   1.907  14.765 -2.1172  0.7024 -1.0264
11283TIP3   OH255339   5.424   3.869  10.345 -0.2401 -0.3551  0.2440
11283TIP3    H155340   5.416   3.959  10.312  0.4700 -0.5000 -0.3230
11283TIP3    H255341   5.418   3.814  10.267  3.5773 -0.6130  0.0370
11284TIP3   OH255342   6.276   2.774   1.131  0.1833  0.2141 -0.6639
11284TIP3    H155343   6.323   2.691   1.121  1.1614  0.7654 -0.6772
11284TIP3    H255344   6.252   2.777   1.223  1.6491  0.7084 -0.2885
11285TIP3   OH255345   3.541   6.532  12.342  0.4598 -0.5283  0.7843
11285TIP3    H155346   3.554   6.444  12.308  1.1515 -0.1034 -0.0663
11285TIP3    H255347   3.551   6.589  12.266 -2.5914  0.1110  0.7740
11286TIP3   OH255348   4.120   6.479   0.178  0.2500 -0.1118 -0.9027
11286TIP3    H155349   4.093   6.554   0.125 -0.6114 -0.7331 -1.3432
11286TIP3    H255350   4.042   6.454   0.227  0.9154  0.1698  0.3323
11287TIP3   OH255351   1.325   0.635   0.274 -0.2969 -0.4947  0.1153
11287TIP3    H155352   1.255   0.571   0.289  0.6336 -2.0829 -1.9866
11287TIP3    H255353   1.399   0.601   0.325 -0.2109 -0.3992  0.0539
11288TIP3   OH255354   6.250   4.245   2.726  0.5332  0.5719  0.2989
11288TIP3    H155355   6.290   4.270   2.809 -1.7986  2.3113  0.9391
11288TIP3    H255356   6.320   4.257   2.661  1.9921  0.4123  1.7975
11289TIP3   OH255357   3.181   6.205  11.634 -0.0109 -0.2857  0.1540
11289TIP3    H155358   3.159   6.130  11.578 -1.7110  0.3183 -0.0104
11289TIP3    H255359   3.192   6.278  11.572  0.2181 -0.0744  0.4408
11290TIP3   OH255360   0.059   5.256  12.914  0.5426 -0.4533 -0.4515
11290TIP3    H155361   0.008   5.176  12.911 -1.1760  0.6170 -0.4200
11290TIP3    H255362   0.141   5.231  12.957  0.1975 -2.2623 -0.8145
11291TIP3   OH255363   3.525   3.434  14.064 -0.5009 -0.3725  0.0617
11291TIP3    H155364   3.438   3.469  14.047 -0.3337  0.4025  0.7594
11291TIP3    H255365   3.542   3.456  14.156  0.7206  0.1162 -0.2765
11292TIP3   OH255366   1.218   2.006   6.630  0.5625 -0.3014  0.4249
11292TIP3    H155367   1.214   2.100   6.643 -0.5829 -0.1031 -1.3298
11292TIP3    H255368   1.287   1.977   6.691 -1.0304  1.2578  3.0553
11293TIP3   OH255369   6.052   1.914  16.833 -0.2526 -0.1981 -0.3567
11293TIP3    H155370   5.960   1.889  16.819  0.1935 -0.7808 -2.4915
11293TIP3    H255371   6.086   1.847  16.891 -0.6131 -1.2821 -1.3651
11294TIP3   OH255372   2.482   0.451   2.762  0.0687 -0.3711 -0.1028
11294TIP3    H155373   2.420   0.524   2.758  0.2084 -0.2005  0.7544
11294TIP3    H255374   2.444   0.384   2.705 -1.0060 -0.3416  0.5510
11295TIP3   OH255375   3.595   4.825   0.911 -0.0332  0.1940 -0.3288
11295TIP3    H155376   3.599   4.796   1.003  1.2534 -0.5076 -0.5870
11295TIP3    H255377   3.625   4.916   0.913 -1.2953  0.6127  0.1102
11296TIP3   OH255378   6.583   3.899   0.733  0.5000 -0.0835 -0.3164
11296TIP3    H155379   6.531   3.936   0.804 -0.3557 -0.1475 -0.9003
11296TIP3    H255380   6.519   3.850   0.681  1.5835 -2.3346  0.4183
11297TIP3   OH255381   4.666   6.789  15.305  0.2531  0.4049  0.1352
11297TIP3    H155382   4.619   6.707  15.290 -1.8545  1.3496  1.3797
11297TIP3    H255383   4.679   6.793  15.400 -0.1532  1.7741  0.1491
11298TIP3   OH255384   6.223   5.803  17.063  0.9907  0.6492 -0.4094
11298TIP3    H155385   6.184   5.789  17.150  0.8444  0.0576 -0.5700
11298TIP3    H255386   6.286   5.874  17.076  0.8308  0.6924  0.1411
11299TIP3   OH255387   0.981   4.047  14.526  0.0086  0.5854 -0.0067
11299TIP3    H155388   0.901   4.032  14.575  0.7370  0.9072  1.3229
11299TIP3    H255389   0.952   4.067  14.437 -1.4328  1.6910  0.6889
11300TIP3   OH255390   0.382   5.186   2.586  0.0892  0.1931  0.3574
11300TIP3    H155391   0.390   5.245   2.511 -0.8102 -1.7973 -1.3690
11300TIP3    H255392   0.289   5.190   2.609  0.2916  0.4945  1.1291
11301TIP3   OH255393   1.130   4.781  14.800 -0.3443 -0.2126 -0.4238
11301TIP3    H155394   1.120   4.692  14.767 -0.4238 -0.4637  0.2740
11301TIP3    H255395   1.201   4.776  14.863 -2.0068 -0.3093  1.4890
11302TIP3   OH255396   1.950   2.848   2.502  0.3632 -0.8485 -0.0989
11302TIP3    H155397   1.896   2.868   2.425  2.3979  0.8046 -1.1828
11302TIP3    H255398   1.942   2.926   2.557  0.2690 -1.3117  0.5342
11303TIP3   OH255399   2.785   1.257  16.720  0.2460 -0.3513  0.4914
11303TIP3    H155400   2.836   1.179  16.746  1.2059  0.2887  0.5635
11303TIP3    H255401   2.850   1.314  16.679 -0.9136 -0.6069 -1.7713
11304TIP3   OH255402   4.290   4.486   5.138  0.2288  0.2671 -0.2074
11304TIP3    H155403   4.218   4.533   5.095 -1.5920 -2.4990 -0.3270
11304TIP3    H255404   4.307   4.411   5.081  1.4647 -0.5049  1.1385
11305TIP3   OH255405   0.033   3.281  10.795  0.1727 -0.3602 -0.3364
11305TIP3    H155406   0.011   3.345  10.862  0.6870 -0.8350  0.2870
11305TIP3    H255407  -0.019   3.204  10.816  0.0083 -0.3656 -0.7419
11306TIP3   OH255408   2.709   2.760  11.006  0.7058 -0.4262  0.0000
11306TIP3    H155409   2.633   2.798  10.962 -0.1076  0.6364  2.2578
11306TIP3    H255410   2.768   2.735  10.935 -1.6359 -1.0467 -1.7819
11307TIP3   OH255411   0.989   1.888  11.059 -0.3732 -0.0480 -0.2057
11307TIP3    H155412   1.017   1.799  11.080  0.4769 -0.0120 -1.1570
11307TIP3    H255413   0.893   1.882  11.052 -0.3195 -0.8801 -0.2637
11308TIP3   OH255414   2.578   3.955  15.056 -0.2767  0.6244  0.8642
11308TIP3    H155415   2.664   3.917  15.040 -0.4329  0.7067 -0.2272
11308TIP3    H255416   2.576   4.034  15.001 -1.1376  0.4792  0.6759
11309TIP3   OH255417   0.133   3.383   3.935  0.0004  0.4387 -0.1256
11309TIP3    H155418   0.082   3.327   3.993 -0.5212  0.9089 -0.1310
11309TIP3    H255419   0.193   3.429   3.993  0.9188 -0.6291 -0.1918
11310TIP3   OH255420   2.182   2.893  17.282 -0.7128  0.3903 -0.2203
11310TIP3    H155421   2.097   2.885  17.325 -0.7676  1.3853 -0.1171
11310TIP3    H255422   2.237   2.938  17.347 -0.3349  0.4407 -0.5782
11311TIP3   OH255423   6.736   0.277  14.133  0.1524  0.3432 -0.4751
11311TIP3    H155424   6.795   0.345  14.099 -1.6894  1.9572 -0.5195
11311TIP3    H255425   6.707   0.229  14.055  0.2435  0.4885 -0.5977
11312TIP3   OH255426   3.324   3.183   3.682  1.0118  0.0241 -0.0188
11312TIP3    H155427   3.305   3.161   3.591  0.1338  0.0097  0.1716
11312TIP3    H255428   3.290   3.110   3.733  0.5452  0.5311  0.4032
11313TIP3   OH255429   0.455   0.534   1.793  0.2485  0.1149 -0.2567
11313TIP3    H155430   0.525   0.500   1.849 -1.0826 -0.0731  1.3329
11313TIP3    H255431   0.498   0.553   1.709  2.0429 -0.6693  0.4640
11314TIP3   OH255432   6.336   2.693   4.433 -0.0092  0.7166  0.1061
11314TIP3    H155433   6.386   2.678   4.512 -0.6095  1.4458  0.6363
11314TIP3    H255434   6.286   2.773   4.451 -1.1665  0.1464 -0.4889
11315TIP3   OH255435   6.558   2.584  15.360  0.2808  0.7576 -0.0632
11315TIP3    H155436   6.497   2.646  15.321  1.4723  0.0372 -3.2748
11315TIP3    H255437   6.636   2.588  15.304  1.7096 -1.1285  1.6756
11316TIP3   OH255438   3.063   3.019   1.128 -1.2625  0.4374 -0.1064
11316TIP3    H155439   3.080   2.930   1.098 -2.6622 -0.0477  0.5315
11316TIP3    H255440   3.075   3.016   1.223  1.1221  1.5044 -0.3418
11317TIP3   OH255441   3.139   6.294   1.513  0.2555 -0.3582  0.4945
11317TIP3    H155442   3.067   6.238   1.542  2.0473 -2.7505  0.4052
11317TIP3    H255443   3.139   6.285   1.418 -0.6978  1.4239  0.2880
11318TIP3   OH255444   0.934   5.418   2.804  0.6101  0.1669  0.2734
11318TIP3    H155445   0.923   5.324   2.797 -1.0023  0.3540  0.1043
11318TIP3    H255446   0.984   5.442   2.726 -0.9113 -0.2569 -0.8481
11319TIP3   OH255447   5.292   5.562   6.340  0.1366 -0.1999  0.4912
11319TIP3    H155448   5.255   5.492   6.287  0.1680  0.9703 -1.1271
11319TIP3    H255449   5.222   5.628   6.346  0.3115 -0.0916  1.4733
11320TIP3   OH255450   0.196   2.190  17.149 -0.1144 -0.6540  0.8960
11320TIP3    H155451   0.220   2.156  17.063  0.7862 -2.2067  1.7352
11320TIP3    H255452   0.143   2.267  17.131  1.7125  0.1868 -1.0366
11321TIP3   OH255453   4.633   3.464   3.744 -0.0318 -0.0485 -0.3073
11321TIP3    H155454   4.559   3.504   3.698 -0.9620 -1.5804 -0.1640
11321TIP3    H255455   4.610   3.372   3.752  2.0759 -0.6247 -0.5846
11322TIP3   OH255456   3.688   4.214  16.663 -0.2843 -0.0998 -0.2219
11322TIP3    H155457   3.712   4.266  16.586 -0.4963 -0.3464 -0.4561
11322TIP3    H255458   3.652   4.133  16.627 -1.2544  0.1693  0.1338
11323TIP3   OH255459   0.450   6.375  13.122 -0.6850  0.0605 -0.2730
11323TIP3    H155460   0.465   6.378  13.217 -0.7344  0.4672 -0.2736
11323TIP3    H255461   0.537   6.373  13.084 -0.5795  2.4688 -0.2800
11324TIP3   OH255462   5.256   2.580  10.714  0.4311  0.3486  0.0815
11324TIP3    H155463   5.224   2.546  10.631  0.2238 -1.7465  0.9939
11324TIP3    H255464   5.301   2.506  10.755 -2.1076  0.4160  3.1837
11325TIP3   OH255465   5.452   6.345  11.684 -0.2086  0.1398  0.1689
11325TIP3    H155466   5.540   6.328  11.718  0.5625 -0.1344 -1.8888
11325TIP3    H255467   5.418   6.416  11.739  0.6890 -0.7883  1.9711
11326TIP3   OH255468   1.552   0.970  16.618 -0.4050  0.6945 -0.6549
11326TIP3    H155469   1.489   1.032  16.581 -1.7173 -0.1456  0.1222
11326TIP3    H255470   1.549   0.985  16.712  0.2559  0.3655 -0.5749
11327TIP3   OH255471   2.233   6.547   0.866 -0.0085  0.0677 -0.3072
11327TIP3    H155472   2.309   6.603   0.880 -0.9984  1.2574  0.3697
11327TIP3    H255473   2.235   6.527   0.772  1.6313 -0.6404 -0.1343
11328TIP3   OH255474   4.925   2.008   2.384 -0.6035  0.5493 -0.1526
11328TIP3    H155475   4.938   2.074   2.452 -1.3581 -0.6672  1.2101
11328TIP3    H255476   4.855   1.953   2.417  0.3123 -1.2028 -1.0414
11329TIP3   OH255477   1.848   5.731   0.507  0.0577 -0.3666 -0.6397
11329TIP3    H155478   1.868   5.658   0.565  0.5587 -0.1448 -0.5296
11329TIP3    H255479   1.757   5.717   0.481 -0.7302  0.4158  1.5208
11330TIP3   OH255480   4.157   3.933  16.702 -0.1793  0.1224  0.2173
11330TIP3    H155481   4.154   3.874  16.627  0.0004  1.3416 -0.7574
11330TIP3    H255482   4.228   3.900  16.756  0.6662  0.1286 -0.8915
11331TIP3   OH255483   4.833   3.611  14.026 -0.2907 -0.4317  0.3473
11331TIP3    H155484   4.844   3.611  13.931 -1.1047  1.2916  0.2334
11331TIP3    H255485   4.922   3.609  14.060  0.0545  0.4994 -0.4676
11332TIP3   OH255486   4.747   2.883  12.424 -0.0059 -0.2494  0.2139
11332TIP3    H155487   4.707   2.812  12.374  2.7661 -0.8043 -1.3180
11332TIP3    H255488   4.798   2.839  12.492  0.4952  0.3062  0.2078
11333TIP3   OH255489   1.336   3.789  17.212  0.2208  0.5639  0.7344
11333TIP3    H155490   1.421   3.828  17.231  0.8249 -0.0709 -0.5991
11333TIP3    H255491   1.294   3.781  17.298  1.0884  1.8156  1.2956
11334TIP3   OH255492   2.012   3.031  14.153 -0.2364 -0.2590  0.0825
11334TIP3    H155493   2.100   3.033  14.116 -0.4523 -2.0503 -0.6105
11334TIP3    H255494   2.003   3.114  14.199  0.7158  1.2795 -2.3707
11335TIP3   OH255495   3.349   4.398   6.553 -0.1492 -0.5382 -0.1490
11335TIP3    H155496   3.399   4.394   6.471 -0.3508 -1.9777 -0.2301
11335TIP3    H255497   3.351   4.490   6.579 -0.5987  0.0511 -2.1010
11336TIP3   OH255498   6.351   3.701  15.392 -0.1678 -0.5501 -0.0010
11336TIP3    H155499   6.291   3.762  15.435  0.7883  0.5344 -0.1588
11336TIP3    H255500   6.340   3.719  15.299 -1.4503 -2.1387 -0.1699
11337TIP3   OH255501   6.398   5.065  13.741 -0.2913 -0.1465 -0.2378
11337TIP3    H155502   6.397   5.094  13.650 -1.7354 -0.5619 -0.3755
11337TIP3    H255503   6.478   5.102  13.777 -0.6186  1.5810 -1.1855
11338TIP3   OH255504   6.654   3.855   4.777  0.3572 -0.2956 -0.0767
11338TIP3    H155505   6.607   3.775   4.802  0.7873 -0.6440 -0.3784
11338TIP3    H255506   6.695   3.884   4.859 -2.1939  1.2562  0.7049
11339TIP3   OH255507   3.338   6.663   4.082 -0.3305  0.4928 -0.2137
11339TIP3    H155508   3.384   6.586   4.050 -2.7111 -0.8521 -0.4889
11339TIP3    H255509   3.267   6.678   4.019 -0.7976  2.0149  0.6287
11340TIP3   OH255510   4.050   4.767  16.134 -0.1823  0.1615  0.2230
11340TIP3    H155511   4.047   4.705  16.208 -0.3806  0.9678  0.9021
11340TIP3    H255512   4.078   4.849  16.173 -0.8164  0.7338 -0.5104
11341TIP3   OH255513   6.437   4.785   5.269  0.8130  0.2259 -0.0893
11341TIP3    H155514   6.525   4.780   5.231  0.1251 -0.0228 -1.7300
11341TIP3    H255515   6.441   4.729   5.347  1.7028 -1.0221 -0.9950
11342TIP3   OH255516   3.003   5.825   3.772  0.0679 -0.2766 -0.2081
11342TIP3    H155517   3.007   5.840   3.677 -0.3104 -0.3840 -0.2449
11342TIP3    H255518   2.910   5.838   3.794  0.2400  0.2013  0.2257
11343TIP3   OH255519   0.285   2.934   0.455 -0.0648 -0.3947 -0.3121
11343TIP3    H155520   0.358   2.913   0.513 -0.3721  0.3891  0.3672
11343TIP3    H255521   0.208   2.899   0.501 -0.3478  0.5201 -0.0802
11344TIP3   OH255522   0.431   4.657  15.249  0.1914  0.3667  0.6664
11344TIP3    H155523   0.404   4.566  15.255  0.9034  0.0288 -0.8411
11344TIP3    H255524   0.349   4.707  15.248 -0.1999 -0.2558  1.3595
11345TIP3   OH255525   4.343   6.814  16.543 -0.1634 -0.4559  0.3858
11345TIP3    H155526   4.310   6.879  16.606 -0.8946 -1.1872  0.7737
11345TIP3    H255527   4.331   6.730  16.587 -0.6114 -0.9748 -0.7017
11346TIP3   OH255528   1.138   6.706   1.095  0.3273 -0.4569  0.1230
11346TIP3    H155529   1.180   6.628   1.059  0.8519 -0.3444  0.4687
11346TIP3    H255530   1.086   6.673   1.168  2.3556 -0.2422  1.7371
11347TIP3   OH255531   1.289   2.350  16.179  0.0805  0.1636 -0.3516
11347TIP3    H155532   1.246   2.430  16.149  1.1056  0.4248 -1.1827
11347TIP3    H255533   1.258   2.282  16.119 -2.4921 -0.5395  1.6911
11348TIP3   OH255534   2.677   3.611  13.863 -0.1476  0.2878 -0.5271
11348TIP3    H155535   2.691   3.611  13.768  2.5881  1.7058 -0.1840
11348TIP3    H255536   2.733   3.682  13.895 -0.9627 -0.2351  2.1674
11349TIP3   OH255537   4.203   3.724   1.371  0.1524  0.4621  0.0312
11349TIP3    H155538   4.129   3.763   1.324 -0.2191  0.5238  0.6549
11349TIP3    H255539   4.244   3.797   1.417 -2.4089 -0.2380  3.7401
11350TIP3   OH255540   6.401   2.807   5.779 -0.1644  0.1269 -0.4414
11350TIP3    H155541   6.338   2.813   5.707 -2.2406  0.5458  1.3483
11350TIP3    H255542   6.353   2.838   5.856  2.5247  1.3541  0.8322
11351TIP3   OH255543   6.445   5.677   3.500 -0.1634  0.2217 -0.3688
11351TIP3    H155544   6.422   5.640   3.585  2.0314  1.4004  0.7684
11351TIP3    H255545   6.415   5.768   3.504  0.6683  0.5113 -0.5350
11352TIP3   OH255546   0.888   2.294  11.328  0.0490 -0.2430 -0.1097
11352TIP3    H155547   0.820   2.304  11.262  2.3640  0.4560 -2.4782
11352TIP3    H255548   0.961   2.253  11.282  2.6409  2.4810  1.3213
11353TIP3   OH255549   6.648   1.116   0.599  0.0057  0.0099 -0.1945
11353TIP3    H155550   6.687   1.032   0.576  0.2385 -0.1161  0.6295
11353TIP3    H255551   6.680   1.133   0.688  0.8685  1.4933 -0.7614
11354TIP3   OH255552   6.289   1.659   0.489  0.4552  0.2998  0.1323
11354TIP3    H155553   6.207   1.692   0.451 -0.5287 -0.4881  1.5482
11354TIP3    H255554   6.328   1.606   0.419  0.1270  1.2398 -0.7932
11355TIP3   OH255555   2.087   1.159   0.927  0.2422 -0.4244 -0.0399
11355TIP3    H155556   2.157   1.176   0.991  0.8572 -1.7055 -0.3527
11355TIP3    H255557   2.103   1.070   0.898  0.1921  0.2585 -2.2693
11356TIP3   OH255558   0.344   1.929  11.576 -0.2024  0.3002  0.0554
11356TIP3    H155559   0.327   1.917  11.669  0.4287  0.7401  0.2302
11356TIP3    H255560   0.292   1.861  11.533  0.9607 -1.1064  0.8411
11357TIP3   OH255561   2.632   5.207   2.115  0.8059 -0.1522  0.1868
11357TIP3    H155562   2.721   5.217   2.082  0.2976 -0.2438 -1.2488
11357TIP3    H255563   2.577   5.213   2.037 -0.3255 -1.8259  0.8284
11358TIP3   OH255564   1.579   1.368   1.962 -0.1839  0.0904  0.3898
11358TIP3    H155565   1.485   1.357   1.972  0.0158  0.4029  2.7533
11358TIP3    H255566   1.590   1.460   1.936 -0.5543 -0.1685 -0.7394
11359TIP3   OH255567   3.486   6.001  11.276  0.1398 -0.2885 -0.5712
11359TIP3    H155568   3.469   6.095  11.270  0.9559 -0.1700 -1.1022
11359TIP3    H255569   3.421   5.969  11.338  0.0105  0.6669 -0.2027
11360TIP3   OH255570   0.221   3.692  11.722  0.6445 -0.3370 -0.0954
11360TIP3    H155571   0.246   3.607  11.686  0.7456  0.5906 -2.2840
11360TIP3    H255572   0.129   3.703  11.697  0.7828  0.4192 -0.3020
11361TIP3   OH255573   6.630   0.464   5.407 -0.3149  0.0157  0.4892
11361TIP3    H155574   6.598   0.470   5.497 -2.1261  0.1714 -0.1412
11361TIP3    H255575   6.700   0.529   5.402  0.3763 -0.5958  2.0197
11362TIP3   OH255576   2.423   0.631   5.417  0.2002 -0.6870 -0.2760
11362TIP3    H155577   2.483   0.687   5.466 -0.8245  1.5328 -1.4471
11362TIP3    H255578   2.456   0.634   5.327 -0.3683 -1.2614 -0.5034
11363TIP3   OH255579   1.053   1.322  14.531  0.0897 -0.0825  0.0208
11363TIP3    H155580   1.053   1.392  14.596 -0.1078  0.9038 -1.0403
11363TIP3    H255581   0.966   1.283  14.537 -0.1351  0.4055 -0.0863
11364TIP3   OH255582   5.180   3.834   1.179 -0.0316 -0.3740 -0.0166
11364TIP3    H155583   5.177   3.929   1.163 -0.3952 -0.2238  0.9205
11364TIP3    H255584   5.190   3.826   1.273 -1.5491 -1.2858  0.0907
11365TIP3   OH255585   1.841   0.212  12.210  0.2380  0.1087 -0.4348
11365TIP3    H155586   1.880   0.289  12.250 -0.3815  1.5351 -2.5128
11365TIP3    H255587   1.879   0.138  12.257  1.6696  1.6380  0.8418
11366TIP3   OH255588   0.130   5.794   3.173  0.3120  0.1135 -0.2437
11366TIP3    H155589   0.136   5.855   3.246  1.1726 -0.5171  0.2227
11366TIP3    H255590   0.062   5.830   3.117 -0.7052  0.3603  1.1083
11367TIP3   OH255591   0.926   3.898   5.330  0.2055 -0.5346 -0.3664
11367TIP3    H155592   0.904   3.936   5.245  0.0863 -0.2811 -0.2237
11367TIP3    H255593   0.856   3.835   5.347 -1.2548  1.3316  0.7673
11368TIP3   OH255594   0.957   3.411  12.004 -0.0839 -0.2459  0.3370
11368TIP3    H155595   0.873   3.444  12.036  0.3407  0.0218  1.1838
11368TIP3    H255596   1.009   3.396  12.083  1.5105  1.8669 -0.2551
11369TIP3   OH255597   1.357   3.358  11.976 -0.8324 -0.1028 -0.6742
11369TIP3    H155598   1.310   3.322  11.900 -2.6932 -1.2701  0.9828
11369TIP3    H255599   1.309   3.325  12.051  1.7290  0.0365  1.0758
11370TIP3   OH255600   5.786   6.677  13.024 -0.0103  0.3562  1.0288
11370TIP3    H155601   5.853   6.712  13.083  0.6866 -0.1304  0.5354
11370TIP3    H255602   5.732   6.753  13.000  0.0137  0.6477  1.8783
11371TIP3   OH255603   4.536   6.290  13.555 -0.2061 -0.1309  0.0716
11371TIP3    H155604   4.494   6.226  13.613 -3.4797  0.5851 -1.3787
11371TIP3    H255605   4.553   6.241  13.475  2.8139 -0.6869  0.9950
11372TIP3   OH255606   1.400   0.471   4.948 -0.0938  0.1620  0.2604
11372TIP3    H155607   1.435   0.518   5.024 -1.5407 -0.2061  1.1639
11372TIP3    H255608   1.317   0.513   4.930 -0.9311 -1.3635  0.4431
11373TIP3   OH255609   1.123   6.540  12.218 -0.1044  0.1126  0.1673
11373TIP3    H155610   1.134   6.453  12.257 -0.4512 -0.1873 -0.3919
11373TIP3    H255611   1.165   6.533  12.132 -0.7561  0.2839 -0.1686
11374TIP3   OH255612   3.552   0.159  15.563 -0.1790  0.1689  0.2740
11374TIP3    H155613   3.488   0.101  15.521 -0.2226 -0.0682  0.6618
11374TIP3    H255614   3.546   0.241  15.514 -0.3994 -0.0268 -0.0306
11375TIP3   OH255615   0.712   6.211   1.343 -0.3375  0.9496 -0.3351
11375TIP3    H155616   0.666   6.140   1.298 -0.6660  1.4484 -0.7923
11375TIP3    H255617   0.717   6.281   1.278 -0.1386  1.4000  0.1632
11376TIP3   OH255618   5.426   1.565  15.779  0.2275  0.4677  0.3484
11376TIP3    H155619   5.357   1.571  15.845 -0.3037 -1.1392 -0.0654
11376TIP3    H255620   5.380   1.555  15.696  0.9221  1.5315 -0.1844
11377TIP3   OH255621   4.059   4.786  14.647  0.0919  0.4352  0.1917
11377TIP3    H155622   4.059   4.880  14.628  1.3719  0.9700  2.5956
11377TIP3    H255623   4.148   4.757  14.625 -0.3264 -0.2325 -0.6268
11378TIP3   OH255624   5.886   1.095  11.646  0.8349  0.3194 -0.3847
11378TIP3    H155625   5.852   1.169  11.698 -0.0352  0.6049 -1.3506
11378TIP3    H255626   5.919   1.033  11.712  0.7474  1.1656  0.4687
11379TIP3   OH255627   5.206   6.541   1.281  0.5288 -0.4503  0.1549
11379TIP3    H155628   5.123   6.580   1.308  0.1497 -0.9320 -0.3049
11379TIP3    H255629   5.264   6.552   1.357 -0.5436 -1.8433  1.2018
11380TIP3   OH255630   0.264   1.977   5.195  0.4273  0.3079 -0.1428
11380TIP3    H155631   0.233   1.975   5.286 -1.0457  0.3371 -0.6362
11380TIP3    H255632   0.184   1.974   5.142  1.2085  1.6334 -1.4373
11381TIP3   OH255633   0.429   0.262   2.842  0.1245 -0.1529 -0.3463
11381TIP3    H155634   0.360   0.327   2.827  0.7930  0.4593 -0.8215
11381TIP3    H255635   0.475   0.256   2.758  1.3656  0.3092  0.2779
11382TIP3   OH255636   2.615   0.614  14.714  0.4434 -0.6512 -0.2046
11382TIP3    H155637   2.556   0.549  14.751  0.2486 -0.0497  0.5851
11382TIP3    H255638   2.603   0.691  14.770 -0.9565  0.8063 -2.4179
11383TIP3   OH255639   5.457   5.148   3.195  0.6758  0.1546  0.0729
11383TIP3    H155640   5.486   5.205   3.123 -0.5048  1.3868  0.5495
11383TIP3    H255641   5.506   5.179   3.271 -1.6815  2.1721  0.8567
11384TIP3   OH255642   2.768   6.279   4.576 -0.2290 -0.1785  0.1439
11384TIP3    H155643   2.861   6.271   4.556  0.0229  2.2956  0.1806
11384TIP3    H255644   2.724   6.262   4.492  0.3260  0.1234 -0.2122
11385TIP3   OH255645   6.209   3.105   5.714  0.3530 -0.0533 -0.5695
11385TIP3    H155646   6.235   3.031   5.770  3.4106  1.3071 -0.1265
11385TIP3    H255647   6.263   3.096   5.636 -0.0085  1.1411 -0.9620
11386TIP3   OH255648   5.133   4.726  12.297 -0.0384 -0.2016  0.1182
11386TIP3    H155649   5.224   4.734  12.328 -0.0100 -0.6094  0.1486
11386TIP3    H255650   5.080   4.748  12.373  0.0339 -0.4638  0.2452
11387TIP3   OH255651   3.907   0.234  17.067  0.0895 -0.3857 -0.1149
11387TIP3    H155652   3.826   0.230  17.118  0.9789  1.0320  1.4561
11387TIP3    H255653   3.976   0.213  17.130  1.2394  1.7213 -0.6469
11388TIP3   OH255654   6.818   4.129  16.907  0.2326  0.0245  0.6961
11388TIP3    H155655   6.901   4.119  16.954  0.3964 -1.1095  0.1819
11388TIP3    H255656   6.790   4.039  16.889  0.5746  0.4404 -2.0745
11389TIP3   OH255657   6.197   0.462   2.554 -0.3216  0.1815  0.0483
11389TIP3    H155658   6.111   0.475   2.514  0.7985 -0.0402 -2.4788
11389TIP3    H255659   6.254   0.525   2.510  1.6440 -2.2284 -0.9458
11390TIP3   OH255660   0.597   3.696   1.469 -0.6029 -0.3666 -0.0817
11390TIP3    H155661   0.690   3.676   1.454 -0.3150  1.5898 -1.0077
11390TIP3    H255662   0.577   3.767   1.408 -2.2777  0.3949  1.3151
11391TIP3   OH255663   2.187   5.480  14.327 -0.9742 -0.1750 -0.9438
11391TIP3    H155664   2.264   5.431  14.355 -0.9296  0.0382 -0.6938
11391TIP3    H255665   2.207   5.571  14.348 -1.3054 -0.1219 -0.8550
11392TIP3   OH255666   0.590   2.658   3.052  0.7799  0.2727 -0.4675
11392TIP3    H155667   0.591   2.615   3.137 -1.2761  0.3562 -0.3754
11392TIP3    H255668   0.650   2.733   3.062  1.0997 -0.1267  0.6727
11393TIP3   OH255669   4.303   3.745  15.580 -0.2782  0.0310 -0.0457
11393TIP3    H155670   4.371   3.726  15.515 -0.1367  1.2462 -0.2580
11393TIP3    H255671   4.222   3.717  15.538  0.0794 -1.6082  0.2830
11394TIP3   OH255672   2.620   1.735   1.707  0.4941 -0.4865 -0.1273
11394TIP3    H155673   2.615   1.639   1.708 -0.6575 -0.4835 -2.6954
11394TIP3    H255674   2.529   1.763   1.695  1.1560  0.8423 -2.1924
11395TIP3   OH255675   5.426   3.339   0.771 -0.5406  0.2149 -0.1805
11395TIP3    H155676   5.406   3.408   0.708  0.8607 -0.5602 -1.5032
11395TIP3    H255677   5.520   3.323   0.759 -0.4407 -0.5533  1.5008
11396TIP3   OH255678   3.189   1.455   3.861  0.4159  0.0591  0.0859
11396TIP3    H155679   3.258   1.518   3.877 -0.3943  0.4760  2.1624
11396TIP3    H255680   3.208   1.383   3.922  1.2217 -1.6202 -2.1118
11397TIP3   OH255681   3.798   0.785   0.664  0.1271 -0.2353  0.3802
11397TIP3    H155682   3.765   0.773   0.753  0.0692  1.7262  0.6479
11397TIP3    H255683   3.755   0.717   0.612  0.9250 -2.0406  2.0239
11398TIP3   OH255684   5.679   6.254  15.546 -0.5542  0.1428 -0.6942
11398TIP3    H155685   5.666   6.302  15.628 -0.2823 -2.2743  0.8170
11398TIP3    H255686   5.590   6.234  15.516 -0.6395 -0.4081 -0.0907
11399TIP3   OH255687   1.374   0.109  12.015  0.2224  0.1214  0.4149
11399TIP3    H155688   1.466   0.089  11.997 -0.0833  0.8351 -2.0082
11399TIP3    H255689   1.359   0.073  12.103  1.8246 -3.3337 -0.6290
11400TIP3   OH255690   6.707   3.709   3.135 -1.0230 -0.1999  0.1711
11400TIP3    H155691   6.779   3.655   3.168 -1.5729 -1.0032  0.0883
11400TIP3    H255692   6.629   3.676   3.180 -1.4650  0.0917 -0.3588
11401TIP3   OH255693   6.214   3.157  17.271 -0.1210  0.2234 -0.7020
11401TIP3    H155694   6.249   3.244  17.291 -1.1888  0.6316 -0.6061
11401TIP3    H255695   6.172   3.129  17.353  1.2149 -0.8750 -0.3730
11402TIP3   OH255696   4.675   2.525  10.571  0.1629 -0.2061  0.0279
11402TIP3    H155697   4.652   2.591  10.506 -0.3659 -0.0710  0.3555
11402TIP3    H255698   4.760   2.492  10.542  0.8124  1.1809  0.3072
11403TIP3   OH255699   6.504   0.609  11.831 -0.1545  0.8472  0.2577
11403TIP3    H155700   6.503   0.687  11.887  0.5301  1.1589 -0.1651
11403TIP3    H255701   6.582   0.619  11.776 -0.5382  0.2849 -0.3991
11404TIP3   OH255702   0.682   5.293   5.862 -0.0627 -0.6061 -0.3573
11404TIP3    H155703   0.670   5.247   5.779  0.7672 -0.1265 -0.7441
11404TIP3    H255704   0.635   5.376   5.852 -1.5315 -1.3278  0.3295
11405TIP3   OH255705   0.207   5.009  13.273 -0.9675  0.6160  0.2696
11405TIP3    H155706   0.234   4.918  13.265  0.1115  0.8242  1.2878
11405TIP3    H255707   0.231   5.048  13.189  1.0243  0.5381  0.7579
11406TIP3   OH255708   2.785   4.404  16.586 -0.3389 -0.3358 -0.3145
11406TIP3    H155709   2.777   4.310  16.602 -0.0915 -0.4799 -1.0193
11406TIP3    H255710   2.847   4.411  16.514 -1.6921  0.2730 -1.4455
11407TIP3   OH255711   5.172   1.292   4.438  0.2170  0.1526 -0.1583
11407TIP3    H155712   5.233   1.241   4.490  0.1964 -1.1670 -1.3877
11407TIP3    H255713   5.206   1.287   4.349 -1.4160 -0.2414 -0.7919
11408TIP3   OH255714   1.358   6.758   5.658  0.2672  0.2334 -0.3782
11408TIP3    H155715   1.362   6.788   5.567  2.9834  1.5343  0.1060
11408TIP3    H255716   1.400   6.828   5.708  0.0655 -1.0981  1.7218
11409TIP3   OH255717   1.147   2.316   3.422 -0.7735  0.3818  0.0576
11409TIP3    H155718   1.130   2.392   3.479  0.2655  1.3467 -0.9074
11409TIP3    H255719   1.176   2.248   3.482  1.5653  1.7822  0.5672
11410TIP3   OH255720   2.444   5.587  13.943 -0.7279  0.3164  0.6238
11410TIP3    H155721   2.495   5.541  13.875 -0.4581  2.4395 -0.6714
11410TIP3    H255722   2.507   5.602  14.013 -0.4808 -0.1984  0.5128
11411TIP3   OH255723   5.118   1.598  12.508 -0.3141  0.4750 -0.1226
11411TIP3    H155724   5.096   1.534  12.440  0.3571  0.3400 -0.2210
11411TIP3    H255725   5.051   1.586  12.575 -0.1154 -0.4351 -0.0778
11412TIP3   OH255726   3.957   1.308  13.431  0.5745 -0.3251 -0.2683
11412TIP3    H155727   3.937   1.235  13.372  0.0707 -1.1164  0.8590
11412TIP3    H255728   3.991   1.266  13.510  1.0789  0.7122  0.0759
11413TIP3   OH255729   2.383   3.617  15.811  0.4704  0.3146 -0.0860
11413TIP3    H155730   2.373   3.594  15.903  0.9696 -0.0351 -0.1151
11413TIP3    H255731   2.358   3.538  15.763  0.3298  0.4559 -0.2488
11414TIP3   OH255732   4.588   4.378   4.538 -0.4681 -0.0499  0.0803
11414TIP3    H155733   4.549   4.305   4.489  0.5273 -0.9237  0.5908
11414TIP3    H255734   4.579   4.353   4.630  0.5095  0.1601  0.2322
11415TIP3   OH255735   2.591   6.529   6.479  0.1562 -0.0374 -0.2981
11415TIP3    H155736   2.628   6.443   6.502 -0.7424  0.0104  1.4173
11415TIP3    H255737   2.645   6.592   6.526  0.8801  0.3701 -1.6417
11416TIP3   OH255738   4.663   4.816  17.124 -0.1718 -0.1663 -0.1564
11416TIP3    H155739   4.658   4.881  17.054 -0.9374 -1.3172 -1.1985
11416TIP3    H255740   4.584   4.830  17.176  0.6039  0.9634  0.7488
11417TIP3   OH255741   2.556   2.496   4.106 -0.1072  0.3035 -0.6621
11417TIP3    H155742   2.526   2.582   4.137 -1.2127  0.1308 -1.2338
11417TIP3    H255743   2.492   2.471   4.039 -0.3655 -1.4423  0.2259
11418TIP3   OH255744   4.531   5.658  14.948 -0.1105  0.0821 -0.3325
11418TIP3    H155745   4.594   5.609  15.001  1.2591  0.6723 -1.3709
11418TIP3    H255746   4.511   5.600  14.875  0.0059  0.2846 -0.5262
11419TIP3   OH255747   3.861   5.619  13.353 -0.7156  0.6174 -0.9731
11419TIP3    H155748   3.928   5.671  13.398 -0.0119 -1.0037 -0.0935
11419TIP3    H255749   3.900   5.598  13.268  0.3754 -1.2092 -0.0638
11420TIP3   OH255750   2.276   0.781  11.429 -0.3119  0.2795 -0.7235
11420TIP3    H155751   2.200   0.830  11.398  0.0794  0.9801 -0.5787
11420TIP3    H255752   2.351   0.837  11.408  0.4079 -1.5146 -3.1914
11421TIP3   OH255753   5.406   0.395   0.541 -0.2969  0.1900  0.3234
11421TIP3    H155754   5.329   0.345   0.567 -1.9341  1.6814 -1.5282
11421TIP3    H255755   5.473   0.329   0.523 -1.8339 -1.2501 -0.2427
11422TIP3   OH255756   1.977   2.861   3.023 -0.0555 -0.2520 -0.4551
11422TIP3    H155757   2.017   2.897   3.102  1.2734 -0.9555 -0.7970
11422TIP3    H255758   1.918   2.930   2.992 -0.7253 -0.0387  1.2406
11423TIP3   OH255759   4.929   5.442   0.265  0.0940 -0.1078  0.0648
11423TIP3    H155760   4.869   5.371   0.244 -0.0380  0.7859 -2.8334
11423TIP3    H255761   5.015   5.401   0.267  0.0139 -0.3728 -1.5687
11424TIP3   OH255762   2.436   0.145  11.897 -0.1707 -0.5003  0.0821
11424TIP3    H155763   2.527   0.160  11.872  0.1369  1.6698  2.3549
11424TIP3    H255764   2.436   0.055  11.932  1.2303 -0.3326  0.5596
11425TIP3   OH255765   5.177   4.092  12.734 -0.0843 -0.3720 -0.5243
11425TIP3    H155766   5.084   4.072  12.750  0.3894 -2.1513  0.1493
11425TIP3    H255767   5.210   4.014  12.689  1.4100 -0.3511  0.5091
11426TIP3   OH255768   5.732   5.571  13.842 -0.3909 -0.1545  0.7056
11426TIP3    H155769   5.783   5.590  13.764 -0.2865 -2.2431  0.2566
11426TIP3    H255770   5.743   5.477  13.857  0.5785  0.3958  3.9417
11427TIP3   OH255771   6.680   1.316   4.433 -0.4196 -0.4731  0.3923
11427TIP3    H155772   6.736   1.388   4.404  0.3067 -1.9480 -1.9789
11427TIP3    H255773   6.721   1.284   4.514  0.2979  0.5581  0.4419
11428TIP3   OH255774   5.510   0.336   3.749  0.2928 -0.5981  0.0466
11428TIP3    H155775   5.470   0.346   3.835 -1.3928  1.6223 -0.9627
11428TIP3    H255776   5.440   0.304   3.693  0.6159  0.6928 -1.1251
11429TIP3   OH255777   2.810   1.061   5.600 -0.6622 -0.7733 -0.1736
11429TIP3    H155778   2.901   1.089   5.600 -0.2712 -1.8824 -2.4593
11429TIP3    H255779   2.785   1.060   5.692  1.5334 -0.1433  0.4610
11430TIP3   OH255780   5.118   2.713   5.146 -0.3754  0.1784 -0.0923
11430TIP3    H155781   5.122   2.771   5.222  2.6918  2.5037 -1.9439
11430TIP3    H255782   5.054   2.753   5.088 -0.0161  0.3860 -0.3421
11431TIP3   OH255783   4.523   2.791  12.727  0.6833  0.1605 -0.1963
11431TIP3    H155784   4.613   2.761  12.726  0.8358  0.6489 -1.7418
11431TIP3    H255785   4.504   2.805  12.820  2.3372  0.4915  0.1114
11432TIP3   OH255786   0.782   0.122   0.390 -0.2801 -0.3908 -0.2637
11432TIP3    H155787   0.874   0.098   0.378  0.3230  0.5958  2.0079
11432TIP3    H255788   0.750   0.061   0.457  0.1556  2.3552  2.5907
11433TIP3   OH255789   5.378   2.659   2.399 -0.2919  0.6465  0.3370
11433TIP3    H155790   5.457   2.702   2.431 -0.5486  1.0388  0.4505
11433TIP3    H255791   5.397   2.638   2.308  0.0038  0.5939  0.4128
11434TIP3   OH255792   2.827   1.681   4.517  0.0463  0.4168 -0.5320
11434TIP3    H155793   2.858   1.597   4.551  0.5414  0.6504 -0.4134
11434TIP3    H255794   2.797   1.729   4.595  0.7498  0.7694 -0.4781
11435TIP3   OH255795   5.530   2.927  14.460  0.4210 -0.1432  0.0559
11435TIP3    H155796   5.460   2.901  14.520 -0.0377 -1.2474 -0.9333
11435TIP3    H255797   5.570   2.844  14.433  0.7407  0.3595 -1.0240
11436TIP3   OH255798   2.937   6.740   4.207  1.0254  0.3770  0.6478
11436TIP3    H155799   2.853   6.774   4.175  0.5486 -1.5239 -0.1567
11436TIP3    H255800   2.968   6.808   4.267 -1.8511  0.4194  2.1957
11437TIP3   OH255801   3.345   5.519  12.608  0.1798 -0.4537  0.0366
11437TIP3    H155802   3.358   5.563  12.524 -1.4511  1.2712  0.6349
11437TIP3    H255803   3.347   5.426  12.588 -0.4608 -0.0516 -1.9604
11438TIP3   OH255804   0.279   4.715   1.468  0.2053  0.3242 -0.3363
11438TIP3    H155805   0.223   4.792   1.460 -0.2083 -0.0242 -0.8036
11438TIP3    H255806   0.262   4.682   1.556 -1.9866 -1.0694 -1.2632
11439TIP3   OH255807   1.443   6.115   5.859  0.0271 -0.0494 -0.1637
11439TIP3    H155808   1.384   6.117   5.783 -0.5146  0.7899  0.2767
11439TIP3    H255809   1.528   6.091   5.822 -0.7968 -2.3957 -0.6645
11440TIP3   OH255810   5.456   6.017   3.645 -0.2467  0.3761  0.2152
11440TIP3    H155811   5.495   5.933   3.671 -0.6449  0.9426  2.8305
11440TIP3    H255812   5.368   5.993   3.614  0.0773 -0.2953 -0.2002
11441TIP3   OH255813   4.827   6.277   1.653 -0.3222 -0.4205  0.3387
11441TIP3    H155814   4.865   6.322   1.578  1.7593  0.8657  2.1126
11441TIP3    H255815   4.732   6.290   1.643 -0.0691  0.0230 -1.8316
11442TIP3   OH255816   0.340   0.761   1.904 -1.0422  0.0790  0.6136
11442TIP3    H155817   0.255   0.764   1.861 -1.1401 -1.4955  0.6771
11442TIP3    H255818   0.370   0.670   1.893  0.2265  0.3903  1.3514
11443TIP3   OH255819   6.067   2.714   5.333 -0.2208  0.3655  0.3592
11443TIP3    H155820   6.055   2.793   5.386  0.5497  0.1354  0.8792
11443TIP3    H255821   6.113   2.745   5.254  0.7633  0.3087  0.9089
11444TIP3   OH255822   5.713   3.075  15.951 -0.6658 -0.3396 -0.5015
11444TIP3    H155823   5.712   2.981  15.933  2.4305 -0.3959 -0.6664
11444TIP3    H255824   5.806   3.098  15.956 -1.3215  2.1165  2.6190
11445TIP3   OH255825   2.616   4.617  14.519  0.7397  0.3057 -0.1624
11445TIP3    H155826   2.633   4.551  14.586  0.7845  0.7176  0.2349
11445TIP3    H255827   2.532   4.656  14.544 -0.0619 -0.6844 -1.2739
11446TIP3   OH255828   0.674   1.368  14.849  0.1334  0.3294 -0.3491
11446TIP3    H155829   0.634   1.308  14.912  1.0837  0.6721  0.6117
11446TIP3    H255830   0.607   1.382  14.782 -0.1106 -1.7434 -0.5479
11447TIP3   OH255831   0.418   1.287   0.136 -0.4963 -0.0132  0.1545
11447TIP3    H155832   0.352   1.247   0.080  0.5230 -0.0707 -1.0455
11447TIP3    H255833   0.501   1.256   0.099  0.1759 -2.4555  3.4781
11448TIP3   OH255834   6.479   3.153  13.511  0.0191  0.3704  0.2853
11448TIP3    H155835   6.421   3.104  13.570 -0.4451  2.3229  1.4819
11448TIP3    H255836   6.419   3.200  13.453  0.4660 -0.3721 -0.7870
11449TIP3   OH255837   5.474   1.562  13.805 -0.3080 -0.8693 -0.3481
11449TIP3    H155838   5.425   1.553  13.887 -1.3440  0.2919 -0.8151
11449TIP3    H255839   5.564   1.543  13.829 -0.5543 -0.2657  1.1289
11450TIP3   OH255840   2.156   4.894  15.024 -0.0816  0.1457 -0.4223
11450TIP3    H155841   2.112   4.951  15.087 -0.3499 -1.6612  1.0958
11450TIP3    H255842   2.100   4.816  15.020  1.9210 -1.3529  0.0071
11451TIP3   OH255843   2.331   0.187  15.459 -0.2907  0.1997  0.5557
11451TIP3    H155844   2.238   0.185  15.483 -0.6020  1.2184 -0.5129
11451TIP3    H255845   2.348   0.101  15.423 -0.6716 -0.1874  1.2821
11452TIP3   OH255846   1.297   2.760   5.932 -0.1984 -0.1515  0.2334
11452TIP3    H155847   1.355   2.685   5.922  0.7834  0.8151 -1.6381
11452TIP3    H255848   1.275   2.786   5.842 -0.8388  1.5367  0.8510
11453TIP3   OH255849   3.304   1.062   5.217  0.5856 -0.3765 -0.0325
11453TIP3    H155850   3.220   1.074   5.171 -0.0493  0.4177  1.2981
11453TIP3    H255851   3.365   1.118   5.169  0.2365 -0.5450 -0.6929
11454TIP3   OH255852   3.135   5.811   2.986  0.4547 -0.1297  0.3510
11454TIP3    H155853   3.147   5.721   2.957  0.4381 -0.6626  1.9975
11454TIP3    H255854   3.046   5.833   2.959  0.6070 -0.4486 -0.4385
11455TIP3   OH255855   1.343   4.257   0.691  0.1180  0.6523  0.2164
11455TIP3    H155856   1.314   4.305   0.613 -1.0039 -0.2151  0.0878
11455TIP3    H255857   1.268   4.259   0.750  0.4777  0.0806  0.6984
11456TIP3   OH255858   5.460   2.998  15.584 -0.4690 -0.3054 -0.7170
11456TIP3    H155859   5.480   2.904  15.585 -2.3823 -0.7302  1.8273
11456TIP3    H255860   5.406   3.010  15.506 -1.0955 -1.5103 -0.4697
11457TIP3   OH255861   2.610   3.247  16.006 -0.1452 -0.1412 -0.0429
11457TIP3    H155862   2.701   3.273  16.014 -0.7010  1.5563  0.8263
11457TIP3    H255863   2.597   3.235  15.911  0.2179  2.4476 -0.4559
11458TIP3   OH255864   0.473   4.115  13.004 -0.4216 -0.1607 -0.6372
11458TIP3    H155865   0.388   4.157  12.994 -0.3942 -0.1498 -0.8169
11458TIP3    H255866   0.484   4.107  13.099 -0.3715  0.3465 -0.5975
11459TIP3   OH255867   2.862   0.167   3.452  0.2724 -0.1795  0.7106
11459TIP3    H155868   2.912   0.090   3.425 -1.9674 -2.2124  2.1574
11459TIP3    H255869   2.913   0.205   3.523  0.1430 -1.8772  1.7563
11460TIP3   OH255870   6.265   5.140  16.718 -0.1658 -0.8429  0.3110
11460TIP3    H155871   6.184   5.092  16.739 -0.2570 -0.2831  1.2814
11460TIP3    H255872   6.234   5.217  16.670 -0.0123 -1.7591 -1.3119
11461TIP3   OH255873   0.734   3.058  10.742 -0.2682  0.0097  0.1276
11461TIP3    H155874   0.809   3.117  10.741 -0.8288  0.8188  3.0635
11461TIP3    H255875   0.771   2.972  10.720  1.3115  0.6023  0.3883
11462TIP3   OH255876   1.307   4.206   3.572 -0.5927 -0.4110 -0.6100
11462TIP3    H155877   1.266   4.216   3.486 -0.0551 -3.8337 -1.3298
11462TIP3    H255878   1.240   4.168   3.627  0.0475 -1.2392 -0.3966
11463TIP3   OH255879   1.388   5.528  15.755  0.0962  0.2895  0.0847
11463TIP3    H155880   1.330   5.498  15.825  0.1252  0.1778  0.0609
11463TIP3    H255881   1.360   5.479  15.678  1.7105 -1.4704  0.5809
11464TIP3   OH255882   6.808   1.243   6.727 -0.4018  0.0062 -0.3821
11464TIP3    H155883   6.802   1.338   6.735 -0.0925  0.1348 -1.4944
11464TIP3    H255884   6.900   1.224   6.747 -0.5347 -0.0862  0.1287
11465TIP3   OH255885   1.073   1.953  12.849 -0.1185  0.1712  0.3608
11465TIP3    H155886   1.114   1.868  12.830  0.0313  0.3889 -0.3168
11465TIP3    H255887   1.101   2.009  12.776  0.9600  1.1966  1.5389
11466TIP3   OH255888   1.194   2.303   4.593  0.2036  0.5601  0.3409
11466TIP3    H155889   1.135   2.270   4.661 -0.2574  1.8686  0.6019
11466TIP3    H255890   1.161   2.391   4.575 -0.4087 -0.1844 -2.4255
11467TIP3   OH255891   4.492   1.747  15.640  0.0706 -0.0325  0.3885
11467TIP3    H155892   4.505   1.726  15.732 -1.0737  1.2364  0.8541
11467TIP3    H255893   4.515   1.840  15.633  0.8717 -0.3013 -0.7600
11468TIP3   OH255894   3.177   1.056  11.845 -0.1721  0.5247  0.3506
11468TIP3    H155895   3.222   0.977  11.817 -1.2469 -0.2660  0.8321
11468TIP3    H255896   3.245   1.123  11.846  0.8944 -0.5481  0.6149
11469TIP3   OH255897   5.290   1.569   0.822  0.3030  0.3785  0.4878
11469TIP3    H155898   5.287   1.660   0.849  0.6784  0.3873  0.5128
11469TIP3    H255899   5.308   1.572   0.728 -0.9417  0.3473  0.2469
11470TIP3   OH255900   0.261   6.476   5.862 -0.2613  0.2610  0.2892
11470TIP3    H155901   0.332   6.479   5.798  2.1825 -1.6382  2.7663
11470TIP3    H255902   0.220   6.390   5.849 -0.7561  0.5051  0.2351
11471TIP3   OH255903   0.292   1.693   1.952 -0.1187  0.3966  0.0194
11471TIP3    H155904   0.253   1.731   1.873  3.5187 -0.4827 -2.3206
11471TIP3    H255905   0.383   1.676   1.928  0.6522 -1.4949  3.8928
11472TIP3   OH255906   0.786   3.138   1.871  0.3219  0.0510  0.0024
11472TIP3    H155907   0.813   3.181   1.790  0.8406  0.1231  0.2051
11472TIP3    H255908   0.793   3.044   1.852  1.3511  0.0661  0.2439
11473TIP3   OH255909   4.320   2.450  13.966 -0.0078 -0.1060 -0.6816
11473TIP3    H155910   4.268   2.379  13.929  0.3319  0.1677 -1.7157
11473TIP3    H255911   4.255   2.514  13.996 -0.2936 -0.3456 -0.7823
11474TIP3   OH255912   1.684   5.992  14.742 -0.1146 -0.1422 -0.6556
11474TIP3    H155913   1.699   6.024  14.831  1.7576 -0.5519 -0.7984
11474TIP3    H255914   1.753   5.926  14.728 -0.2478  0.0794 -2.4799
11475TIP3   OH255915   0.214   0.556   4.249 -0.4730  0.2842 -0.1014
11475TIP3    H155916   0.271   0.615   4.200 -0.1548 -1.1268 -1.4691
11475TIP3    H255917   0.264   0.533   4.327 -0.1873  1.0167 -0.0690
11476TIP3   OH255918   3.982   2.638  14.682  0.0697 -0.1615 -0.5270
11476TIP3    H155919   4.026   2.664  14.601  0.3934 -1.1176 -0.6693
11476TIP3    H255920   3.905   2.590  14.653  0.2638 -0.6290 -0.2644
11477TIP3   OH255921   3.720   2.158   1.958 -0.8484 -0.1706 -0.0626
11477TIP3    H155922   3.697   2.218   1.887 -0.0653  1.2221  0.8363
11477TIP3    H255923   3.682   2.074   1.932 -0.6080  0.3300 -2.0983
11478TIP3   OH255924   0.458   0.643  12.314 -0.4079 -0.3823  0.5599
11478TIP3    H155925   0.541   0.686  12.292 -0.0720 -1.1077  0.3937
11478TIP3    H255926   0.397   0.673  12.247 -0.0803 -0.4425  0.2355
11479TIP3   OH255927   3.364   0.273   4.557  0.0541 -0.4730  0.2435
11479TIP3    H155928   3.352   0.302   4.648 -0.2409 -1.1141  0.4127
11479TIP3    H255929   3.379   0.353   4.508 -2.4479  0.1356  0.4266
11480TIP3   OH255930   4.055   2.671  12.925 -0.3612 -0.7588 -0.2993
11480TIP3    H155931   4.033   2.703  12.837  0.3566 -2.0955 -0.9760
11480TIP3    H255932   4.066   2.577  12.914  3.5129 -0.4487  0.4375
11481TIP3   OH255933   4.840   3.594  10.341  0.2796  0.1743  0.2024
11481TIP3    H155934   4.850   3.689  10.338  0.0946  0.2718  2.1651
11481TIP3    H255935   4.748   3.579  10.322  0.2390  0.4094  0.2078
11482TIP3   OH255936   0.008   3.126  11.333 -0.1870 -0.6580 -0.0739
11482TIP3    H155937   0.100   3.101  11.329  0.0506 -0.3747  2.7568
11482TIP3    H255938   0.009   3.222  11.337 -0.5503 -0.7064  1.1846
11483TIP3   OH255939   6.411   4.416   0.130  0.1154 -0.0367  0.3598
11483TIP3    H155940   6.427   4.499   0.174  1.1528  0.3657 -0.7511
11483TIP3    H255941   6.323   4.425   0.093  1.0071  1.4018 -1.5245
11484TIP3   OH255942   4.183   1.107   1.800 -0.4191  0.3472 -0.3666
11484TIP3    H155943   4.206   1.035   1.741  0.6651  1.2136 -1.0327
11484TIP3    H255944   4.245   1.099   1.872 -1.5628 -0.5416  0.5469
11485TIP3   OH255945   2.921   1.490   3.728 -0.2355 -0.7837 -0.4877
11485TIP3    H155946   3.012   1.501   3.756 -0.1510 -0.9094 -0.7119
11485TIP3    H255947   2.927   1.474   3.634 -0.4225 -1.8565 -0.3191
11486TIP3   OH255948   6.038   3.772  13.658 -0.1972  0.0379 -0.7482
11486TIP3    H155949   6.076   3.857  13.682 -0.0934 -0.2032 -0.0382
11486TIP3    H255950   5.947   3.791  13.635 -0.9977 -0.0592  2.1911
11487TIP3   OH255951   5.673   4.853  15.434 -0.1159  0.3275 -0.0386
11487TIP3    H155952   5.644   4.942  15.454  0.1589  0.3002  0.4747
11487TIP3    H255953   5.762   4.848  15.469 -0.7086 -0.6704  1.3855
11488TIP3   OH255954   6.644   6.698   6.450  0.4482  0.2004 -0.2864
11488TIP3    H155955   6.669   6.752   6.376 -2.0110 -2.1402 -2.9817
11488TIP3    H255956   6.680   6.611   6.430  1.1749 -0.0808  2.1074
11489TIP3   OH255957   3.808   3.156  16.896  0.1551 -0.0011  0.5219
11489TIP3    H155958   3.779   3.197  16.978  1.3693 -1.5403  1.7542
11489TIP3    H255959   3.875   3.215  16.861  0.0500  0.3670  0.9358
11490TIP3   OH255960   0.036   5.668   0.587  0.6071 -0.0325  0.1963
11490TIP3    H155961   0.037   5.572   0.583  1.9034  0.0068 -0.8561
11490TIP3    H255962   0.129   5.692   0.590  0.3405  1.2282 -1.0608
11491TIP3   OH255963   6.332   3.951   2.546 -0.4367 -0.0335 -0.0850
11491TIP3    H155964   6.403   3.891   2.570 -0.5970 -0.6434 -1.0881
11491TIP3    H255965   6.371   4.009   2.481 -0.0498  1.5059  1.4695
11492TIP3   OH255966   0.574   0.832  13.296  0.2656 -0.0182  0.0084
11492TIP3    H155967   0.506   0.899  13.284 -0.5615 -1.0409 -1.1048
11492TIP3    H255968   0.535   0.769  13.356  0.8655  0.2602  0.6854
11493TIP3   OH255969   3.546   4.967  11.181 -0.0279 -0.3789 -0.3780
11493TIP3    H155970   3.454   4.985  11.160 -0.4372 -1.9068  0.0261
11493TIP3    H255971   3.550   4.973  11.276  0.3211 -0.2372 -0.4023
11494TIP3   OH255972   0.662   6.305   6.564 -0.1811 -0.3380 -0.4141
11494TIP3    H155973   0.754   6.320   6.541 -0.4197  1.5027 -0.2454
11494TIP3    H255974   0.665   6.257   6.647  0.6213 -1.4110 -1.0410
11495TIP3   OH255975   3.757   6.411   0.076 -0.3909  0.1283  0.0389
11495TIP3    H155976   3.667   6.381   0.063 -0.6124  0.0011  1.7662
11495TIP3    H255977   3.798   6.342   0.128  0.4975  0.5483 -0.0952
11496TIP3   OH255978   5.998   5.362   5.201  0.5634 -0.1134  0.5269
11496TIP3    H155979   5.903   5.360   5.212  0.5062  3.7037  1.5094
11496TIP3    H255980   6.027   5.274   5.225 -2.5505 -0.9137  1.6272
11497TIP3   OH255981   3.214   2.477   2.459 -0.1939  0.0992  0.0056
11497TIP3    H155982   3.170   2.429   2.388  2.0266  1.2762 -2.2342
11497TIP3    H255983   3.157   2.552   2.476  0.0198  0.6425 -1.6196
11498TIP3   OH255984   2.204   1.963   5.410  0.1060 -0.2962  0.3193
11498TIP3    H155985   2.133   1.966   5.475 -0.5717 -0.7722 -0.3922
11498TIP3    H255986   2.268   1.903   5.449 -0.0603 -0.1781  0.7840
11499TIP3   OH255987   0.010   4.871   5.822  0.2872 -0.6832  0.0664
11499TIP3    H155988  -0.075   4.867   5.779 -0.2958 -1.6405  1.2675
11499TIP3    H255989  -0.007   4.913   5.906  1.1285 -0.2546  0.0301
11500TIP3   OH255990   0.488   4.554  16.343  0.3207 -0.3669 -0.3377
11500TIP3    H155991   0.413   4.554  16.403 -0.7135  1.1604 -1.6132
11500TIP3    H255992   0.564   4.562  16.401 -0.5661 -0.5628  0.8808
11501TIP3   OH255993   4.368   6.340   0.193  0.0297 -0.2270  0.0151
11501TIP3    H155994   4.438   6.405   0.178  0.8503 -1.1909 -0.3938
11501TIP3    H255995   4.287   6.390   0.181  0.6412  0.8605  0.2615
11502TIP3   OH255996   2.159   6.219  16.053  0.1137  0.5429 -0.6629
11502TIP3    H155997   2.184   6.128  16.039  0.0581 -0.3265  4.1547
11502TIP3    H255998   2.070   6.215  16.086  0.4665  2.2825  0.5272
11503TIP3   OH255999   6.414   6.246  14.037  0.0760 -0.7511  0.1709
11503TIP3    H156000   6.503   6.254  14.073  0.0011  0.3582  0.1320
11503TIP3    H256001   6.357   6.250  14.114  0.0939 -2.5033  0.2949
11504TIP3   OH256002   3.534   3.710   2.728 -0.1447  0.2552 -0.2713
11504TIP3    H156003   3.591   3.786   2.713 -0.0890  0.4046  0.6837
11504TIP3    H256004   3.584   3.653   2.785 -0.2358 -0.4574 -0.8931
11505TIP3   OH256005   1.480   0.610   5.166 -0.3522 -0.3026 -0.0146
11505TIP3    H156006   1.564   0.578   5.134 -0.1475 -0.3611  0.5706
11505TIP3    H256007   1.499   0.697   5.201 -0.3360 -0.7156  1.0195
11506TIP3   OH256008   5.588   1.202   3.143  0.2839  0.5518  0.3846
11506TIP3    H156009   5.664   1.148   3.166  0.2308 -0.1162 -0.9032
11506TIP3    H256010   5.518   1.173   3.201 -0.2305 -2.0324 -1.4479
11507TIP3   OH256011   3.022   2.891  12.356 -0.3683 -0.2512 -0.1811
11507TIP3    H156012   2.928   2.910  12.354 -0.3207  0.0081  0.0380
11507TIP3    H256013   3.027   2.798  12.377 -0.5522 -0.0509  0.7758
11508TIP3   OH256014   2.959   1.536   5.301  0.1025 -0.6066 -0.2269
11508TIP3    H156015   2.980   1.539   5.208 -1.5699  1.4430 -0.5653
11508TIP3    H256016   2.863   1.529   5.304 -0.2524  3.6615  1.3120
11509TIP3   OH256017   4.120   5.366   1.785  0.0025  0.1258  0.4859
11509TIP3    H156018   4.121   5.334   1.695  2.1154  1.1645  0.0956
11509TIP3    H256019   4.138   5.289   1.838  0.3429 -0.1954 -0.0945
11510TIP3   OH256020   5.835   2.504  11.804  0.0351 -0.2742 -0.3028
11510TIP3    H156021   5.878   2.459  11.731 -0.3447 -0.4224 -0.4353
11510TIP3    H256022   5.841   2.442  11.877 -0.1297 -0.3765 -0.3756
11511TIP3   OH256023   0.174   1.138   0.894  0.0314 -0.2520 -0.1642
11511TIP3    H156024   0.175   1.221   0.942 -1.2177 -0.8998  1.0263
11511TIP3    H256025   0.085   1.105   0.905  0.3892 -1.5324 -1.0020
11512TIP3   OH256026   1.962   6.270   6.649  0.3186 -1.0429 -0.1079
11512TIP3    H156027   1.925   6.353   6.618  0.0828 -1.2636 -0.4143
11512TIP3    H256028   1.886   6.217   6.673  0.5275 -0.5061  1.7970
11513TIP3   OH256029   0.930   6.377   6.558  0.1012  0.0193 -0.1781
11513TIP3    H156030   0.950   6.440   6.488 -0.7237 -0.3823 -0.7787
11513TIP3    H256031   1.004   6.384   6.618 -0.1143  1.7804 -0.0918
11514TIP3   OH256032   4.670   0.311  12.770  0.1320 -0.3501 -0.0602
11514TIP3    H156033   4.629   0.225  12.781  0.0957 -0.4143 -0.6439
11514TIP3    H256034   4.645   0.360  12.848 -0.3549 -0.6702 -0.0148
11515TIP3   OH256035   6.815   1.031  13.498  0.4026  0.6689 -0.4357
11515TIP3    H156036   6.860   1.096  13.444  1.5583  0.7287  0.5956
11515TIP3    H256037   6.869   1.023  13.576 -1.4802  0.9194  0.9379
11516TIP3   OH256038   2.760   4.469   0.947  0.0295 -0.0812 -0.9168
11516TIP3    H156039   2.841   4.478   0.997 -0.0668  0.5945 -0.8811
11516TIP3    H256040   2.720   4.388   0.980 -0.1948  0.5250  0.3250
11517TIP3   OH256041   0.960   5.592  12.332  0.0540  0.3832 -0.4551
11517TIP3    H156042   0.887   5.634  12.378 -0.8163 -1.1652 -0.3661
11517TIP3    H256043   0.960   5.502  12.366  1.3392  0.0747 -1.2443
11518TIP3   OH256044   2.388   1.393   0.471 -0.1820 -0.5937  0.2568
11518TIP3    H156045   2.332   1.366   0.544 -0.2464  0.6577  0.6834
11518TIP3    H256046   2.337   1.461   0.427  1.3829  1.2282  1.2077
11519TIP3   OH256047   6.384   5.065  13.021 -0.3357 -0.7811  0.4620
11519TIP3    H156048   6.352   5.144  13.064 -1.7420 -1.2826  0.3669
11519TIP3    H256049   6.439   5.097  12.950 -0.7978  0.1249  0.4982
11520TIP3   OH256050   0.664   4.510   2.581  0.4532  0.1950  0.2438
11520TIP3    H156051   0.706   4.538   2.662  0.4591  0.0541  0.2886
11520TIP3    H256052   0.732   4.523   2.514  0.3371  0.6284  0.2102
11521TIP3   OH256053   1.091   2.270  15.192 -0.0863 -0.2516  0.1784
11521TIP3    H156054   1.119   2.237  15.277 -0.8766 -0.5742  0.3189
11521TIP3    H256055   1.013   2.219  15.170 -0.5736  0.6350 -0.1934
11522TIP3   OH256056   4.056   4.586   5.031  0.0345  0.4490 -0.4309
11522TIP3    H156057   3.993   4.649   5.066 -1.1504 -1.0838  0.2440
11522TIP3    H256058   4.022   4.564   4.944  0.9090  1.3578 -1.0193
11523TIP3   OH256059   4.498   0.219   6.356  0.4408  0.5379  0.9391
11523TIP3    H156060   4.536   0.140   6.320 -0.3969  0.8025 -0.5710
11523TIP3    H256061   4.415   0.191   6.395  0.3753  0.5900  0.8380
11524TIP3   OH256062   1.851   4.524   6.159  0.1699 -0.7909 -0.4772
11524TIP3    H156063   1.819   4.613   6.166  0.6194 -0.5668 -1.1481
11524TIP3    H256064   1.946   4.531   6.174  0.4236 -0.9449 -1.9242
11525TIP3   OH256065   1.192   0.104   1.482 -0.3315  0.6723 -0.9885
11525TIP3    H156066   1.194   0.094   1.577 -0.1727  0.1105 -1.0500
11525TIP3    H256067   1.268   0.159   1.462 -0.4109  0.8587 -0.7872
11526TIP3   OH256068   6.142   4.415   0.086 -0.1215  0.2777  0.4863
11526TIP3    H156069   6.177   4.326   0.074  1.0559  0.7994 -0.0177
11526TIP3    H256070   6.060   4.402   0.132 -1.2849 -1.3085 -1.9059
11527TIP3   OH256071   2.674   5.380  15.333 -0.3279 -0.1895 -0.0731
11527TIP3    H156072   2.720   5.460  15.310  1.2792 -0.8312  0.8363
11527TIP3    H256073   2.645   5.343  15.249  0.3373  0.4985 -0.6079
11528TIP3   OH256074   2.202   0.815  14.611 -0.7577 -0.1162 -0.0606
11528TIP3    H156075   2.240   0.744  14.663 -1.4526 -0.2424  0.2733
11528TIP3    H256076   2.220   0.895  14.661  1.4154  0.1411 -1.1947
11529TIP3   OH256077   3.922   1.286  16.338  0.5291  0.0330 -0.3734
11529TIP3    H156078   3.961   1.368  16.308  1.5726 -1.3127 -2.8322
11529TIP3    H256079   3.892   1.305  16.427  0.1500  3.2676 -1.1172
11530TIP3   OH256080   0.564   2.529   2.187  0.0160 -0.0088 -0.9472
11530TIP3    H156081   0.582   2.615   2.151 -0.9664 -0.3088 -2.1904
11530TIP3    H256082   0.627   2.471   2.144  0.1397 -0.0427 -0.7202
11531TIP3   OH256083   3.559   4.720   1.554 -0.2030 -0.4882 -0.1081
11531TIP3    H156084   3.621   4.669   1.502 -1.5428 -1.7922 -0.4347
11531TIP3    H256085   3.501   4.761   1.490  0.1516  0.5439  0.2120
11532TIP3   OH256086   6.397   4.776  11.128 -0.3156  0.0162  0.0466
11532TIP3    H156087   6.487   4.754  11.152 -0.0014 -0.7317 -1.7552
11532TIP3    H256088   6.345   4.747  11.203  1.0132  1.2360  1.4727
11533TIP3   OH256089   2.133   0.390  13.019 -0.3897 -0.1897  0.1368
11533TIP3    H156090   2.135   0.356  12.929 -2.0441 -0.2575  0.1090
11533TIP3    H256091   2.147   0.313  13.074  0.6793 -0.1404 -0.0546
11534TIP3   OH256092   3.487   0.870  13.532 -0.0765 -0.6782 -0.2535
11534TIP3    H156093   3.425   0.943  13.533 -0.5787 -1.1123  0.9824
11534TIP3    H256094   3.491   0.840  13.623  3.6901  0.7800  0.1635
11535TIP3   OH256095   1.880   3.814  14.221 -0.4155 -0.0825 -0.1801
11535TIP3    H156096   1.805   3.755  14.224 -0.2841 -0.2823 -0.6834
11535TIP3    H256097   1.954   3.759  14.195  0.3310 -0.2885  2.2319
11536TIP3   OH256098   1.958   2.100  11.338  0.0975 -0.5998  0.0446
11536TIP3    H156099   1.871   2.084  11.376  0.6591 -1.3993  1.0100
11536TIP3    H256100   1.982   2.188  11.367 -0.4121 -0.3401 -0.2976
11537TIP3   OH256101   5.472   0.192  17.059  0.0026 -0.0705  0.0426
11537TIP3    H156102   5.548   0.250  17.067  0.0930 -0.1771 -0.0436
11537TIP3    H256103   5.412   0.221  17.127  0.5510 -0.6526  0.7799
11538TIP3   OH256104   2.096   6.128   4.695 -0.1848 -0.0114  0.1223
11538TIP3    H156105   2.083   6.216   4.660 -2.1533  0.0545  0.9371
11538TIP3    H256106   2.010   6.086   4.687  0.9642 -2.2119 -1.1926
11539TIP3   OH256107   2.085   5.720  12.907  0.7645 -0.2350  0.1165
11539TIP3    H156108   2.012   5.750  12.852  2.0149  0.2682 -1.3169
11539TIP3    H256109   2.134   5.800  12.927  1.4391 -0.6907  0.2781
11540TIP3   OH256110   6.410   1.455  12.690 -0.1660 -0.3323 -0.1776
11540TIP3    H156111   6.430   1.362  12.688  0.0982 -0.3106  0.8290
11540TIP3    H256112   6.491   1.498  12.663  1.0512 -0.2716  3.2226
11541TIP3   OH256113   2.534   4.378  11.824  0.3423  0.3562 -0.4621
11541TIP3    H156114   2.591   4.327  11.767  0.6632 -0.0148  0.1843
11541TIP3    H256115   2.462   4.406  11.767  0.7624  0.1649 -1.0926
11542TIP3   OH256116   2.596   4.650  14.239  0.5063 -0.3342 -0.1640
11542TIP3    H156117   2.601   4.625  14.332  0.5332  0.5283  0.0718
11542TIP3    H256118   2.539   4.727  14.238  1.8803  0.6953 -0.6432
11543TIP3   OH256119   4.052   2.155   1.688  0.0514  0.3137 -0.2313
11543TIP3    H156120   4.024   2.152   1.780 -0.6489 -0.1423 -0.4498
11543TIP3    H256121   4.142   2.187   1.691  0.5761 -1.2032  0.7337
11544TIP3   OH256122   0.164   0.898  12.101  0.1552  0.2304  0.3117
11544TIP3    H156123   0.120   0.962  12.157  0.4302  2.0862 -1.4812
11544TIP3    H256124   0.104   0.887  12.027  1.5411  0.8806 -0.9404
11545TIP3   OH256125   2.666   5.658   4.441  0.3991 -0.7794 -0.8371
11545TIP3    H156126   2.758   5.632   4.444  0.5521 -0.1653  0.0438
11545TIP3    H256127   2.667   5.753   4.452 -0.3484 -0.7961 -0.5769
11546TIP3   OH256128   6.152   4.541  12.224  1.1659  0.4739  0.2646
11546TIP3    H156129   6.214   4.474  12.194  1.1518  0.2892  0.6491
11546TIP3    H256130   6.155   4.535  12.319  1.8739  1.6584  0.3327
11547TIP3   OH256131   3.647   3.831  15.438  0.5741  0.0634 -0.1431
11547TIP3    H156132   3.566   3.855  15.392  0.6068  0.1403 -0.1616
11547TIP3    H256133   3.644   3.881  15.519  1.3138  1.2382 -0.8149
11548TIP3   OH256134   2.762   4.577  15.071 -0.0851  0.3363 -0.3239
11548TIP3    H156135   2.770   4.533  14.986  0.1421  1.0353 -0.6709
11548TIP3    H256136   2.719   4.660  15.051 -1.6145 -0.2545  0.5073
11549TIP3   OH256137   3.184   2.886  12.130 -0.1613 -0.2576 -0.2965
11549TIP3    H156138   3.135   2.833  12.067  1.8846 -0.3298 -1.8444
11549TIP3    H256139   3.119   2.909  12.197 -2.7701  1.1633 -3.2000
11550TIP3   OH256140   1.222   6.192  14.495  0.4304 -0.5527 -0.1162
11550TIP3    H156141   1.200   6.197  14.588 -1.3519 -0.9751 -0.4999
11550TIP3    H256142   1.237   6.099  14.479  2.4388 -0.2876  0.1062
11551TIP3   OH256143   4.839   0.956  13.362  0.6888  0.1132 -0.2455
11551TIP3    H156144   4.887   1.036  13.380  0.4870  0.2232 -0.1905
11551TIP3    H256145   4.747   0.983  13.361  0.4135 -0.5697  2.3752
11552TIP3   OH256146   3.900   1.530  13.287  0.3553  0.0934  0.0493
11552TIP3    H156147   3.915   1.444  13.326 -1.3127 -1.3052 -2.2982
11552TIP3    H256148   3.987   1.571  13.285  1.3338 -1.9200  0.2293
11553TIP3   OH256149   1.298   3.191  15.044 -0.4116 -0.8164 -0.1988
11553TIP3    H156150   1.247   3.128  15.095 -1.6554  0.9326  0.7885
11553TIP3    H256151   1.244   3.205  14.965 -1.7285  1.3466  1.0349
11554TIP3   OH256152   5.848   2.366  15.646 -0.0500 -0.3025 -0.6944
11554TIP3    H156153   5.878   2.303  15.581 -0.9985  0.5464 -1.9605
11554TIP3    H256154   5.915   2.434  15.646  0.3192 -0.6591 -0.2449
11555TIP3   OH256155   4.039   6.569  15.101 -0.1364 -0.5036 -0.2973
11555TIP3    H156156   4.053   6.636  15.168  1.5574 -0.4656 -0.6609
11555TIP3    H256157   3.976   6.608  15.041  0.9932  0.8736 -0.6220
11556TIP3   OH256158   3.210   0.457   3.800 -0.7372 -0.0927  0.0716
11556TIP3    H156159   3.223   0.423   3.888 -0.2007 -0.9301 -0.3209
11556TIP3    H256160   3.119   0.484   3.798 -1.0915 -1.2224  0.4990
11557TIP3   OH256161   2.220   0.836   1.975  0.4221 -0.1316 -0.8680
11557TIP3    H156162   2.194   0.916   2.021  1.0788 -0.1153 -0.5144
11557TIP3    H256163   2.138   0.794   1.950  0.0716  0.5233 -0.8247
11558TIP3   OH256164   1.345   2.821   2.689  0.5759  0.2519 -0.6004
11558TIP3    H156165   1.411   2.876   2.646  0.0998  2.0427  0.8893
11558TIP3    H256166   1.290   2.883   2.738 -1.9056 -1.2371 -1.3799
11559TIP3   OH256167   2.491   2.271  13.662 -0.1953  0.0147 -0.1437
11559TIP3    H156168   2.455   2.322  13.734 -0.6084 -0.6724  0.1479
11559TIP3    H256169   2.443   2.188  13.665 -1.5119  0.6589 -2.3300
11560TIP3   OH256170   2.345   1.016  11.010 -0.5639  0.4089 -0.2407
11560TIP3    H156171   2.370   1.101  11.045  0.4475  0.4610 -1.0519
11560TIP3    H256172   2.384   0.952  11.070 -0.9599  0.5170  0.1287
11561TIP3   OH256173   3.670   5.018  16.488 -0.3844  0.0710 -0.1619
11561TIP3    H156174   3.591   5.070  16.477  0.3067  1.0619 -0.5128
11561TIP3    H256175   3.659   4.976  16.574 -1.0665  0.5800  0.0064
11562TIP3   OH256176   3.718   5.111   1.177  0.3093  0.6337 -0.2891
11562TIP3    H156177   3.663   5.049   1.224 -0.1475 -0.1986 -1.8682
11562TIP3    H256178   3.807   5.080   1.192  0.1609  0.3096 -0.0736
11563TIP3   OH256179   5.285   1.342   3.682 -0.3719 -0.5684  0.2549
11563TIP3    H156180   5.318   1.310   3.766 -0.4165 -2.0913 -0.2939
11563TIP3    H256181   5.194   1.311   3.678 -0.2151 -0.9459 -0.5706
11564TIP3   OH256182   3.447   4.763  12.005  0.2830 -0.6018 -0.2517
11564TIP3    H156183   3.361   4.799  11.983  0.8858  0.7003 -0.5414
11564TIP3    H256184   3.453   4.773  12.100 -0.7011 -2.5641  0.0328
11565TIP3   OH256185   4.497   1.993  11.612  0.1301 -0.0475 -0.6289
11565TIP3    H156186   4.464   1.904  11.623 -1.2616  0.6425  0.9458
11565TIP3    H256187   4.562   2.004  11.681 -2.8698  1.6038  2.0491
11566TIP3   OH256188   2.456   5.389  12.133 -0.2380  0.0714 -0.1110
11566TIP3    H156189   2.529   5.331  12.156  1.3801  1.9143 -0.4555
11566TIP3    H256190   2.389   5.331  12.098  0.9668 -1.6893  0.4368
11567TIP3   OH256191   0.243   1.112  15.292 -0.1598 -0.0696  0.2537
11567TIP3    H156192   0.204   1.113  15.205 -1.1417 -2.1222  0.6423
11567TIP3    H256193   0.188   1.052  15.342  0.5216  0.8978  2.2348
11568TIP3   OH256194   1.868   5.242   3.766 -0.0770 -0.1707 -0.0604
11568TIP3    H156195   1.808   5.305   3.806  0.6544  0.8929 -0.5957
11568TIP3    H256196   1.813   5.190   3.707 -0.4260  1.0686 -0.8554
11569TIP3   OH256197   2.277   3.073  14.134  0.6297 -0.0676 -0.6263
11569TIP3    H156198   2.344   3.139  14.150 -0.4812  0.9768 -0.3081
11569TIP3    H256199   2.289   3.050  14.041  1.0898  0.4802 -0.7059
11570TIP3   OH256200   4.429   4.960  17.233  0.0009  0.2924 -0.4866
11570TIP3    H156201   4.449   5.048  17.201  0.0512  0.7522  0.7845
11570TIP3    H256202   4.340   4.942  17.200 -0.2991  1.1141 -0.1335
11571TIP3   OH256203   4.281   1.453  15.986 -0.5080 -0.0531 -0.1160
11571TIP3    H156204   4.253   1.518  16.050  1.2129 -0.1686  0.7671
11571TIP3    H256205   4.300   1.504  15.907 -2.2016  0.1367 -0.4150
11572TIP3   OH256206   6.452   2.518  16.509  0.0968 -0.2672  0.2740
11572TIP3    H156207   6.524   2.463  16.476  0.4851  0.8254 -0.7255
11572TIP3    H256208   6.419   2.471  16.586  1.9397 -0.7352  0.7981
11573TIP3   OH256209   2.925   5.010  15.747 -0.1563  0.3013 -0.9837
11573TIP3    H156210   2.976   4.961  15.811 -0.2488  3.2326  1.4516
11573TIP3    H256211   2.966   5.097  15.743 -1.1048  0.7045 -3.7618
11574TIP3   OH256212   2.345   0.861  10.783  0.2343  0.2611  0.1961
11574TIP3    H156213   2.332   0.773  10.818  0.1901  0.0352 -0.3865
11574TIP3    H256214   2.391   0.908  10.852  0.5934 -0.3285  0.3607
11575TIP3   OH256215   0.977   3.055  12.637  0.5336 -0.3774  0.0533
11575TIP3    H156216   1.060   3.093  12.610  0.3518  1.8920  2.5890
11575TIP3    H256217   0.998   2.964  12.659  2.0254 -0.2387 -0.7436
11576TIP3   OH256218   1.811   1.168   5.342  0.3881 -0.4578 -0.6740
11576TIP3    H156219   1.859   1.240   5.301  1.2449  0.3003  1.5766
11576TIP3    H256220   1.784   1.202   5.427  2.5433 -3.4006  1.3149
11577TIP3   OH256221   0.244   1.125   1.561  0.9214  0.0381 -0.3267
11577TIP3    H156222   0.314   1.184   1.589  1.1818 -0.5152  0.2105
11577TIP3    H256223   0.231   1.067   1.636  0.3349 -0.2773 -0.6697
11578TIP3   OH256224   2.750   6.420   0.478  0.5634 -0.7454 -0.2536
11578TIP3    H156225   2.828   6.472   0.496 -1.9619  2.6548  1.3547
11578TIP3    H256226   2.774   6.367   0.402  3.9600  1.2305 -0.6625
11579TIP3   OH256227   6.205   3.509   5.109  0.5349  0.2565  0.1105
11579TIP3    H156228   6.205   3.604   5.116  0.8886  0.2557  0.1175
11579TIP3    H256229   6.210   3.491   5.016  2.4471  0.2398  0.1995
11580TIP3   OH256230   6.625   3.345   3.168  0.1205 -0.6145  0.2819
11580TIP3    H156231   6.710   3.387   3.154 -0.2908 -0.1681 -0.9411
11580TIP3    H256232   6.629   3.263   3.119 -0.2801 -0.4333 -0.0554
11581TIP3   OH256233   2.227   4.586  16.276  0.2490 -0.1174  0.8376
11581TIP3    H156234   2.178   4.668  16.279  1.1963  0.5730 -1.4333
11581TIP3    H256235   2.200   4.544  16.194 -0.0286 -1.9829  1.8468
11582TIP3   OH256236   6.416   2.733   1.503 -0.3690 -0.1313 -0.8655
11582TIP3    H156237   6.482   2.755   1.438  0.3281  0.0981 -0.0958
11582TIP3    H256238   6.335   2.771   1.470 -0.2656 -1.0496 -2.1824
11583TIP3   OH256239   4.418   1.792  14.191  0.0325  0.3028  0.4402
11583TIP3    H156240   4.416   1.879  14.152 -1.3084 -0.4230 -1.1485
11583TIP3    H256241   4.326   1.767  14.199  0.3156 -0.0664  2.9841
11584TIP3   OH256242   6.714   4.982  10.695 -0.6033  0.3025 -0.2344
11584TIP3    H156243   6.711   4.913  10.629  0.6635 -1.4166  1.4630
11584TIP3    H256244   6.804   5.014  10.693 -0.2119 -0.6507  1.5454
11585TIP3   OH256245   6.527   1.307  15.793 -0.4537 -0.0429  0.0054
11585TIP3    H156246   6.530   1.211  15.785  1.0819  0.0652 -1.0552
11585TIP3    H256247   6.476   1.323  15.872 -0.2301 -1.7616  0.5190
11586TIP3   OH256248   4.600   6.296   2.312 -0.3266 -0.9827 -0.5965
11586TIP3    H156249   4.585   6.315   2.404 -1.1032 -0.3582 -0.8444
11586TIP3    H256250   4.547   6.360   2.265 -2.1468 -3.0494 -1.4760
11587TIP3   OH256251   1.451   6.545  13.730 -0.2054  0.4743 -0.1216
11587TIP3    H156252   1.501   6.510  13.656 -1.0553 -0.2818 -0.3592
11587TIP3    H256253   1.404   6.620  13.694  0.3896  0.8912 -0.0217
11588TIP3   OH256254   4.732   2.396  11.016  0.3745  0.0519 -0.1392
11588TIP3    H156255   4.763   2.486  11.005 -0.6515  0.5169  0.6936
11588TIP3    H256256   4.674   2.380  10.942  0.6897  0.0014 -0.3803
11589TIP3   OH256257   3.392   0.043   1.932 -0.7417  0.0520 -0.2881
11589TIP3    H156258   3.435   0.034   1.847  2.1757  0.1203  1.1088
11589TIP3    H256259   3.391  -0.046   1.968  1.6802  0.5941  1.2474
11590TIP3   OH256260   0.655   4.120  14.832 -0.4833 -0.1446 -0.3865
11590TIP3    H156261   0.716   4.134  14.904 -0.1779 -1.4609 -0.3605
11590TIP3    H256262   0.668   4.194  14.774  0.4951  0.0474  0.0713
11591TIP3   OH256263   4.316   1.620  13.790  0.0352  0.6662  0.1790
11591TIP3    H156264   4.231   1.580  13.810 -0.3095  1.5118  0.4342
11591TIP3    H256265   4.380   1.554  13.816 -0.5303  0.2136  0.4396
11592TIP3   OH256266   6.694   4.891   3.992 -0.1352  0.4664 -0.4196
11592TIP3    H156267   6.642   4.899   3.912 -3.6525  0.1177  1.7282
11592TIP3    H256268   6.740   4.974   3.998  1.0494  0.0885 -3.3402
11593TIP3   OH256269   3.849   5.019  11.159  0.2203 -0.7737 -0.5785
11593TIP3    H156270   3.848   4.977  11.073  0.9203 -1.4447 -0.2641
11593TIP3    H256271   3.909   5.093  11.148  0.0034 -0.6230 -0.7692
11594TIP3   OH256272   0.847   2.990  16.737 -0.2290  0.1400  0.2339
11594TIP3    H156273   0.842   3.083  16.715 -0.5802 -0.0764 -0.6231
11594TIP3    H256274   0.763   2.954  16.709  0.2849 -0.6230 -0.3500
11595TIP3   OH256275   4.736   0.980   3.027  0.6665  0.4545  0.3306
11595TIP3    H156276   4.811   0.987   3.087  1.5727  1.8422 -0.9207
11595TIP3    H256277   4.675   1.046   3.058  0.6333  0.3858  0.4126
11596TIP3   OH256278   5.890   5.947   3.059  0.6222 -0.0817 -0.1516
11596TIP3    H156279   5.890   5.852   3.068 -0.5169 -0.0552  0.2517
11596TIP3    H256280   5.938   5.978   3.135  3.0866 -0.4127 -1.5195
11597TIP3   OH256281   6.616   3.492   1.697 -0.3540  0.0527 -0.1319
11597TIP3    H156282   6.662   3.561   1.650  1.9006  0.4931  2.6056
11597TIP3    H256283   6.630   3.413   1.644  1.8054  0.6020 -0.4047
11598TIP3   OH256284   0.192   5.537  15.345 -0.7273 -0.0017 -0.3567
11598TIP3    H156285   0.148   5.461  15.383 -1.5691  0.3400 -0.6433
11598TIP3    H256286   0.155   5.612  15.392  0.5409  0.1991  0.3538
11599TIP3   OH256287   4.956   4.109   5.457  0.2891 -0.3419  0.1836
11599TIP3    H156288   4.957   4.203   5.472  1.8976 -0.3451  0.2462
11599TIP3    H256289   4.922   4.099   5.368  1.8175  0.4311 -0.5143
11600TIP3   OH256290   2.336   5.124  15.083 -0.1316  0.3176  0.1047
11600TIP3    H156291   2.257   5.072  15.095 -1.1872  1.9744  0.4964
11600TIP3    H256292   2.404   5.074  15.129 -1.1613 -0.5793  0.6888
11601TIP3   OH256293   4.673   3.566   3.234  0.0010 -0.2718 -0.5988
11601TIP3    H156294   4.699   3.546   3.144  3.0342  0.0192  0.1542
11601TIP3    H256295   4.748   3.613   3.270 -1.8869  1.1662  1.5566
11602TIP3   OH256296   0.530   4.697   3.086  0.4426 -0.4764  0.1310
11602TIP3    H156297   0.470   4.643   3.138 -0.7079  0.3005 -0.3433
11602TIP3    H256298   0.548   4.645   3.009  0.3982 -0.7427  0.3008
11603TIP3   OH256299   3.175   0.158   2.074 -0.5216 -0.0386  0.3780
11603TIP3    H156300   3.196   0.244   2.037 -2.4909  0.0401 -0.6645
11603TIP3    H256301   3.214   0.095   2.014 -0.6920  0.1193  0.1010
11604TIP3   OH256302   3.652   6.007   4.422  0.0601 -0.1648 -0.4524
11604TIP3    H156303   3.718   6.076   4.410 -0.3865  0.0494 -1.7968
11604TIP3    H256304   3.631   6.009   4.515  3.4130 -1.5985  0.3838
11605TIP3   OH256305   1.575   5.156  16.567  0.2690 -0.2571 -0.5799
11605TIP3    H156306   1.636   5.180  16.637 -0.2290 -1.2398  0.2169
11605TIP3    H256307   1.596   5.064  16.548 -0.5659 -0.4238 -0.7097
11606TIP3   OH256308   5.784   2.579   0.123 -0.6045  0.2063 -0.3819
11606TIP3    H156309   5.743   2.497   0.097 -0.7687 -0.5895  2.2757
11606TIP3    H256310   5.846   2.598   0.052 -1.5454 -1.4727 -1.6979
11607TIP3   OH256311   5.799   3.831  16.878 -0.1732 -0.6993  0.2789
11607TIP3    H156312   5.890   3.830  16.908 -0.2531 -0.9943  0.5208
11607TIP3    H256313   5.802   3.794  16.790  0.1798  0.9491 -0.4326
11608TIP3   OH256314   5.382   6.291  12.723  0.1666  0.1588 -0.1736
11608TIP3    H156315   5.426   6.225  12.669 -1.4656 -1.8389  0.8576
11608TIP3    H256316   5.385   6.255  12.812 -0.7384  1.4783  0.4048
11609TIP3   OH256317   3.980   4.032   2.405 -0.1193 -0.3379  0.0748
11609TIP3    H156318   3.987   3.981   2.325  0.8396  1.1193 -0.7928
11609TIP3    H256319   4.059   4.011   2.454 -1.4482 -2.4414  1.4011
11610TIP3   OH256320   2.386   2.904  15.987 -0.4938  0.0384  0.3173
11610TIP3    H156321   2.405   2.834  16.048 -1.0596 -0.4392 -0.0446
11610TIP3    H256322   2.455   2.969  16.002  0.4244 -0.8948  0.1832
11611TIP3   OH256323   2.497   5.595  16.723 -0.7910  0.0971  0.4642
11611TIP3    H156324   2.439   5.524  16.749 -0.7788  0.3932  1.3000
11611TIP3    H256325   2.563   5.552  16.668 -0.8855 -0.5039  0.8153
11612TIP3   OH256326   6.390   0.729   3.014 -0.1708  0.0951 -0.1324
11612TIP3    H156327   6.476   0.768   3.030 -0.0028 -0.7323  1.1219
11612TIP3    H256328   6.352   0.719   3.102 -1.7299  0.8551 -0.7025
11613TIP3   OH256329   5.291   0.378  16.576 -0.8307 -0.5580  0.2087
11613TIP3    H156330   5.294   0.454  16.518  1.7190 -0.4923  0.3718
11613TIP3    H256331   5.292   0.303  16.517  0.3699 -0.4783  0.1178
11614TIP3   OH256332   1.119   1.861  13.501 -0.2945 -0.4257 -0.5950
11614TIP3    H156333   1.150   1.884  13.413 -1.0545 -0.0942 -0.7873
11614TIP3    H256334   1.087   1.771  13.492  0.5635 -0.7539 -0.4060
11615TIP3   OH256335   1.886   4.767  11.326  0.3325 -0.1127  0.0550
11615TIP3    H156336   1.982   4.770  11.317  0.3269 -2.8365 -1.8304
11615TIP3    H256337   1.857   4.854  11.302  2.3112  0.4679 -0.3628
11616TIP3   OH256338   3.391   1.690   1.660 -0.6659 -0.1209  0.1821
11616TIP3    H156339   3.298   1.681   1.640 -0.9501  2.0670  0.3831
11616TIP3    H256340   3.405   1.635   1.737 -0.7137 -4.3105 -2.6236
11617TIP3   OH256341   5.949   3.055  13.784  0.0188  0.3118 -1.1119
11617TIP3    H156342   5.874   3.031  13.838 -0.0438 -1.2858 -1.8890
11617TIP3    H256343   6.014   2.987  13.801  0.1364 -0.0054 -2.7459
11618TIP3   OH256344   2.275   1.063   2.812 -0.0040  0.4740 -0.3824
11618TIP3    H156345   2.202   1.016   2.772 -1.7803  3.5590 -0.8757
11618TIP3    H256346   2.242   1.152   2.826  2.5042  1.0048  2.6475
11619TIP3   OH256347   2.451   5.269   1.488  0.2029  0.5604  0.2780
11619TIP3    H156348   2.454   5.345   1.431  0.3299 -1.3276 -2.3062
11619TIP3    H256349   2.358   5.250   1.499  0.1413  1.4697  1.5251
11620TIP3   OH256350   3.759   5.502   1.923  0.1327  0.3123 -0.0018
11620TIP3    H156351   3.779   5.409   1.926  0.5505  0.3917 -0.2126
11620TIP3    H256352   3.804   5.539   1.998  0.4496  0.4312 -0.2492
11621TIP3   OH256353   3.527   4.933  15.700  0.2291 -0.3193 -0.2443
11621TIP3    H156354   3.435   4.960  15.701  0.5434  0.7773 -0.0630
11621TIP3    H256355   3.545   4.902  15.789  0.2164  0.1149 -0.0877
11622TIP3   OH256356   6.753   4.147  15.537  0.1352  0.4023  0.5211
11622TIP3    H156357   6.682   4.094  15.501  1.2864 -0.4331 -0.5566
11622TIP3    H256358   6.784   4.199  15.463  0.2669  1.1912  1.1288
11623TIP3   OH256359   4.805   2.497  13.704  0.1583 -0.0303  0.1083
11623TIP3    H156360   4.799   2.425  13.768  1.1463  0.9983  1.3810
11623TIP3    H256361   4.716   2.506  13.670 -0.1898 -1.2019  0.6712
11624TIP3   OH256362   4.710   6.747   1.484 -0.7176  0.3553  0.5792
11624TIP3    H156363   4.630   6.702   1.513 -1.0699 -2.7976 -4.5031
11624TIP3    H256364   4.678   6.817   1.427  0.0809 -0.3847 -0.8021
11625TIP3   OH256365   4.019   4.534  16.009 -0.3535 -0.0477  0.4422
11625TIP3    H156366   4.098   4.495  16.048  0.6634  1.0626 -0.4646
11625TIP3    H256367   4.026   4.627  16.028 -0.9814  0.1908 -0.4516
11626TIP3   OH256368   5.487   2.492   4.600  0.4639  0.3984  0.0124
11626TIP3    H156369   5.563   2.500   4.542 -0.6866  0.5479 -1.5185
11626TIP3    H256370   5.430   2.564   4.574 -2.0421 -2.1347 -1.7308
11627TIP3   OH256371   6.360   1.602  11.160  0.6074  0.2426 -0.0984
11627TIP3    H156372   6.361   1.508  11.141 -0.3529  0.3272 -0.5885
11627TIP3    H256373   6.361   1.644  11.074  2.5097  0.7056  0.1355
11628TIP3   OH256374   3.159   2.536  14.936  0.0723  0.4228 -0.1697
11628TIP3    H156375   3.124   2.521  15.024 -1.4798 -0.8808 -0.9832
11628TIP3    H256376   3.081   2.544  14.880  1.0462 -2.0310 -1.9313
11629TIP3   OH256377   1.504   1.987  15.993  0.0190 -0.3733 -0.2304
11629TIP3    H156378   1.496   1.914  16.055 -0.2354  0.1701  0.3705
11629TIP3    H256379   1.423   1.984  15.942 -0.8063  0.5884  0.9902
11630TIP3   OH256380   0.268   6.643   3.993  0.1810 -0.5225  0.3105
11630TIP3    H156381   0.194   6.687   4.034  1.6047  1.1137  1.1880
11630TIP3    H256382   0.276   6.560   4.041 -0.7112 -0.4590  0.5803
11631TIP3   OH256383   6.789   1.709   1.459 -0.0302  0.3379 -0.0052
11631TIP3    H156384   6.748   1.703   1.546 -2.2243  0.4292 -1.0028
11631TIP3    H256385   6.832   1.624   1.447 -0.3376  0.0544  0.8713
11632TIP3   OH256386   5.735   1.561   5.932  0.4395 -0.6330  0.2259
11632TIP3    H156387   5.645   1.579   5.958  1.4010  1.7026  2.1804
11632TIP3    H256388   5.771   1.507   6.002  0.9708 -0.3753  0.1593
11633TIP3   OH256389   0.685   6.650  12.292  0.2158  0.2030 -0.0674
11633TIP3    H156390   0.608   6.706  12.282 -0.5942 -1.0015 -0.7402
11633TIP3    H256391   0.666   6.597  12.369  1.2597  1.2756  0.9425
11634TIP3   OH256392   1.569   0.322  16.085 -0.1175  0.6501  0.3505
11634TIP3    H156393   1.632   0.270  16.134  0.4968  0.0912 -1.0315
11634TIP3    H256394   1.506   0.259  16.052 -0.6935  1.0627  0.6526
11635TIP3   OH256395   3.147   4.002  14.281  0.1057  0.0429  0.5130
11635TIP3    H156396   3.174   4.014  14.372  0.3907  0.7077  0.3496
11635TIP3    H256397   3.081   4.070  14.267  1.9452  1.6667 -0.5271
11636TIP3   OH256398   4.823   5.887   3.564 -0.1722  0.7011  0.0740
11636TIP3    H156399   4.853   5.868   3.652 -0.3269 -0.9670 -0.2174
11636TIP3    H256400   4.827   5.803   3.518  0.8191  1.7277 -1.7786
11637TIP3   OH256401   6.271   5.286   2.168  0.1021 -0.2151 -0.5308
11637TIP3    H156402   6.238   5.219   2.108 -2.0411 -1.7028  2.1676
11637TIP3    H256403   6.332   5.239   2.225  1.4309  0.9798 -0.9483
11638TIP3   OH256404   0.642   4.491  14.228 -1.1654  0.4875 -0.3555
11638TIP3    H156405   0.644   4.448  14.313  2.3732 -0.6891 -0.9491
11638TIP3    H256406   0.665   4.582  14.245  0.9008 -0.0479 -0.1621
11639TIP3   OH256407   6.097   1.903  14.752  0.2021 -0.0007  0.2098
11639TIP3    H156408   6.097   1.951  14.835  0.0474 -1.8759  1.3313
11639TIP3    H256409   6.139   1.962  14.690  4.0064 -0.0562  2.5631
11640TIP3   OH256410   4.108   2.807   6.432  0.3079  0.1974 -0.5727
11640TIP3    H156411   4.198   2.813   6.401 -0.0390  1.4547 -1.3887
11640TIP3    H256412   4.056   2.796   6.352 -0.2899 -0.0683 -0.1504
11641TIP3   OH256413   4.988   5.102  10.854 -0.1185 -0.0525  0.0868
11641TIP3    H156414   5.012   5.192  10.832  1.6369 -0.3685  0.6309
11641TIP3    H256415   4.904   5.088  10.809  0.2673  1.3899 -1.1254
11642TIP3   OH256416   0.537   4.956  15.889 -0.1277 -0.0688 -0.8881
11642TIP3    H156417   0.494   4.871  15.887 -1.5466  0.5702  1.0073
11642TIP3    H256418   0.475   5.016  15.846 -0.2518  0.4719  0.0301
11643TIP3   OH256419   3.486   6.599   2.531 -0.3609  0.0576  0.6658
11643TIP3    H156420   3.562   6.581   2.476 -1.2229  0.0423 -0.5381
11643TIP3    H256421   3.448   6.513   2.550 -1.3839  0.2229 -0.6228
11644TIP3   OH256422   1.066   5.634  14.879  0.4635 -0.4981 -0.8202
11644TIP3    H156423   1.003   5.569  14.850 -1.6487  1.2221 -0.2169
11644TIP3    H256424   1.072   5.621  14.974 -2.3692  2.1696 -0.2124
11645TIP3   OH256425   1.411   2.249   1.935 -0.6616  0.1014  0.3705
11645TIP3    H156426   1.333   2.243   1.879 -0.1682  1.0623 -0.4248
11645TIP3    H256427   1.472   2.304   1.886  0.1700  0.1107  1.3989
11646TIP3   OH256428   6.735   3.934   5.044 -0.5881  0.0115 -0.1659
11646TIP3    H156429   6.657   3.927   5.099  1.1496  2.6239  2.7755
11646TIP3    H256430   6.746   4.028   5.030  0.9947 -0.4263 -2.1422
11647TIP3   OH256431   2.832   2.381   4.368  0.1123 -0.4959  0.2337
11647TIP3    H156432   2.841   2.286   4.356  0.9910 -0.2335 -1.2824
11647TIP3    H256433   2.744   2.392   4.403  0.9348 -2.0977  3.0496
11648TIP3   OH256434   1.960   3.409  14.044  0.0869 -0.3398 -0.0467
11648TIP3    H156435   1.896   3.341  14.061 -0.9194  0.5682 -0.1269
11648TIP3    H256436   1.936   3.443  13.957 -1.8110  2.6708  1.5421
11649TIP3   OH256437   3.364   4.468  16.167 -0.1510 -0.6450  0.4821
11649TIP3    H156438   3.318   4.408  16.109 -0.8958 -0.1067  0.5057
11649TIP3    H256439   3.434   4.415  16.206 -0.3216 -1.2895 -0.0791
11650TIP3   OH256440   0.956   4.478  12.332 -0.2491 -0.1151 -0.1559
11650TIP3    H156441   0.960   4.545  12.401  0.1328 -0.8786  0.5672
11650TIP3    H256442   0.873   4.433  12.348 -0.6682  0.3920 -0.8504
11651TIP3   OH256443   1.891   5.951   5.246 -0.0258 -0.3821 -0.5488
11651TIP3    H156444   1.944   5.933   5.323  0.8013  1.2900 -0.6811
11651TIP3    H256445   1.824   5.883   5.245  0.3331 -0.7802  1.2815
11652TIP3   OH256446   5.122   0.537  14.388 -0.1394 -0.3991 -0.0355
11652TIP3    H156447   5.086   0.618  14.425 -0.2994 -0.3094 -0.3923
11652TIP3    H256448   5.208   0.529  14.429  0.3330  0.5273 -0.8303
11653TIP3   OH256449   4.959   6.203   0.586  0.1709 -0.2250 -0.3964
11653TIP3    H156450   5.023   6.264   0.550 -1.0512  0.6232 -1.1426
11653TIP3    H256451   5.004   6.162   0.660  1.0127  1.5618  0.0905
11654TIP3   OH256452   3.571   6.529   5.393  0.1505  0.2031 -0.0853
11654TIP3    H156453   3.616   6.478   5.461  0.7026 -0.6067 -1.0401
11654TIP3    H256454   3.610   6.499   5.311 -0.6107  1.0688 -0.7760
11655TIP3   OH256455   2.293   3.717   6.517 -0.1067 -0.1849 -0.3529
11655TIP3    H156456   2.210   3.709   6.471 -0.7222 -0.2183  0.7360
11655TIP3    H256457   2.282   3.795   6.572  0.0858 -0.9719  0.8083
11656TIP3   OH256458   5.893   5.606  15.218  0.5733  0.7695  0.0664
11656TIP3    H156459   5.911   5.647  15.133  1.7653  1.2912  0.5516
11656TIP3    H256460   5.978   5.606  15.262  0.1992 -0.5611  0.7979
11657TIP3   OH256461   1.357   2.852   5.676 -0.3666 -0.3310 -0.2605
11657TIP3    H156462   1.322   2.933   5.639  2.0501  1.0567  0.4043
11657TIP3    H256463   1.362   2.792   5.602 -1.6992  0.2598 -0.8498
11658TIP3   OH256464   3.217   1.215   5.616 -0.4611  0.2653 -0.1365
11658TIP3    H156465   3.229   1.165   5.697  1.5494  0.5084 -0.2719
11658TIP3    H256466   3.234   1.306   5.642  0.0554  0.3606 -0.8011
11659TIP3   OH256467   4.775   4.007  12.246  0.4041  0.3495 -0.6505
11659TIP3    H156468   4.703   4.028  12.186  0.0640 -0.7139 -0.6250
11659TIP3    H256469   4.779   4.082  12.305  0.0711  0.9447 -1.3587
11660TIP3   OH256470   2.689   0.750   5.408  0.3260  0.3023  0.6304
11660TIP3    H156471   2.679   0.767   5.314  3.1386  3.4034  0.7906
11660TIP3    H256472   2.771   0.701   5.415  0.2858  0.3515  1.4959
11661TIP3   OH256473   2.350   2.889   1.642 -0.4521  0.3015  0.1576
11661TIP3    H156474   2.410   2.841   1.699 -0.7038 -0.9592 -0.6242
11661TIP3    H256475   2.271   2.901   1.694  0.7841  2.8743  1.5768
11662TIP3   OH256476   5.870   4.273   1.813  0.0149 -0.2533 -0.2920
11662TIP3    H156477   5.778   4.282   1.790  0.2952  0.5137 -1.1682
11662TIP3    H256478   5.897   4.190   1.772  0.1988  0.5015 -1.7577
11663TIP3   OH256479   0.717   4.158   0.853 -0.1805 -0.2198  0.4556
11663TIP3    H156480   0.770   4.079   0.858 -0.6176 -0.4723  1.1004
11663TIP3    H256481   0.742   4.209   0.930 -0.8452 -0.3159  0.7294
11664TIP3   OH256482   2.000   3.828   3.563  0.1220 -0.3665 -0.1079
11664TIP3    H156483   2.038   3.871   3.486  0.5515 -1.6369 -0.6281
11664TIP3    H256484   2.017   3.734   3.548 -3.1266 -0.9707 -0.3108
11665TIP3   OH256485   6.592   1.199   3.790 -0.0427  0.6280 -0.0245
11665TIP3    H156486   6.560   1.182   3.701  2.4334 -0.2753 -0.7666
11665TIP3    H256487   6.633   1.285   3.784  0.7610  0.2519  0.0683
11666TIP3   OH256488   4.464   6.456   4.949  0.0744 -0.2104 -0.0148
11666TIP3    H156489   4.548   6.488   4.983 -0.2707  0.0892  0.5549
11666TIP3    H256490   4.412   6.437   5.027 -0.9093  0.9674 -0.3680
11667TIP3   OH256491   5.919   0.940  15.694  0.2799  0.1114  0.2341
11667TIP3    H156492   5.984   0.879  15.658  0.8282  0.6335  0.3333
11667TIP3    H256493   5.933   1.021  15.645 -0.3405  0.2101  0.2143
11668TIP3   OH256494   1.285   6.455   3.710  0.2281 -0.2852  0.2298
11668TIP3    H156495   1.307   6.500   3.628 -0.4382 -0.3860 -0.0066
11668TIP3    H256496   1.198   6.486   3.731  0.0745 -0.8850  0.4725
11669TIP3   OH256497   1.980   1.432   2.519  0.1561 -0.2404 -0.1921
11669TIP3    H156498   1.982   1.360   2.456  1.3534 -0.1819 -0.2227
11669TIP3    H256499   2.060   1.422   2.570 -1.3603 -1.0078  2.1483
11670TIP3   OH256500   6.058   2.539   6.754 -0.2740  0.0243 -0.0073
11670TIP3    H156501   6.127   2.474   6.764 -0.4771 -0.6815 -2.6881
11670TIP3    H256502   6.003   2.504   6.683 -1.6290  2.0591  0.0020
11671TIP3   OH256503   5.724   1.522  10.920  0.1161  0.0341  0.0834
11671TIP3    H156504   5.637   1.482  10.921 -0.9006  2.1983  0.7416
11671TIP3    H256505   5.712   1.604  10.873  1.7554  0.4555  0.3733
11672TIP3   OH256506   5.785   3.896  13.621 -0.7775  0.1195 -0.1840
11672TIP3    H156507   5.805   3.937  13.536 -1.5940  0.9946  0.0387
11672TIP3    H256508   5.832   3.949  13.685 -0.4639 -0.3151 -0.0522
11673TIP3   OH256509   0.575   2.070  12.320  0.2776 -0.0775 -0.2405
11673TIP3    H156510   0.638   2.140  12.303  0.9787 -0.2699  1.3943
11673TIP3    H256511   0.490   2.109  12.300  0.6441  1.3185  0.7930
11674TIP3   OH256512   2.412   4.031   0.033 -0.0121 -0.1145  0.4198
11674TIP3    H156513   2.425   4.091  -0.041 -1.5918 -1.0994 -0.7006
11674TIP3    H256514   2.347   4.075   0.088  0.8171  0.4043  0.9975
11675TIP3   OH256515   3.996   6.102  11.478 -0.2286  0.2453  0.5620
11675TIP3    H156516   3.957   6.052  11.549  0.2566 -0.7351  0.1541
11675TIP3    H256517   4.091   6.097  11.494 -0.1329  0.2707  0.0270
11676TIP3   OH256518   2.711   6.228   1.968  0.1650 -0.1063  0.8973
11676TIP3    H156519   2.806   6.231   1.969  0.1322  1.9390  0.4664
11676TIP3    H256520   2.688   6.151   2.020  2.0747 -1.6175 -0.4604
11677TIP3   OH256521   0.121   2.364  15.431  0.0755 -0.2620  0.0851
11677TIP3    H156522   0.050   2.398  15.485  0.3847  0.7684 -0.1392
11677TIP3    H256523   0.125   2.271  15.451  1.2862  0.4013  3.0630
11678TIP3   OH256524   2.754   6.277   0.225  0.0979 -0.0660 -0.1601
11678TIP3    H156525   2.709   6.193   0.213 -0.0789  0.1624 -1.1590
11678TIP3    H256526   2.841   6.263   0.188 -0.0350  0.2783 -0.6146
11679TIP3   OH256527   5.390   0.136   5.857 -0.4459 -0.1493  0.5443
11679TIP3    H156528   5.304   0.149   5.896  0.5093 -0.0674  2.7002
11679TIP3    H256529   5.413   0.045   5.878  0.7150  0.3458  1.5087
11680TIP3   OH256530   0.242   5.059  14.328 -0.0363 -0.0697  0.2012
11680TIP3    H156531   0.232   4.965  14.310 -1.3461  0.1967 -0.4855
11680TIP3    H256532   0.335   5.076  14.313  0.2788 -1.3082  0.6032
11681TIP3   OH256533   2.558   6.018  15.843 -0.4014  0.1722 -0.0978
11681TIP3    H156534   2.578   5.941  15.894  0.7515  0.8314  0.4500
11681TIP3    H256535   2.643   6.053  15.816 -0.9053  1.2404 -0.3482
11682TIP3   OH256536   5.627   3.106  12.689  0.6576 -0.5512 -0.1859
11682TIP3    H156537   5.617   3.165  12.763 -0.0373 -2.3606  1.2092
11682TIP3    H256538   5.604   3.159  12.613  1.2327  1.3004  0.8828
11683TIP3   OH256539   4.987   1.986  14.575  0.5091 -0.3905  0.1654
11683TIP3    H156540   4.963   2.056  14.636  0.8602 -0.0215 -0.1175
11683TIP3    H256541   5.081   1.975  14.587  0.2732 -1.6084  1.0274
11684TIP3   OH256542   4.057   6.808   4.454 -0.1060  0.3786 -0.8692
11684TIP3    H156543   4.052   6.746   4.381  2.2511 -2.6048  1.3842
11684TIP3    H256544   3.965   6.829   4.474 -1.0125 -2.7568 -1.4275
11685TIP3   OH256545   5.720   3.756   3.950  0.3847 -0.1594  0.0090
11685TIP3    H156546   5.761   3.842   3.949 -0.3483  0.2040  0.5025
11685TIP3    H256547   5.787   3.696   3.918  0.7147  0.6763 -0.8744
11686TIP3   OH256548   1.066   0.745   0.559  0.4288 -0.4802  0.0665
11686TIP3    H156549   0.973   0.754   0.582  0.6548 -0.9296  1.2183
11686TIP3    H256550   1.091   0.659   0.595  1.1559 -0.5886 -0.6980
11687TIP3   OH256551   2.542   2.268  15.565  0.0670  0.1282  0.5357
11687TIP3    H156552   2.614   2.212  15.594  0.5882  1.0268  0.9916
11687TIP3    H256553   2.466   2.210  15.564  0.7829 -0.8115  0.1128
11688TIP3   OH256554   5.817   2.308   1.624 -0.3774  0.3328 -0.7821
11688TIP3    H156555   5.765   2.344   1.552 -0.0536 -0.7253 -1.5776
11688TIP3    H256556   5.839   2.219   1.594  0.2492  0.0902  0.3813
11689TIP3   OH256557   5.403   2.734  16.653  0.1095 -0.2883 -0.0713
11689TIP3    H156558   5.314   2.770  16.656  0.3494  0.4538 -1.3768
11689TIP3    H256559   5.427   2.739  16.561  0.8807 -2.0716  0.0177
11690TIP3   OH256560   0.112   4.335  12.125 -0.6358 -0.2312 -0.0655
11690TIP3    H156561   0.112   4.368  12.035  0.6209  1.1013  0.3986
11690TIP3    H256562   0.193   4.371  12.163 -0.0355 -2.5919  0.9356
11691TIP3   OH256563   3.004   2.518   3.182  0.2933  0.2480  0.3466
11691TIP3    H156564   2.951   2.466   3.243 -0.9893 -0.3279 -1.2285
11691TIP3    H256565   3.087   2.471   3.177 -0.1520 -0.5696  0.4546
11692TIP3   OH256566   3.060   4.083  14.558  0.5756 -0.2165  0.4900
11692TIP3    H156567   2.986   4.119  14.510  1.1546  0.5144  0.1266
11692TIP3    H256568   3.057   4.126  14.644  0.4532 -0.3478  0.5509
11693TIP3   OH256569   3.880   5.049  12.681  0.7124 -0.1187 -0.3431
11693TIP3    H156570   3.828   4.979  12.642  0.2555  0.3329 -0.5559
11693TIP3    H256571   3.933   5.005  12.747 -1.0667 -0.3834  0.9732
11694TIP3   OH256572   0.161   6.434  13.208 -0.2164  0.5433  0.3190
11694TIP3    H156573   0.153   6.338  13.207 -2.1816  0.6876 -0.1544
11694TIP3    H256574   0.254   6.450  13.227 -0.5576 -1.3952  4.0107
11695TIP3   OH256575   2.521   2.340   0.624  0.6051  0.3932 -0.5322
11695TIP3    H156576   2.497   2.330   0.716  0.4030  2.4053 -0.3300
11695TIP3    H256577   2.594   2.401   0.625  2.4777 -1.7854 -1.5288
11696TIP3   OH256578   0.460   2.074   3.722  0.1959  0.7444 -0.0628
11696TIP3    H156579   0.526   2.015   3.759  1.5364  2.9829  1.2861
11696TIP3    H256580   0.380   2.052   3.769  0.7528  0.2158  0.6584
11697TIP3   OH256581   2.652   4.409  15.698 -0.0391 -0.0064 -0.4392
11697TIP3    H156582   2.713   4.395  15.625 -0.4990 -0.9133 -0.6536
11697TIP3    H256583   2.660   4.329  15.751  0.9059  0.9874  0.9616
11698TIP3   OH256584   1.224   5.256   0.710  0.3172  0.0640 -0.1792
11698TIP3    H156585   1.142   5.298   0.687 -0.0390 -0.9968 -0.8940
11698TIP3    H256586   1.290   5.299   0.655  0.1576  0.5668  0.0255
11699TIP3   OH256587   0.788   3.209   4.555 -0.0972 -0.2473  0.0537
11699TIP3    H156588   0.832   3.250   4.481 -1.6509 -2.7914 -2.3684
11699TIP3    H256589   0.857   3.160   4.600  0.8835  1.4281  0.4160
11700TIP3   OH256590   2.492   5.294  11.723  0.5673 -0.7213 -0.1958
11700TIP3    H156591   2.435   5.269  11.795 -0.8755  0.9785 -0.7042
11700TIP3    H256592   2.433   5.316  11.651  1.7998  1.8963 -0.4747
11701TIP3   OH256593   1.175   6.172   3.104  0.1434 -0.3620  0.1262
11701TIP3    H156594   1.216   6.149   3.021  0.1055 -0.5633  0.1643
11701TIP3    H256595   1.225   6.248   3.135  0.6903 -0.7997  0.3222
11702TIP3   OH256596   1.264   2.806  11.736  0.2698 -0.3867 -0.6708
11702TIP3    H156597   1.294   2.779  11.649 -0.5996  0.5407 -1.2705
11702TIP3    H256598   1.181   2.761  11.748  0.2224 -0.2469 -0.4647
11703TIP3   OH256599   3.666   6.420  13.888 -0.1093 -0.4256 -0.2262
11703TIP3    H156600   3.593   6.440  13.829  1.2942  0.6780 -1.6485
11703TIP3    H256601   3.699   6.335  13.856 -0.0024 -0.3273 -0.3801
11704TIP3   OH256602   2.010   1.485   5.950  0.2822 -0.2777  0.7952
11704TIP3    H156603   2.054   1.550   6.004  0.7985 -0.6492  0.8213
11704TIP3    H256604   2.006   1.407   6.004 -0.1652 -0.3302  0.6924
11705TIP3   OH256605   4.073   6.450   1.390  0.0400  0.0360  0.1182
11705TIP3    H156606   4.153   6.437   1.441 -0.6115  0.4593  1.2831
11705TIP3    H256607   4.044   6.362   1.366 -0.3420 -0.2549  1.6044
11706TIP3   OH256608   4.496   6.431  12.714  0.2151 -0.0460 -0.0242
11706TIP3    H156609   4.446   6.432  12.632  1.1808 -0.2594 -0.6194
11706TIP3    H256610   4.457   6.360  12.765 -1.4805  1.1485  0.3902
11707TIP3   OH256611   6.393   2.422  11.453  0.5252  0.2352  0.1810
11707TIP3    H156612   6.400   2.515  11.432  2.4494 -0.4413 -2.4298
11707TIP3    H256613   6.358   2.382  11.373 -0.2320 -1.2968  1.2612
11708TIP3   OH256614   0.462   0.431  14.754 -0.0291 -0.3618  0.2144
11708TIP3    H156615   0.460   0.337  14.732  0.0425  0.0665 -1.7282
11708TIP3    H256616   0.396   0.470  14.696  0.5511  0.9255  0.4125
11709TIP3   OH256617   6.014   2.671  12.060  0.4450 -0.6265  0.0832
11709TIP3    H156618   6.094   2.677  12.008 -0.2017 -0.6159 -0.9409
11709TIP3    H256619   5.949   2.721  12.010  0.3937  1.4328  2.1019
11710TIP3   OH256620   1.551   5.806   1.077  0.4965 -0.2307 -0.0668
11710TIP3    H156621   1.480   5.862   1.047  0.1990 -1.3014 -1.4214
11710TIP3    H256622   1.541   5.803   1.172 -1.2331 -0.3291 -0.2418
11711TIP3   OH256623   2.926   0.730   2.987 -0.4682  0.4753  0.5684
11711TIP3    H156624   2.999   0.749   2.928  0.1476  0.1876  1.2173
11711TIP3    H256625   2.851   0.774   2.949 -0.4387 -0.9989 -1.2796
11712TIP3   OH256626   1.291   5.088  15.092  0.9253  0.0903  0.3919
11712TIP3    H156627   1.267   5.178  15.069 -1.4606  0.0643  2.4717
11712TIP3    H256628   1.371   5.097  15.144 -0.5065  1.2815  2.4828
11713TIP3   OH256629   2.284   4.849  16.813 -0.1230  0.7397  0.3553
11713TIP3    H156630   2.237   4.878  16.735  0.4025  0.0680 -0.2167
11713TIP3    H256631   2.343   4.921  16.834 -0.5981  1.1128  0.4093
11714TIP3   OH256632   0.066   6.771   5.973 -0.3218 -0.2653 -0.3342
11714TIP3    H156633   0.102   6.847   5.927 -0.7140 -0.3096 -0.7172
11714TIP3    H256634   0.052   6.801   6.062  0.5687 -0.2161 -0.2091
11715TIP3   OH256635   3.889   0.866  11.986 -0.0661 -0.0974  0.2995
11715TIP3    H156636   3.846   0.865  11.901  0.2257 -1.1849  0.1462
11715TIP3    H256637   3.967   0.920  11.973  0.3491 -0.8253 -0.3312
11716TIP3   OH256638   3.261   6.262   4.972 -0.0245  0.1614  0.2404
11716TIP3    H156639   3.236   6.283   4.883 -0.2871  1.0747  0.5256
11716TIP3    H256640   3.289   6.346   5.010  1.1726 -0.4178  0.6570
11717TIP3   OH256641   1.200   5.220   1.949 -0.4928  0.4397 -0.0748
11717TIP3    H156642   1.251   5.203   1.871 -2.4969 -1.6945 -0.9764
11717TIP3    H256643   1.141   5.291   1.924  1.1334  2.0617  0.5868
11718TIP3   OH256644   1.597   2.858   2.515 -0.5594  0.2854  0.1687
11718TIP3    H156645   1.633   2.871   2.603 -0.7109 -1.3356  0.4722
11718TIP3    H256646   1.651   2.915   2.459 -0.4573  1.3122  1.2969
11719TIP3   OH256647   5.201   1.000   4.016  0.2577 -0.4960  0.2632
11719TIP3    H156648   5.240   0.941   4.081  2.2127 -2.0812 -2.2639
11719TIP3    H256649   5.275   1.048   3.978 -0.4927 -1.4530 -2.5582
11720TIP3   OH256650   4.273   1.277  12.464 -0.1071 -0.4825  0.6228
11720TIP3    H156651   4.265   1.250  12.372 -0.7293  0.3691  0.4182
11720TIP3    H256652   4.337   1.217  12.501  1.5819  0.3533 -0.8523
11721TIP3   OH256653   2.572   2.411   4.504  0.2501 -0.0990 -0.7546
11721TIP3    H156654   2.529   2.477   4.451  1.9967 -0.1842 -2.3259
11721TIP3    H256655   2.553   2.436   4.594  1.0761  2.7122 -1.3029
11722TIP3   OH256656   4.547   2.459  14.452  0.3738 -0.0046  0.1609
11722TIP3    H156657   4.568   2.521  14.521 -2.0083 -0.0596  0.9854
11722TIP3    H256658   4.558   2.373  14.492 -1.6322 -0.0309  0.7035
11723TIP3   OH256659   2.412   5.048   2.402 -0.2583  0.2359  0.0061
11723TIP3    H156660   2.489   5.103   2.390 -0.4143  0.4228 -0.1446
11723TIP3    H256661   2.338   5.110   2.401 -0.3616  0.1199  0.7342
11724TIP3   OH256662   1.305   3.470   6.126 -0.1476 -0.5737  0.0606
11724TIP3    H156663   1.382   3.443   6.177  1.0908  0.0063 -1.4740
11724TIP3    H256664   1.242   3.398   6.138  1.1533 -1.7062  0.1884
11725TIP3   OH256665   2.817   6.435  15.006  0.0085 -0.0451 -0.3221
11725TIP3    H156666   2.756   6.367  14.977  0.3995 -0.0761 -1.0958
11725TIP3    H256667   2.805   6.507  14.943 -0.8745  0.8737  0.8767
11726TIP3   OH256668   2.388   4.510   5.972  0.0014  0.1236 -0.4272
11726TIP3    H156669   2.408   4.579   6.035  1.8211 -0.0817 -0.7572
11726TIP3    H256670   2.309   4.541   5.927 -0.0572  1.2793  0.4391
11727TIP3   OH256671   2.239   2.145  11.448  0.2226  0.3360 -0.0428
11727TIP3    H156672   2.215   2.070  11.502 -0.3250  0.0292 -0.6968
11727TIP3    H256673   2.179   2.215  11.476  1.5998  0.9282  1.4729
11728TIP3   OH256674   5.511   6.314   2.031 -0.1979 -0.0631  0.1885
11728TIP3    H156675   5.420   6.326   2.002  0.4009 -0.5600 -2.0421
11728TIP3    H256676   5.561   6.375   1.977  0.9120 -0.5812  0.6198
11729TIP3   OH256677   1.752   4.769   3.073  0.6756 -0.0367  0.1474
11729TIP3    H156678   1.804   4.831   3.022  0.5908  0.8934  1.1682
11729TIP3    H256679   1.686   4.823   3.115 -0.8530 -1.1448 -0.7696
11730TIP3   OH256680   1.099   0.848  16.175  0.2313  0.1158 -0.3292
11730TIP3    H156681   1.058   0.761  16.167 -0.0698  0.3959 -2.1654
11730TIP3    H256682   1.171   0.845  16.111 -0.6201  1.6766 -1.3767
11731TIP3   OH256683   2.941   2.175   1.956  0.2349  0.2830  0.2780
11731TIP3    H156684   2.913   2.124   2.032 -0.2050  0.3917  0.1920
11731TIP3    H256685   2.954   2.264   1.991  2.2952 -0.1693  0.7035
11732TIP3   OH256686   2.173   1.806   0.808 -0.6476 -0.0266  0.0648
11732TIP3    H156687   2.130   1.875   0.758  0.3737  0.6269  0.0610
11732TIP3    H256688   2.109   1.780   0.874 -1.0523  0.9203  0.0493
11733TIP3   OH256689   3.095   0.154   3.977 -0.8308  0.9897  0.0943
11733TIP3    H156690   3.188   0.137   3.988 -0.7204  0.3107 -1.7006
11733TIP3    H256691   3.063   0.170   4.066  0.2605 -2.5583  1.2325
11734TIP3   OH256692   3.376   0.846  13.198  0.0777  0.1438  0.5914
11734TIP3    H156693   3.284   0.867  13.214 -0.1852  0.2800 -0.9524
11734TIP3    H256694   3.386   0.857  13.103  2.1553  2.0085  0.9793
11735TIP3   OH256695   6.291   3.397   1.268  0.1264  0.5046 -0.0994
11735TIP3    H156696   6.351   3.465   1.237  0.6345  0.3633  0.5632
11735TIP3    H256697   6.349   3.327   1.298 -0.3876 -0.0718 -0.4412
11736TIP3   OH256698   4.891   3.028  15.698 -0.5868  0.4361 -0.4518
11736TIP3    H156699   4.812   3.020  15.645  0.2905  1.0494 -1.8979
11736TIP3    H256700   4.924   2.939  15.706 -0.4826  0.3919 -1.3375
11737TIP3   OH256701   5.381   0.749  14.469 -0.0708  0.3311 -0.0147
11737TIP3    H156702   5.432   0.826  14.443  1.8691 -0.5402  1.0768
11737TIP3    H256703   5.443   0.676  14.460 -1.1380 -0.7686  1.3810
11738TIP3   OH256704   4.747   5.001  13.425 -0.1053 -0.1044  0.2208
11738TIP3    H156705   4.805   5.045  13.487 -0.2593  0.4458 -0.0260
11738TIP3    H256706   4.730   5.066  13.357  2.0060 -1.4832 -1.6627
11739TIP3   OH256707   0.911   3.069   4.756  0.5858  0.5356  0.9073
11739TIP3    H156708   0.823   3.030   4.763  0.8737 -0.0699  1.1891
11739TIP3    H256709   0.904   3.152   4.802 -0.1617  1.0467 -0.0928
11740TIP3   OH256710   5.293   2.882  14.582 -0.2721 -0.5367  0.0985
11740TIP3    H156711   5.267   2.871  14.490  0.0169  0.1834 -0.0763
11740TIP3    H256712   5.246   2.813  14.629 -1.6467  0.0556 -0.3727
11741TIP3   OH256713   2.205   3.314  13.744 -0.1574  0.5043 -1.0222
11741TIP3    H156714   2.291   3.346  13.774 -0.1724  0.7401 -1.2349
11741TIP3    H256715   2.187   3.365  13.665  0.0207 -0.3325 -1.6071
11742TIP3   OH256716   0.634   1.370  12.854 -0.5636 -0.7312 -0.7298
11742TIP3    H156717   0.555   1.328  12.888  0.6242 -1.6443  0.9843
11742TIP3    H256718   0.649   1.443  12.913 -1.7766  1.2720 -2.8234
11743TIP3   OH256719   4.962   4.593   2.080  0.2736  0.1643 -0.0106
11743TIP3    H156720   4.920   4.635   2.005  0.5779  0.3795 -0.0631
11743TIP3    H256721   4.965   4.661   2.148  0.8384  0.2567 -0.1220
11744TIP3   OH256722   1.949   2.611  11.565 -0.2002 -0.4877  0.3177
11744TIP3    H156723   1.860   2.643  11.576 -0.5495 -1.8178  1.3481
11744TIP3    H256724   2.000   2.690  11.545 -1.2748  0.5460  1.6079
11745TIP3   OH256725   1.026   2.643   2.318  0.0930 -0.2294 -0.1014
11745TIP3    H156726   0.946   2.605   2.353 -0.5771 -0.7546 -2.0999
11745TIP3    H256727   1.059   2.698   2.388 -0.6677 -1.9541  1.6765
11746TIP3   OH256728   3.540   3.908   1.187 -0.0390  0.2931 -0.2757
11746TIP3    H156729   3.611   3.865   1.236 -0.5627 -2.1946 -1.6039
11746TIP3    H256730   3.581   3.985   1.147  1.0082  0.9188  1.9452
11747TIP3   OH256731   1.302   4.943  15.817 -0.3263 -0.0786  0.3209
11747TIP3    H156732   1.389   4.948  15.856 -0.4326  1.5171  0.3689
11747TIP3    H256733   1.246   4.996  15.874 -1.1042 -0.1985 -0.3117
11748TIP3   OH256734   5.864   0.639  14.483 -0.2195  0.5680  0.0588
11748TIP3    H156735   5.915   0.582  14.425 -0.9226 -3.1652  2.8796
11748TIP3    H256736   5.773   0.617  14.463 -0.5000  0.7899  1.0665
11749TIP3   OH256737   4.512   4.273  14.604  0.1967 -0.5085 -0.7219
11749TIP3    H156738   4.537   4.182  14.616  1.8564 -0.0759 -0.7454
11749TIP3    H256739   4.417   4.274  14.614  0.0217 -2.4433 -2.0420
11750TIP3   OH256740   3.264   3.913  13.367 -0.1353  0.0961 -0.2105
11750TIP3    H156741   3.316   3.940  13.292  1.4386 -0.9267  0.4857
11750TIP3    H256742   3.174   3.936  13.344  0.4449  0.5908 -2.0222
11751TIP3   OH256743   2.810   4.501  11.916 -0.0015 -0.0847  0.2565
11751TIP3    H156744   2.725   4.470  11.886  0.0205  0.5917 -0.5189
11751TIP3    H256745   2.799   4.516  12.010 -0.8717  0.4820  0.0580
11752TIP3   OH256746   6.723   4.273   2.355  0.3646  0.2722  0.0469
11752TIP3    H156747   6.758   4.209   2.293  0.1584  0.0733  0.1345
11752TIP3    H256748   6.788   4.276   2.426 -0.1197 -0.5886  0.5291
11753TIP3   OH256749   2.571   2.058   0.724 -0.1510  0.1026  0.5045
11753TIP3    H156750   2.488   2.026   0.758  1.1271 -1.2352  2.5072
11753TIP3    H256751   2.553   2.148   0.697 -2.0562  0.0840  1.6546
11754TIP3   OH256752   3.425   3.894  13.146  0.2609 -0.5835 -0.6529
11754TIP3    H156753   3.467   3.815  13.113  1.0034 -1.7595  2.8304
11754TIP3    H256754   3.497   3.956  13.161  0.2541 -0.9261  0.9164
11755TIP3   OH256755   4.194   5.687  13.840 -0.7258 -0.3856 -0.0469
11755TIP3    H156756   4.110   5.642  13.849 -1.2808  0.4414 -0.9571
11755TIP3    H256757   4.179   5.772  13.881 -0.3349 -0.2364 -0.2193
11756TIP3   OH256758   0.536   0.579  17.245 -0.2383  0.6965  0.4904
11756TIP3    H156759   0.501   0.614  17.327 -1.8490  0.0947  0.0792
11756TIP3    H256760   0.466   0.592  17.181 -0.2437 -1.7519 -0.0624
11757TIP3   OH256761   4.851   6.369  15.491  0.5445 -0.1213 -0.0311
11757TIP3    H156762   4.930   6.421  15.511  2.1902 -2.5326 -0.0753
11757TIP3    H256763   4.861   6.345  15.399 -0.3036 -0.3923 -0.0560
11758TIP3   OH256764   5.455   1.264  12.199 -0.4479  0.1674 -0.3141
11758TIP3    H156765   5.517   1.195  12.220 -3.0999 -2.9499 -2.1719
11758TIP3    H256766   5.394   1.265  12.273 -1.2400 -0.5194 -0.9461
11759TIP3   OH256767   6.212   0.937   3.674  0.1079  0.5048 -0.4748
11759TIP3    H156768   6.267   1.012   3.696 -1.6901  1.2654  1.6273
11759TIP3    H256769   6.133   0.975   3.635 -0.5148 -0.3328 -0.0563
11760TIP3   OH256770   5.650   2.798  12.147  1.1724  0.1823  0.2468
11760TIP3    H156771   5.612   2.884  12.131 -3.6013 -1.5965  1.2609
11760TIP3    H256772   5.647   2.754  12.062 -0.6306 -0.5371  0.6757
11761TIP3   OH256773   2.735   3.039  13.382 -0.7368  0.4598 -0.0531
11761TIP3    H156774   2.736   2.978  13.309 -0.4969 -1.1844  1.2942
11761TIP3    H256775   2.645   3.071  13.386 -0.6046  1.0216 -1.4245
11762TIP3   OH256776   0.453   0.753   2.455 -0.0135 -0.5465 -0.4875
11762TIP3    H156777   0.452   0.770   2.360 -2.0399 -0.6991 -0.5100
11762TIP3    H256778   0.543   0.774   2.481  0.3141  0.4547 -2.2729
11763TIP3   OH256779   1.753   0.692  16.212 -0.3826  0.3915 -0.3776
11763TIP3    H156780   1.823   0.631  16.235  0.2873  0.9211 -0.9885
11763TIP3    H256781   1.795   0.778  16.209 -0.5529  0.4405 -2.9424
11764TIP3   OH256782   1.737   5.533   1.848 -0.1739  0.1986  0.1422
11764TIP3    H156783   1.695   5.611   1.885 -0.4010  0.5777 -0.8743
11764TIP3    H256784   1.665   5.473   1.829 -0.2459  0.7258 -1.3186
11765TIP3   OH256785   5.190   3.832   3.168  0.2597  0.0038  0.3808
11765TIP3    H156786   5.196   3.927   3.175 -3.5110  0.3393  0.2717
11765TIP3    H256787   5.193   3.815   3.074 -1.2542  0.2319  0.2828
11766TIP3   OH256788   2.704   2.069   2.546 -0.6461  0.5160 -0.4975
11766TIP3    H156789   2.627   2.092   2.599  0.3002 -1.0259  1.6051
11766TIP3    H256790   2.678   1.990   2.500 -0.5288  0.3050 -0.2067
11767TIP3   OH256791   6.640   0.774  15.825 -0.4537  0.1043  0.3301
11767TIP3    H156792   6.588   0.733  15.894  0.5594 -1.1295  0.3826
11767TIP3    H256793   6.723   0.727  15.826  0.2717  1.3158 -0.4845
11768TIP3   OH256794   1.313   1.980  11.319  0.2897  0.2476  0.2831
11768TIP3    H156795   1.363   1.935  11.388 -0.0453  0.3990  0.6204
11768TIP3    H256796   1.323   1.923  11.243 -0.3500 -0.5400  0.7837
11769TIP3   OH256797   5.545   2.622   0.755 -0.0323 -0.4873  0.5068
11769TIP3    H156798   5.456   2.630   0.790  0.5072  1.2629  1.5657
11769TIP3    H256799   5.537   2.641   0.662 -0.6059  0.9590  0.8325
11770TIP3   OH256800   5.385   6.135  11.842  0.0884 -0.7250 -0.2996
11770TIP3    H156801   5.445   6.061  11.838  0.1732 -0.7013  0.4355
11770TIP3    H256802   5.398   6.182  11.760  2.0726  0.0645  0.4536
11771TIP3   OH256803   0.163   1.077  13.743 -0.3526  0.5342  0.3287
11771TIP3    H156804   0.169   1.168  13.714 -1.1056  0.9350  1.3996
11771TIP3    H256805   0.101   1.079  13.816  0.3310 -0.6957  0.9593
11772TIP3   OH256806   0.200   4.800  16.094  0.7238  0.2516 -0.2179
11772TIP3    H156807   0.141   4.864  16.054 -0.3577  1.0599  2.5678
11772TIP3    H256808   0.240   4.847  16.167  0.0018 -2.1556  1.7964
11773TIP3   OH256809   5.816   6.319   2.850 -0.6699 -0.2531  0.4081
11773TIP3    H156810   5.866   6.367   2.917  3.2104  0.1301 -2.5847
11773TIP3    H256811   5.763   6.257   2.900  0.4743  1.4475  3.9398
11774TIP3   OH256812   4.471   4.411  14.363 -0.5058 -0.0485 -0.9496
11774TIP3    H156813   4.419   4.399  14.442  1.0339 -0.1929  0.0552
11774TIP3    H256814   4.548   4.355  14.376  1.3174  2.3491 -1.1343
11775TIP3   OH256815   1.480   1.036   0.396  0.0330  0.1799 -0.0978
11775TIP3    H156816   1.425   1.114   0.403  0.2758  0.1728  2.5365
11775TIP3    H256817   1.443   0.975   0.460  0.7940 -1.2792 -1.0271
11776TIP3   OH256818   1.503   0.517   6.230 -0.1468  0.4114 -0.1652
11776TIP3    H156819   1.585   0.538   6.186  0.6867 -2.8522 -0.3187
11776TIP3    H256820   1.528   0.501   6.321 -0.7455  0.1936 -0.0363
11777TIP3   OH256821   4.717   4.923  13.032  0.3439  0.0073 -0.4658
11777TIP3    H156822   4.724   4.835  13.069  1.5973  0.1772 -0.2802
11777TIP3    H256823   4.784   4.926  12.964  1.9751  1.6069  1.1412
11778TIP3   OH256824   1.581   5.664   4.917  0.1733  0.2104  0.1577
11778TIP3    H156825   1.489   5.637   4.918 -0.0499  0.9268 -0.0528
11778TIP3    H256826   1.621   5.619   4.992 -0.4268  0.1591  0.4493
11779TIP3   OH256827   0.428   6.718   5.235 -0.4348  0.0507  0.3409
11779TIP3    H156828   0.393   6.639   5.194 -2.4345 -0.5729  3.0467
11779TIP3    H256829   0.506   6.689   5.281 -1.1210 -0.3747  1.2615
11780TIP3   OH256830   4.947   5.124   4.465  0.3578  0.0585  0.4364
11780TIP3    H156831   5.019   5.061   4.457 -2.4699 -3.1457 -0.5456
11780TIP3    H256832   4.928   5.149   4.374  0.5219  1.2950  0.7329
11781TIP3   OH256833   4.947   1.232  17.224 -0.1367  0.4318  0.1968
11781TIP3    H156834   4.944   1.300  17.291 -0.8384  0.4292  0.1625
11781TIP3    H256835   4.947   1.149  17.273 -0.0024  0.4410  0.2153
11782TIP3   OH256836   5.837   1.697   1.840  0.4858  0.3303 -0.4306
11782TIP3    H156837   5.822   1.659   1.926  3.7194  1.3395  0.6654
11782TIP3    H256838   5.778   1.772   1.836  1.6532  1.4220  1.7422
11783TIP3   OH256839   4.220   3.703   4.219  0.6930 -0.0425 -0.4689
11783TIP3    H156840   4.125   3.700   4.205  0.4610 -0.0037  1.0358
11783TIP3    H256841   4.247   3.788   4.186 -0.3444  1.4037  2.3203
11784TIP3   OH256842   4.453   1.769   1.434 -0.2150  0.0533 -0.0478
11784TIP3    H156843   4.420   1.680   1.429 -1.7816  0.6709 -0.9578
11784TIP3    H256844   4.437   1.806   1.347  2.2695  0.6046 -0.3258
11785TIP3   OH256845   5.115   1.133   0.229 -0.1759 -0.1216 -0.3853
11785TIP3    H156846   5.144   1.210   0.277 -0.2810  0.1428 -0.7436
11785TIP3    H256847   5.028   1.113   0.265 -1.0711  1.1960 -1.7504
11786TIP3   OH256848   3.445   3.838  11.541  0.0832  0.2091 -0.2782
11786TIP3    H156849   3.456   3.835  11.446  0.5934  1.4743 -0.2721
11786TIP3    H256850   3.530   3.864  11.574 -0.5017  1.2648  0.4204
11787TIP3   OH256851   4.491   0.924   1.867 -0.5647  0.2713  0.7250
11787TIP3    H156852   4.442   0.976   1.931 -1.0366  1.4657 -0.5956
11787TIP3    H256853   4.551   0.986   1.826  0.0659 -0.5909  0.3291
11788TIP3   OH256854   5.645   5.143   0.478  0.0693 -0.2578 -0.1649
11788TIP3    H156855   5.715   5.079   0.489 -0.0069 -0.5431 -1.2502
11788TIP3    H256856   5.599   5.114   0.399 -1.2769 -0.0787  0.5385
11789TIP3   OH256857   1.437   1.143  14.562  0.1019  0.0865 -0.2039
11789TIP3    H156858   1.482   1.106  14.486  0.9481  0.7807 -0.0534
11789TIP3    H256859   1.438   1.238  14.547 -0.9622  0.1317 -0.0053
11790TIP3   OH256860   6.089   1.809  12.940 -0.2299  0.4989 -0.8477
11790TIP3    H156861   6.160   1.816  13.004 -0.0887 -0.7397 -0.8611
11790TIP3    H256862   6.096   1.720  12.907 -2.8459 -0.1727  0.3544
11791TIP3   OH256863   6.092   4.249  15.063  0.4930  0.2294  0.4177
11791TIP3    H156864   6.096   4.251  15.159 -0.9378  1.4004  0.4648
11791TIP3    H256865   6.060   4.162  15.042  0.2708  0.1645  1.0220
11792TIP3   OH256866   3.606   4.948   1.405 -0.5443 -0.7667  0.2068
11792TIP3    H156867   3.619   5.011   1.476 -1.3820 -0.2923 -0.0555
11792TIP3    H256868   3.689   4.899   1.401 -0.7377 -1.2682  1.9581
11793TIP3   OH256869   3.475   5.133  15.402  0.0367 -0.1195  0.2691
11793TIP3    H156870   3.433   5.047  15.397  0.0768 -0.0955 -0.4982
11793TIP3    H256871   3.546   5.129  15.337  0.1648  0.4215  0.3741
11794TIP3   OH256872   6.275   6.147   5.948  0.4372  0.1185  0.1286
11794TIP3    H156873   6.202   6.086   5.961 -0.4455  1.2240  0.3614
11794TIP3    H256874   6.314   6.156   6.035  0.9312 -0.5503 -0.0140
11795TIP3   OH256875   6.673   0.889  12.792 -0.0616 -0.3042  0.6892
11795TIP3    H156876   6.686   0.812  12.847  0.0710 -0.4406  0.4685
11795TIP3    H256877   6.746   0.887  12.731 -0.9704 -0.9329 -0.4031
11796TIP3   OH256878   1.706   5.287  12.379 -0.2383  0.0091 -0.1367
11796TIP3    H156879   1.793   5.300  12.418 -0.3059  0.1811 -0.0410
11796TIP3    H256880   1.714   5.206  12.329  0.2850  0.6092 -1.0230
11797TIP3   OH256881   5.122   4.636  13.317 -0.2576 -0.6134  0.1157
11797TIP3    H156882   5.144   4.693  13.391  1.0112 -1.2916  0.2787
11797TIP3    H256883   5.201   4.585  13.302  0.5490  1.5193 -3.5463
11798TIP3   OH256884   4.510   5.885   4.841  0.0557  0.0778  0.7732
11798TIP3    H156885   4.454   5.857   4.768  1.3455 -1.6372  0.4123
11798TIP3    H256886   4.559   5.960   4.808  1.0455 -1.0437 -0.3267
11799TIP3   OH256887   2.126   4.805   2.311  0.1892  0.7811 -0.2396
11799TIP3    H156888   2.089   4.891   2.332 -0.6356  0.8045 -1.7503
11799TIP3    H256889   2.195   4.823   2.248  0.6241  0.4114  0.1262
11800TIP3   OH256890   3.738   2.744  13.055  0.3462  0.9260 -0.3853
11800TIP3    H156891   3.716   2.798  12.980 -0.1517  0.7864 -0.3392
11800TIP3    H256892   3.834   2.745  13.058  0.3650  0.9774 -0.9856
11801TIP3   OH256893   2.154   1.757  14.004  0.3384 -0.3906 -0.0030
11801TIP3    H156894   2.106   1.757  14.087  1.6909 -0.0143  0.7879
11801TIP3    H256895   2.198   1.842  14.001  0.5001 -0.5018 -0.9826
11802TIP3   OH256896   0.015   4.827   1.767 -0.8510 -0.1640 -0.2024
11802TIP3    H156897  -0.034   4.858   1.844  0.9514  2.4901 -0.0966
11802TIP3    H256898   0.104   4.813   1.799 -0.0162  1.2187 -1.8455
11803TIP3   OH256899   2.204   1.328  13.792 -0.3349  0.2280 -0.1737
11803TIP3    H156900   2.247   1.383  13.858 -1.3681  0.1237  0.6134
11803TIP3    H256901   2.245   1.352  13.710  0.7444  0.6148  0.4672
11804TIP3   OH256902   6.687   6.651  15.580  0.2167  0.0892 -0.1327
11804TIP3    H156903   6.778   6.677  15.569 -0.2963  1.2591 -1.6874
11804TIP3    H256904   6.687   6.597  15.659  2.2053  0.3003  0.0262
11805TIP3   OH256905   0.654   5.072   3.790  0.2052  0.2457  0.4019
11805TIP3    H156906   0.639   5.059   3.884  0.3487 -0.1094  0.3773
11805TIP3    H256907   0.687   5.162   3.784  0.3484  0.2175  0.7126
11806TIP3   OH256908   2.888   5.061  13.310  0.2482 -0.8861  0.2691
11806TIP3    H156909   2.969   5.083  13.263  0.3314 -0.5963  0.5483
11806TIP3    H256910   2.826   5.129  13.285  0.5112 -0.3080  1.1448
11807TIP3   OH256911   6.213   1.745  14.246  0.1598  0.3796 -0.1887
11807TIP3    H156912   6.137   1.722  14.299  0.6472  0.4959  0.5661
11807TIP3    H256913   6.177   1.761  14.158 -0.5016 -0.8589 -0.1489
11808TIP3   OH256914   1.693   5.417   5.029 -0.3481  0.0838 -0.0896
11808TIP3    H156915   1.612   5.366   5.025 -0.3155  0.0527 -0.3681
11808TIP3    H256916   1.755   5.360   5.074  0.0883 -0.6666 -1.6167
11809TIP3   OH256917   1.291   3.103  14.615 -0.6886 -0.1018 -0.2163
11809TIP3    H156918   1.311   3.185  14.661 -0.0354 -1.1277  1.3797
11809TIP3    H256919   1.375   3.075  14.578 -0.5348 -0.9252  0.7217
11810TIP3   OH256920   2.887   5.489   4.402 -0.0762 -0.0352 -0.2726
11810TIP3    H156921   2.857   5.500   4.311 -0.7017 -3.3560 -0.5640
11810TIP3    H256922   2.909   5.396   4.408  1.5915  0.4874  2.5385
11811TIP3   OH256923   4.540   2.464  13.637  0.9976 -0.0438  0.0190
11811TIP3    H156924   4.568   2.418  13.559 -1.2178 -0.1252 -0.7576
11811TIP3    H256925   4.464   2.416  13.668  0.6626  1.1500  1.1023
11812TIP3   OH256926   0.932   6.044  17.149  0.1805  0.0060  0.4158
11812TIP3    H156927   0.968   6.116  17.097  0.6660 -0.7913 -0.3657
11812TIP3    H256928   0.968   6.058  17.237  2.3408 -0.6945 -0.3227
11813TIP3   OH256929   1.918   0.976  13.646  0.2027 -0.2996 -0.5135
11813TIP3    H156930   1.831   1.008  13.622 -0.3606 -1.7200 -0.4284
11813TIP3    H256931   1.956   1.046  13.699 -0.5247  0.7227 -1.3313
11814TIP3   OH256932   6.538   1.676  12.515  0.0125  0.4556 -0.3851
11814TIP3    H156933   6.500   1.711  12.434  2.0596  0.8461 -1.2181
11814TIP3    H256934   6.519   1.742  12.581 -3.1386 -0.6212 -0.1012
11815TIP3   OH256935   0.905   4.142   3.138  0.2714  0.4205  0.1073
11815TIP3    H156936   0.853   4.081   3.191  1.9031  0.6911  2.0788
11815TIP3    H256937   0.841   4.182   3.079 -1.3064 -1.1754  0.6722
11816TIP3   OH256938   5.843   3.643  16.605 -0.0982  0.1167  0.1014
11816TIP3    H156939   5.888   3.564  16.636 -1.6951 -0.7975  0.1486
11816TIP3    H256940   5.752   3.616  16.594 -0.3118  1.4789 -1.6644
11817TIP3   OH256941   5.454   2.564   2.143 -0.0108  0.3102  0.4338
11817TIP3    H156942   5.488   2.594   2.059  0.8970 -0.4755  0.5189
11817TIP3    H256943   5.406   2.484   2.122 -2.3604  1.7333  0.2193
11818TIP3   OH256944   3.608   0.986   4.105 -0.1832  0.5819  0.2612
11818TIP3    H156945   3.696   0.974   4.071 -0.5704  0.4191 -0.7043
11818TIP3    H256946   3.552   0.992   4.027 -1.1202 -0.0783  0.8616
11819TIP3   OH256947   3.050   3.811  11.031  0.0446  0.0506  0.5718
11819TIP3    H156948   3.127   3.783  11.080  0.9995  2.4250  0.4782
11819TIP3    H256949   2.986   3.741  11.046  1.4840 -0.9291  2.3828
11820TIP3   OH256950   2.860   5.673  11.758  0.0801 -0.0049 -0.3898
11820TIP3    H156951   2.812   5.733  11.815 -0.4332 -0.6544 -0.1275
11820TIP3    H256952   2.939   5.650  11.808 -0.0870 -0.1228 -0.1758
11821TIP3   OH256953   6.210   6.628  13.061 -0.1602  0.3269  0.0749
11821TIP3    H156954   6.203   6.706  13.006 -0.3245  0.1477 -0.1584
11821TIP3    H256955   6.268   6.569  13.011  0.1142  0.3761  0.3363
11822TIP3   OH256956   5.166   3.835   2.605  0.1212 -0.0782  0.5667
11822TIP3    H156957   5.073   3.812   2.607  0.7800 -2.8959  1.6615
11822TIP3    H256958   5.212   3.751   2.616  2.7953  1.2990  0.4579
11823TIP3   OH256959   5.188   1.708  11.327 -0.2722 -0.1345 -0.3595
11823TIP3    H156960   5.245   1.741  11.396 -1.7725 -0.3660  1.0067
11823TIP3    H256961   5.225   1.623  11.304 -0.1020 -0.3164  0.5689
11824TIP3   OH256962   5.747   1.520   5.253  0.2813  0.2229 -0.1244
11824TIP3    H156963   5.760   1.572   5.174  1.6253 -0.2687 -0.2289
11824TIP3    H256964   5.665   1.553   5.290 -0.1260  0.7632 -1.4754
11825TIP3   OH256965   3.236   3.166   2.367 -0.4517 -0.3377  0.3267
11825TIP3    H156966   3.256   3.212   2.285  1.4226 -0.2611  0.7984
11825TIP3    H256967   3.244   3.073   2.345 -1.0208 -0.3519  0.1680
11826TIP3   OH256968   4.675   2.815   1.103 -0.0431  0.0409  0.0898
11826TIP3    H156969   4.706   2.854   1.022  0.3584  0.8948  0.6418
11826TIP3    H256970   4.634   2.733   1.077  1.0767 -0.2209 -0.8489
11827TIP3   OH256971   4.767   4.103   0.726 -0.1816  0.3565  0.1981
11827TIP3    H156972   4.717   4.085   0.806 -0.9593 -1.2809 -0.6301
11827TIP3    H256973   4.782   4.197   0.728 -3.7851  0.9990  0.1749
11828TIP3   OH256974   2.450   6.279  14.454 -0.3431 -0.5139 -0.3006
11828TIP3    H156975   2.464   6.365  14.416 -2.3422  0.5120  1.1846
11828TIP3    H256976   2.534   6.256  14.495  0.5940  0.1101 -1.8253
11829TIP3   OH256977   2.064   2.848   2.765  0.3059 -0.2396 -0.0970
11829TIP3    H156978   2.034   2.836   2.855  0.8618 -0.0104  0.1267
11829TIP3    H256979   2.031   2.772   2.718 -3.5265  1.6517 -0.6493
11830TIP3   OH256980   0.631   0.531   4.027 -0.6568  0.0748  0.0878
11830TIP3    H156981   0.535   0.529   4.029 -0.6303 -1.6826  0.8569
11830TIP3    H256982   0.654   0.465   3.961  0.0397 -0.5801  0.9861
11831TIP3   OH256983   3.048   6.788  15.373  0.3403 -0.0139  0.3846
11831TIP3    H156984   3.015   6.732  15.303  1.1092 -0.3268  0.2713
11831TIP3    H256985   3.116   6.736  15.416  1.7631  1.1906 -0.3495
11832TIP3   OH256986   1.955   0.884   4.325  0.3660  0.0074 -0.1303
11832TIP3    H156987   2.004   0.918   4.251  0.5211  1.8083  0.7749
11832TIP3    H256988   2.022   0.864   4.391  0.1010 -0.0957  0.1083
11833TIP3   OH256989   5.610   5.071  14.883  0.1954  0.1587 -0.1778
11833TIP3    H156990   5.644   5.021  14.958 -1.3174 -0.9468 -0.2002
11833TIP3    H256991   5.685   5.080  14.824  1.3278  0.7602  1.3208
11834TIP3   OH256992   2.432   5.381  14.400 -0.0360 -0.0396  0.2984
11834TIP3    H156993   2.504   5.347  14.454 -0.7649  0.7516  1.8009
11834TIP3    H256994   2.470   5.452  14.349  0.3642  0.0461  0.7190
11835TIP3   OH256995   3.830   0.315   4.224 -0.0517  0.7812 -0.0211
11835TIP3    H156996   3.854   0.229   4.191 -1.8952  0.9033 -1.7765
11835TIP3    H256997   3.896   0.335   4.291 -0.9918 -3.0103  2.1796
11836TIP3   OH256998   6.474   4.888   4.275  0.2928 -0.3650 -0.4415
11836TIP3    H156999   6.394   4.841   4.297 -0.3734  1.3701  0.9405
11836TIP3    H257000   6.489   4.867   4.183 -0.4284 -2.5883 -0.0763
11837TIP3   OH257001   0.236   1.064   2.489  0.1704 -0.5155 -1.0293
11837TIP3    H157002   0.202   0.975   2.497 -1.1911  0.1360  0.8122
11837TIP3    H257003   0.306   1.068   2.553 -1.8014  0.6270  1.1372
11838TIP3   OH257004   5.816   1.628   1.345 -0.3749 -0.3836 -0.0787
11838TIP3    H157005   5.866   1.706   1.369  1.0298 -0.9822 -1.0046
11838TIP3    H257006   5.748   1.662   1.286 -0.1430  0.2198 -0.0087
11839TIP3   OH257007   1.489   6.461  14.307  0.9296 -0.3367 -0.0915
11839TIP3    H157008   1.518   6.550  14.288  2.4531 -0.7136  0.4560
11839TIP3    H257009   1.394   6.469  14.322  0.4854  0.6945 -3.1245
11840TIP3   OH257010   2.498   2.019   6.905 -0.1706 -0.0545 -0.6365
11840TIP3    H157011   2.593   2.018   6.913 -0.0993  0.1758 -1.3987
11840TIP3    H257012   2.478   1.940   6.855 -0.4985 -0.8123  0.6655
11841TIP3   OH257013   6.631   5.237  15.893 -0.8977 -0.5338  0.1318
11841TIP3    H157014   6.584   5.188  15.960  1.6539 -3.4031 -0.0709
11841TIP3    H257015   6.697   5.286  15.941 -0.7138 -0.5936 -0.0599
11842TIP3   OH257016   3.875   6.297  15.343 -0.1264 -0.2252  0.0001
11842TIP3    H157017   3.785   6.264  15.342 -0.6362  1.0974  0.3453
11842TIP3    H257018   3.898   6.301  15.436 -0.8717  2.4080  0.1222
11843TIP3   OH257019   5.018   5.037   2.359 -0.4822 -0.0610  0.4043
11843TIP3    H157020   5.030   5.119   2.311 -2.2952  1.1338  1.9335
11843TIP3    H257021   5.042   5.057   2.449 -2.3864 -0.7610  1.1047
11844TIP3   OH257022   0.299   1.992   0.878  0.3931  0.0796 -0.0330
11844TIP3    H157023   0.356   1.916   0.894  0.7189  0.2771 -0.2378
11844TIP3    H257024   0.216   1.970   0.920  1.0595  0.3609  1.4642
11845TIP3   OH257025   1.858   1.256  15.502  0.7047 -0.0707 -0.4628
11845TIP3    H157026   1.831   1.169  15.532 -1.0021 -0.2457 -2.4082
11845TIP3    H257027   1.906   1.240  15.421  1.8782  0.7102  0.0479
11846TIP3   OH257028   6.484   4.646   0.235 -0.6508 -0.0418  0.0212
11846TIP3    H157029   6.510   4.678   0.148 -1.7022  1.0474  0.0848
11846TIP3    H257030   6.475   4.726   0.287 -0.0663 -0.6957  1.1198
11847TIP3   OH257031   4.983   6.418  14.451  0.6502  0.1073 -0.0302
11847TIP3    H157032   4.969   6.419  14.356  0.7137 -1.1875 -0.0701
11847TIP3    H257033   4.907   6.463  14.487 -1.1977 -2.4801 -0.5229
11848TIP3   OH257034   3.232   4.966   4.711 -0.4015  0.2890 -0.3136
11848TIP3    H157035   3.310   4.943   4.761  0.1526  1.2044 -0.7427
11848TIP3    H257036   3.256   5.045   4.663 -0.9983 -0.4610 -1.8793
11849TIP3   OH257037   4.896   3.504   3.680  0.0642  0.1292 -0.4093
11849TIP3    H157038   4.918   3.597   3.678  0.6859 -0.0315 -2.2194
11849TIP3    H257039   4.804   3.502   3.704  0.9678  1.0083  3.3666
11850TIP3   OH257040   2.496   3.072   0.628 -0.3849  0.0165  0.1248
11850TIP3    H157041   2.459   3.083   0.540  2.0054  0.9573 -0.7845
11850TIP3    H257042   2.545   3.153   0.644  0.9020 -1.0206  1.5124
11851TIP3   OH257043   2.383   5.890  15.310  0.1904 -0.3479  0.6998
11851TIP3    H157044   2.399   5.796  15.317 -0.2587 -0.4968 -0.1273
11851TIP3    H257045   2.370   5.920  15.400 -1.5048 -1.4272  0.8326
11852TIP3   OH257046   1.154   1.724   2.918  0.2987 -0.2087  0.4861
11852TIP3    H157047   1.154   1.635   2.883 -0.1766 -0.2024  0.4745
11852TIP3    H257048   1.141   1.713   3.012 -2.9172 -0.0006  0.1116
11853TIP3   OH257049   5.347   6.581  16.750 -0.4676  0.4368 -0.5531
11853TIP3    H157050   5.253   6.593  16.755 -0.4772 -0.3359  2.0378
11853TIP3    H257051   5.384   6.664  16.780 -0.3565  0.1740  0.0520
11854TIP3   OH257052   2.292   3.229  16.297 -0.1558 -0.2406 -0.7021
11854TIP3    H157053   2.271   3.311  16.341 -1.8386 -1.0886  0.1134
11854TIP3    H257054   2.350   3.184  16.358  0.7762  0.3236 -1.1515
11855TIP3   OH257055   0.256   0.383  16.063 -0.3438 -0.2021  0.3471
11855TIP3    H157056   0.200   0.460  16.051 -0.4166 -0.0301  1.7058
11855TIP3    H257057   0.268   0.376  16.158 -1.1619 -2.4433  0.3234
11856TIP3   OH257058   3.493   0.014   2.672 -0.8202 -0.0722 -0.2429
11856TIP3    H157059   3.433  -0.010   2.742 -0.1167  0.2803  0.4805
11856TIP3    H257060   3.505  -0.067   2.622 -0.2085 -0.6829  0.8783
11857TIP3   OH257061   4.546   4.455  13.957 -0.2883  0.6397  0.0475
11857TIP3    H157062   4.558   4.497  14.043 -1.9991 -0.0287  0.6361
11857TIP3    H257063   4.629   4.471  13.911 -1.0500  5.2327 -0.0241
11858TIP3   OH257064   2.928   2.455   2.019 -0.5154 -0.2650  0.3762
11858TIP3    H157065   2.906   2.542   2.052 -3.5976  0.0999 -2.4003
11858TIP3    H257066   2.990   2.472   1.947  2.8690 -0.7830  3.0467
11859TIP3   OH257067   3.235   3.050  16.809  0.1512  0.7087  0.4719
11859TIP3    H157068   3.230   3.060  16.714 -1.2098 -0.7701  0.3648
11859TIP3    H257069   3.309   2.990  16.823 -1.1846 -1.0395  0.1708
11860TIP3   OH257070   6.728   6.117  16.788  0.1653  0.7383 -0.1495
11860TIP3    H157071   6.767   6.031  16.779 -4.5050 -1.7937  1.6935
11860TIP3    H257072   6.743   6.140  16.880 -2.3093 -0.1948  0.5402
11861TIP3   OH257073   5.891   2.996  13.510  0.1964 -0.0061 -0.7736
11861TIP3    H157074   5.910   2.965  13.599 -0.7432  0.7531 -0.3002
11861TIP3    H257075   5.901   2.919  13.455  1.8113 -0.2699 -0.1502
11862TIP3   OH257076   5.866   6.369   3.713 -0.5316 -0.4851  0.2740
11862TIP3    H157077   5.924   6.399   3.642 -0.4104 -2.5478 -0.5139
11862TIP3    H257078   5.895   6.420   3.789  0.8387  0.1236 -0.6226
11863TIP3   OH257079   5.234   1.530  14.748  0.1515 -0.1719 -0.3639
11863TIP3    H157080   5.184   1.568  14.676 -0.8674 -1.1047 -0.1649
11863TIP3    H257081   5.188   1.561  14.827  1.6474  1.3921 -0.0709
11864TIP3   OH257082   1.998   6.242  13.066  0.2437  0.1085  0.0025
11864TIP3    H157083   1.957   6.170  13.114  0.6726 -1.2310 -1.6137
11864TIP3    H257084   2.053   6.285  13.131 -1.9533  0.5690  1.6498
11865TIP3   OH257085   3.483   6.190   3.721  0.0256  0.0992  0.1799
11865TIP3    H157086   3.575   6.170   3.709 -0.0002 -0.2292  0.5270
11865TIP3    H257087   3.450   6.121   3.779 -0.6994 -0.4512 -0.8636
11866TIP3   OH257088   5.776   1.652   0.420  0.1573  0.0565  0.1715
11866TIP3    H157089   5.709   1.653   0.351  0.0940 -1.8432  0.1796
11866TIP3    H257090   5.814   1.565   0.414  1.9560  0.7807  0.8431
11867TIP3   OH257091   2.031   0.821   5.033  0.5280 -0.3618 -0.3714
11867TIP3    H157092   2.110   0.791   4.987  1.7434 -0.2973  1.5819
11867TIP3    H257093   2.030   0.916   5.018  1.1802 -0.2732  0.0876
11868TIP3   OH257094   3.338   4.427  10.293  0.2908 -0.1399  0.6664
11868TIP3    H157095   3.383   4.385  10.366  0.2279 -0.4018  0.5579
11868TIP3    H257096   3.403   4.483  10.253  0.5441 -0.5732  0.4633
11869TIP3   OH257097   6.732   0.831  16.979 -0.5025  0.1244 -0.3934
11869TIP3    H157098   6.749   0.919  17.012 -0.6115  0.0900 -0.2444
11869TIP3    H257099   6.736   0.839  16.883  0.4785  0.0921 -0.3590
11870TIP3   OH257100   4.013   3.977  14.921  0.0395  0.1360 -0.4936
11870TIP3    H157101   4.056   3.996  15.005 -2.9463 -0.7678  1.3015
11870TIP3    H257102   4.085   3.952  14.863  1.9511 -1.6934  2.5018
11871TIP3   OH257103   0.728   1.025   7.069 -0.5521 -0.9191 -0.2351
11871TIP3    H157104   0.700   1.037   6.978  0.2972 -0.6674 -0.4723
11871TIP3    H257105   0.729   1.114   7.106  0.9868 -0.7885 -0.5559
11872TIP3   OH257106   1.330   0.769  16.024  0.1002  0.2976 -0.3699
11872TIP3    H157107   1.403   0.831  16.029 -1.3420  1.9702  0.6987
11872TIP3    H257108   1.366   0.687  16.057  1.4632  1.1360  0.2808
11873TIP3   OH257109   6.679   2.285  12.132  0.3136 -0.3755 -0.6778
11873TIP3    H157110   6.631   2.359  12.095 -0.3452 -0.8365 -0.7465
11873TIP3    H257111   6.694   2.309  12.223 -0.9202 -0.6695 -0.4000
11874TIP3   OH257112   5.698   0.181  14.809  0.0486 -0.2016 -0.0901
11874TIP3    H157113   5.684   0.158  14.717 -1.0290 -0.9188  0.2319
11874TIP3    H257114   5.623   0.237  14.831  0.3077 -0.0268  0.3479
11875TIP3   OH257115   2.589   0.985   1.618 -0.1459 -0.3392 -0.1823
11875TIP3    H157116   2.528   1.056   1.635 -0.6124 -0.5291 -0.9998
11875TIP3    H257117   2.555   0.911   1.669  1.4397  0.5361  2.2449
11876TIP3   OH257118   4.763   4.355   2.678  0.2575 -0.4096 -0.0562
11876TIP3    H157119   4.826   4.310   2.621  1.3806  0.3938  0.5411
11876TIP3    H257120   4.817   4.397   2.745 -0.7988  1.4686 -0.3615
11877TIP3   OH257121   6.785   6.062   6.010 -0.2094  0.1531 -0.0972
11877TIP3    H157122   6.709   6.021   6.051 -1.1137  2.2679  0.4147
11877TIP3    H257123   6.842   6.086   6.083 -0.1051  0.5974 -0.3213
11878TIP3   OH257124   3.271   4.360   0.791 -0.5994  0.0544  0.5247
11878TIP3    H157125   3.224   4.283   0.758 -4.2035  1.6301  1.7535
11878TIP3    H257126   3.255   4.428   0.725  1.9721  0.0094 -0.2027
11879TIP3   OH257127   4.542   0.644  14.591  0.2400  0.8340 -0.0446
11879TIP3    H157128   4.512   0.691  14.513 -1.4466  0.9331  0.6565
11879TIP3    H257129   4.463   0.628  14.642  0.9347 -1.8141  0.2635
11880TIP3   OH257130   4.599   4.962  11.170  0.1672 -0.3831  0.0726
11880TIP3    H157131   4.564   4.979  11.083 -0.2561 -2.1211 -0.1113
11880TIP3    H257132   4.579   5.042  11.220  1.3896  1.0632 -1.6904
11881TIP3   OH257133   2.462   3.611   0.440  0.3921 -0.2624  0.3507
11881TIP3    H157134   2.463   3.545   0.509 -0.9359 -0.7677 -0.0896
11881TIP3    H257135   2.369   3.635   0.431  0.4824 -0.5008 -1.5117
11882TIP3   OH257136   4.946   5.587  12.252  0.2939  0.1205 -0.3571
11882TIP3    H157137   4.900   5.669  12.232 -0.4626 -0.4192 -0.8427
11882TIP3    H257138   5.020   5.586  12.192  1.2200  1.2214  0.7502
11883TIP3   OH257139   5.438   5.183   2.792 -0.1189 -0.9142  0.3645
11883TIP3    H157140   5.364   5.132   2.826 -0.9980  0.6414  0.8020
11883TIP3    H257141   5.459   5.244   2.862  1.3406 -1.0707  0.0798
11884TIP3   OH257142   0.637   6.730  11.775  0.2054 -0.5121  0.2205
11884TIP3    H157143   0.597   6.657  11.821 -0.3235 -0.6249 -0.4074
11884TIP3    H257144   0.727   6.732  11.806  0.1100 -1.1713  0.5456
11885TIP3   OH257145   3.576   1.047   3.452  0.1599  0.7712  0.4459
11885TIP3    H157146   3.620   1.046   3.367  0.2407 -0.0472  0.4868
11885TIP3    H257147   3.519   0.970   3.450  0.8947  0.1897  1.5027
11886TIP3   OH257148   3.358   1.043  16.269 -0.9773 -0.2199 -0.4302
11886TIP3    H157149   3.336   1.122  16.219 -1.1419 -0.9932 -1.5957
11886TIP3    H257150   3.358   1.072  16.360 -4.5601  0.3404 -0.5464
11887TIP3   OH257151   0.820   0.416  11.572  0.2034  0.0148 -0.2630
11887TIP3    H157152   0.760   0.370  11.513  0.0896 -0.0950 -0.0634
11887TIP3    H257153   0.836   0.353  11.642 -2.7728  1.5279  1.9020
11888TIP3   OH257154   4.944   4.449  13.425 -0.2031 -0.1657 -0.4703
11888TIP3    H157155   5.001   4.509  13.377 -0.2924 -1.0866 -1.7459
11888TIP3    H257156   5.002   4.378  13.451 -0.7049 -0.9951 -1.5781
11889TIP3   OH257157   6.390   3.857   0.292 -0.3837  0.2591  0.3516
11889TIP3    H157158   6.387   3.913   0.214 -1.2983 -0.4144 -0.0949
11889TIP3    H257159   6.422   3.915   0.361  0.0837  0.9559 -0.4408
11890TIP3   OH257160   4.880   5.573  13.815 -0.0739 -0.0627  0.0246
11890TIP3    H157161   4.820   5.592  13.743 -0.2266 -0.7065 -0.0263
11890TIP3    H257162   4.927   5.655  13.830 -0.5635  0.2844 -0.3147
11891TIP3   OH257163   1.477   1.161  17.056  0.3940 -0.1986 -0.1756
11891TIP3    H157164   1.518   1.221  17.119 -0.1148 -0.3112  0.2670
11891TIP3    H257165   1.383   1.172  17.070  0.2615  0.2232 -1.3380
11892TIP3   OH257166   3.591   1.339  14.423 -0.3725 -0.2505  0.3490
11892TIP3    H157167   3.649   1.316  14.350  0.4507  1.7002  0.3493
11892TIP3    H257168   3.503   1.332  14.387 -0.0342 -0.8009 -0.3902
11893TIP3   OH257169   0.066   5.296  15.126 -0.2181 -0.4922  0.7099
11893TIP3    H157170   0.013   5.217  15.117  1.0173 -1.4514  1.7093
11893TIP3    H257171   0.002   5.368  15.128 -1.3222 -1.4082 -0.7017
11894TIP3   OH257172   3.171   4.828  17.229 -0.1027 -0.1507  0.2017
11894TIP3    H157173   3.220   4.791  17.303  1.8767  2.1761  0.1511
11894TIP3    H257174   3.238   4.844  17.162 -1.5030 -0.0394 -1.1903
11895TIP3   OH257175   4.967   0.315   0.104 -1.0682 -0.1179  0.1622
11895TIP3    H157176   5.012   0.364   0.173 -1.2584  0.2150  0.0517
11895TIP3    H257177   4.976   0.223   0.130 -1.1657  0.0059  0.6472
11896TIP3   OH257178   5.850   4.786   5.523  0.0187  0.9871 -0.8335
11896TIP3    H157179   5.838   4.786   5.428  0.1430  1.4451 -0.8497
11896TIP3    H257180   5.939   4.820   5.536 -0.5542  2.3883 -0.4865
11897TIP3   OH257181   1.980   2.753  14.217 -0.2265 -0.6805 -0.3093
11897TIP3    H157182   1.888   2.760  14.240 -1.0480 -0.2988 -3.4847
11897TIP3    H257183   2.008   2.844  14.201 -0.5415 -1.0818 -3.6265
11898TIP3   OH257184   1.541   5.004  16.035 -0.0935 -0.8204  0.1757
11898TIP3    H157185   1.604   5.028  15.967  0.8385  0.2789  1.3928
11898TIP3    H257186   1.566   5.057  16.111 -3.8129  1.3548  0.0379
11899TIP3   OH257187   2.454   3.405  15.156 -0.0564  0.5589 -0.6662
11899TIP3    H157188   2.486   3.469  15.220 -1.3706 -0.5864  1.1899
11899TIP3    H257189   2.440   3.455  15.076  1.8717  1.9811 -0.1472
11900TIP3   OH257190   2.368   3.084  12.780 -0.5489 -0.0163  0.2691
11900TIP3    H157191   2.432   3.021  12.748 -0.9268 -0.0982 -0.3276
11900TIP3    H257192   2.327   3.040  12.855  0.5290  0.2914  1.0567
11901TIP3   OH257193   1.641   2.622   2.247  0.1230 -0.2223  0.0168
11901TIP3    H157194   1.659   2.607   2.154  0.8706  2.9765 -0.3862
11901TIP3    H257195   1.565   2.681   2.247 -1.5257 -2.2742  1.5190
11902TIP3   OH257196   0.922   0.366  17.032 -1.0156 -0.6664  0.3627
11902TIP3    H157197   1.017   0.369  17.038 -0.9509 -0.4190 -0.8037
11902TIP3    H257198   0.891   0.404  17.115 -0.1062 -2.3154  1.4844
11903TIP3   OH257199   5.011   4.327   0.282  0.2910  0.4598 -0.0385
11903TIP3    H157200   4.917   4.321   0.297  0.1323 -0.5909 -1.3291
11903TIP3    H257201   5.046   4.365   0.362 -1.0954 -0.1443  0.8690
11904TIP3   OH257202   3.009   3.698   0.140  0.0795 -0.5590  0.5114
11904TIP3    H157203   2.978   3.608   0.138 -0.8734 -0.2163 -0.0361
11904TIP3    H257204   3.103   3.690   0.160  0.3981 -1.7572 -1.3920
11905TIP3   OH257205   3.141   1.480   2.615 -0.2442 -0.1424 -0.8086
11905TIP3    H157206   3.144   1.480   2.710 -1.7947 -0.3838 -0.7497
11905TIP3    H257207   3.197   1.554   2.589  0.1973 -0.0909  0.2748
11906TIP3   OH257208   0.372   4.358   1.963  0.3161  0.2407 -0.2910
11906TIP3    H157209   0.457   4.380   2.001 -0.0189  0.1538  0.5119
11906TIP3    H257210   0.347   4.437   1.915  0.4107  0.6027  0.2535
11907TIP3   OH257211   4.937   0.928  15.145 -0.0932  0.1676  0.3561
11907TIP3    H157212   4.854   0.900  15.109  0.1654 -1.1016  0.7448
11907TIP3    H257213   4.998   0.926  15.071 -0.2724  0.5416  0.1985
11908TIP3   OH257214   2.638   4.586   1.961 -0.1035  0.5584  0.0121
11908TIP3    H157215   2.721   4.628   1.986  0.4912  0.0540 -1.0733
11908TIP3    H257216   2.627   4.515   2.025  1.5058 -0.8513 -1.2215
11909TIP3   OH257217   3.063   2.749   1.080  0.5255  0.2481 -0.3727
11909TIP3    H157218   3.149   2.707   1.080  0.1195 -0.6174  0.7028
11909TIP3    H257219   3.002   2.678   1.062  0.0709  0.9665 -1.7183
11910TIP3   OH257220   5.380   0.539   4.610  0.3797  0.4528 -0.7368
11910TIP3    H157221   5.303   0.592   4.628  0.0132 -0.4433  0.4032
11910TIP3    H257222   5.423   0.528   4.695  0.1378 -1.5114 -0.8268
11911TIP3   OH257223   1.513   0.986   6.097  0.1677  0.0075  0.3719
11911TIP3    H157224   1.563   0.906   6.084 -0.8777 -0.9072  1.7126
11911TIP3    H257225   1.561   1.033   6.165  0.5582  0.3305 -0.1239
11912TIP3   OH257226   4.899   1.479  16.353 -0.2731 -0.3887  0.3353
11912TIP3    H157227   4.919   1.448  16.265  2.2906 -0.6615  0.9800
11912TIP3    H257228   4.804   1.471  16.360 -0.4939 -0.5143 -2.3353
11913TIP3   OH257229   2.215   0.108  16.956 -0.2551 -0.6418  0.3656
11913TIP3    H157230   2.153   0.164  17.001  1.7749  1.0230  1.1749
11913TIP3    H257231   2.172   0.023  16.951 -0.9372 -0.6264  4.5444
11914TIP3   OH257232   3.243   4.473  13.610 -0.0254  0.2973  0.1013
11914TIP3    H157233   3.227   4.436  13.697  1.3972  2.2049  1.2154
11914TIP3    H257234   3.287   4.556  13.628 -1.4005  1.5996 -2.4014
11915TIP3   OH257235   1.993   5.555  16.849  0.2873 -0.0253  0.2494
11915TIP3    H157236   1.924   5.603  16.803  1.1089 -0.4288 -1.4470
11915TIP3    H257237   1.976   5.571  16.942 -2.5156 -0.7009 -0.1207
11916TIP3   OH257238   3.686   2.457   4.032 -0.5548 -0.3821  0.0047
11916TIP3    H157239   3.765   2.438   4.083 -0.3893  0.3018  0.0188
11916TIP3    H257240   3.649   2.535   4.074 -0.7663 -0.1967 -0.5284
11917TIP3   OH257241   2.050   2.750   1.141 -0.7096 -0.3543  0.2534
11917TIP3    H157242   1.982   2.766   1.208 -0.7005 -1.5604  0.5664
11917TIP3    H257243   2.132   2.760   1.188 -0.6846 -0.1428  0.1669
11918TIP3   OH257244   6.728   2.380   5.739 -0.2494  0.1147  0.6479
11918TIP3    H157245   6.649   2.397   5.687  1.3288  0.5906 -1.6473
11918TIP3    H257246   6.774   2.464   5.739  2.1493 -1.1576 -1.3208
11919TIP3   OH257247   0.832   5.473   4.290 -0.3844  0.1765  0.1241
11919TIP3    H157248   0.808   5.440   4.377  0.9830 -1.4582 -0.0921
11919TIP3    H257249   0.898   5.540   4.308 -0.3594  0.0909  0.3632
11920TIP3   OH257250   2.603   1.302   4.435 -0.1613 -0.3197  0.3096
11920TIP3    H157251   2.540   1.373   4.446  0.4211  0.5256 -1.5975
11920TIP3    H257252   2.615   1.294   4.341  0.8862 -1.9959  0.5449
11921TIP3   OH257253   0.824   4.202  13.380 -0.0077 -0.4608  0.3229
11921TIP3    H157254   0.770   4.131  13.347 -0.3173 -0.8737  1.6839
11921TIP3    H257255   0.762   4.266  13.415  0.3376 -0.4247  0.8880
11922TIP3   OH257256   4.258   5.198  11.936 -0.0789  0.7250 -0.0041
11922TIP3    H157257   4.351   5.189  11.916  0.2650 -0.4938  1.9851
11922TIP3    H257258   4.253   5.269  11.999 -0.5437  0.9597 -0.2946
11923TIP3   OH257259   1.610   5.781  14.446  0.0690  0.4464 -0.8109
11923TIP3    H157260   1.669   5.798  14.373  2.2391 -0.1298  0.7576
11923TIP3    H257261   1.611   5.686  14.457 -1.5796  0.3855 -1.1040
11924TIP3   OH257262   3.888   2.694   2.432  0.4977 -0.0163  1.2331
11924TIP3    H157263   3.825   2.660   2.496  0.2014  0.4003  1.1697
11924TIP3    H257264   3.938   2.617   2.404 -0.0310 -0.3632  1.2314
11925TIP3   OH257265   1.799   5.684   5.378  0.1798  0.6024  1.3211
11925TIP3    H157266   1.846   5.734   5.445  1.5934  0.2047  0.6399
11925TIP3    H257267   1.781   5.599   5.419 -0.6924  1.0455  1.8719
11926TIP3   OH257268   1.428   1.259   6.904 -0.2064  0.6212 -0.8283
11926TIP3    H157269   1.366   1.217   6.962  0.7634 -0.1858 -0.3551
11926TIP3    H257270   1.470   1.326   6.958  2.1244 -1.4595  0.0315
11927TIP3   OH257271   2.488   2.626   6.837  0.2554 -0.1354  0.5859
11927TIP3    H157272   2.474   2.587   6.924  0.3305 -1.8956 -0.1691
11927TIP3    H257273   2.583   2.641   6.833  0.1032  1.1022  1.2661
11928TIP3   OH257274   1.142   4.024   3.403  0.0665  0.2039 -0.5182
11928TIP3    H157275   1.066   3.981   3.363  0.2609  0.9709 -1.7391
11928TIP3    H257276   1.213   4.012   3.339  0.5732  0.8268 -0.0844
11929TIP3   OH257277   2.713   2.168   5.592  0.0841  0.3884  0.3586
11929TIP3    H157278   2.734   2.078   5.567  1.3615  0.3978  1.3776
11929TIP3    H257279   2.712   2.167   5.687 -1.2070  1.1727  0.3664
11930TIP3   OH257280   0.191   6.708   3.174 -0.1849 -0.0281 -0.6410
11930TIP3    H157281   0.241   6.629   3.154 -0.9817 -0.7894  0.3249
11930TIP3    H257282   0.230   6.775   3.118  2.4174 -0.4193  0.6278
11931TIP3   OH257283   4.977   6.171  17.038 -0.0771  0.0322 -0.4590
11931TIP3    H157284   5.065   6.151  17.008  0.6189 -1.3275  2.2641
11931TIP3    H257285   4.990   6.208  17.125 -2.0056  3.1986 -1.4497
11932TIP3   OH257286   5.956   6.463   3.961  0.0665 -0.2420  0.1564
11932TIP3    H157287   5.977   6.481   4.053  1.0918  0.3888 -0.1979
11932TIP3    H257288   6.031   6.414   3.928 -0.6306 -1.1223 -0.1621
11933TIP3   OH257289   1.612   4.796   5.203 -0.2149 -0.7628 -0.4287
11933TIP3    H157290   1.528   4.808   5.158 -0.0503 -0.5221 -0.6685
11933TIP3    H257291   1.588   4.752   5.285 -0.2875 -3.0850 -1.6713
11934TIP3   OH257292   2.755   2.885   0.310  0.9158 -0.4425  0.2557
11934TIP3    H157293   2.670   2.846   0.291  0.5024  0.5951 -0.0697
11934TIP3    H257294   2.760   2.961   0.253  0.2852  1.9015  3.1791
11935TIP3   OH257295   2.624   5.704  12.700 -0.2216  0.4171  0.4327
11935TIP3    H157296   2.635   5.612  12.724 -1.1050  0.2618  0.2350
11935TIP3    H257297   2.645   5.751  12.781  2.2275  0.1600 -0.0034
11936TIP3   OH257298   2.081   1.351  14.624 -0.4074 -0.3348 -0.3611
11936TIP3    H157299   1.994   1.317  14.645 -0.5000  0.0645 -0.1063
11936TIP3    H257300   2.067   1.444  14.605  0.1809  0.0695  1.1309
11937TIP3   OH257301   1.116   5.274   6.222  0.1384 -0.4186  0.4417
11937TIP3    H157302   1.135   5.261   6.129 -2.8413 -0.0139 -0.2761
11937TIP3    H257303   1.175   5.345   6.249  1.2934 -0.7935 -1.0220
11938TIP3   OH257304   4.551   3.118  13.213 -0.0984 -0.4421 -0.4187
11938TIP3    H157305   4.549   3.023  13.219 -1.5390 -0.3321  1.1413
11938TIP3    H257306   4.631   3.145  13.258 -0.3905 -0.8324  0.3268
11939TIP3   OH257307   6.569   6.165  15.002  0.2048  0.4845  0.7157
11939TIP3    H157308   6.658   6.164  14.967 -0.3869 -2.5333 -0.8502
11939TIP3    H257309   6.517   6.210  14.935 -0.1297 -1.2841 -0.2295
11940TIP3   OH257310   3.978   5.106  15.507  0.0144 -0.1281  0.2176
11940TIP3    H157311   3.929   5.177  15.466 -0.8687 -0.2294  1.0889
11940TIP3    H257312   3.946   5.026  15.464 -1.2540 -0.2804  1.3838
11941TIP3   OH257313   3.933   2.835  14.107 -0.3962 -0.6577 -0.6997
11941TIP3    H157314   4.015   2.850  14.061 -0.6493  0.5566 -0.7530
11941TIP3    H257315   3.865   2.847  14.041 -0.5892 -2.9110 -0.9740
11942TIP3   OH257316   0.906   2.564  13.039  0.0153  0.1221 -0.2795
11942TIP3    H157317   0.893   2.473  13.013  0.3773 -0.5806  1.9078
11942TIP3    H257318   0.844   2.578  13.110  1.9868  0.6878  1.3814
11943TIP3   OH257319   1.650   2.271  11.505  0.2276 -0.1526 -0.0465
11943TIP3    H157320   1.642   2.351  11.454  0.8585  0.4556  0.8034
11943TIP3    H257321   1.651   2.201  11.439 -1.0204  0.4755 -0.7578
11944TIP3   OH257322   3.800   6.476  12.055 -0.1272 -0.0980 -0.2286
11944TIP3    H157323   3.725   6.531  12.034 -0.3864 -0.2837  0.2104
11944TIP3    H257324   3.864   6.536  12.095 -0.3023 -0.0640  0.0008
11945TIP3   OH257325   4.237   3.317   3.172 -0.1864 -0.7866 -0.1604
11945TIP3    H157326   4.303   3.383   3.195 -0.9798  0.4847 -1.4353
11945TIP3    H257327   4.287   3.249   3.126  0.2188  0.2828 -1.3421
11946TIP3   OH257328   4.923   3.891  14.880 -0.6105  0.2093 -0.0940
11946TIP3    H157329   4.878   3.835  14.817 -1.8704  0.6781  0.3733
11946TIP3    H257330   4.964   3.959  14.826 -1.0867  0.2053 -0.4685
11947TIP3   OH257331   4.858   0.717  14.239  0.1374 -0.0218  0.5635
11947TIP3    H157332   4.891   0.741  14.325 -0.7396 -0.2483  0.9664
11947TIP3    H257333   4.846   0.622  14.243 -0.5267  0.0540  0.4089
11948TIP3   OH257334   3.156   6.125  13.624  0.0781  0.2460 -0.7205
11948TIP3    H157335   3.092   6.192  13.647 -0.2354 -0.2417 -0.1566
11948TIP3    H257336   3.104   6.049  13.601  0.4441 -0.0083 -0.7140
11949TIP3   OH257337   3.846   1.453   1.096 -0.4156 -0.2957  0.4197
11949TIP3    H157338   3.802   1.452   1.011 -0.1943 -1.0738  0.3079
11949TIP3    H257339   3.820   1.369   1.136  0.7774 -0.6545  0.4470
11950TIP3   OH257340   4.090   3.301  11.698 -0.7166  0.3041  0.1649
11950TIP3    H157341   4.168   3.341  11.660 -1.6228  1.0709 -0.9277
11950TIP3    H257342   4.113   3.209  11.712  0.3427  0.5092 -0.2473
11951TIP3   OH257343   4.792   5.588   3.544  0.4101 -0.2386  0.4991
11951TIP3    H157344   4.706   5.604   3.582 -0.4122 -1.4559 -0.8138
11951TIP3    H257345   4.846   5.561   3.618 -0.2506  0.7956  1.3773
11952TIP3   OH257346   1.188   5.054  16.445  0.2183 -0.0502 -0.2581
11952TIP3    H157347   1.096   5.031  16.462  0.5249 -0.2655  1.2095
11952TIP3    H257348   1.183   5.134  16.393 -0.8032  0.5449  0.7281
11953TIP3   OH257349   0.977   5.783   3.234  0.0929 -0.0304 -0.1560
11953TIP3    H157350   1.054   5.838   3.247 -0.5063  0.7400  0.1689
11953TIP3    H257351   0.943   5.808   3.148  0.9778 -1.3410 -0.9139
11954TIP3   OH257352   6.749   2.636  15.174  0.2575 -0.0715  0.4289
11954TIP3    H157353   6.763   2.642  15.080  1.5414  3.0988  0.7472
11954TIP3    H257354   6.837   2.630  15.211 -0.2422 -1.3517  1.4493
11955TIP3   OH257355   4.288   6.177  13.663 -0.2834 -0.4827  0.1707
11955TIP3    H157356   4.240   6.153  13.584 -0.4848 -0.9072  0.4235
11955TIP3    H257357   4.267   6.269  13.677  0.9109 -0.0087 -1.0958
11956TIP3   OH257358   6.069   1.623   3.308 -0.2950 -0.1925 -0.5797
11956TIP3    H157359   6.077   1.718   3.310  1.5971 -0.3246 -0.1110
11956TIP3    H257360   6.065   1.601   3.214 -0.5486  0.3278 -0.6924
11957TIP3   OH257361   1.889   4.652   0.273  0.2737 -0.2395 -0.4993
11957TIP3    H157362   1.805   4.699   0.271 -0.8418 -2.1852 -1.1481
11957TIP3    H257363   1.925   4.671   0.359 -0.5119  1.1545 -0.4564
11958TIP3   OH257364   4.919   6.775  15.200  0.0060  1.1522  0.3453
11958TIP3    H157365   4.941   6.770  15.293  1.1387 -1.7261 -0.0201
11958TIP3    H257366   4.830   6.809  15.199 -0.8352 -0.8092  2.6319
11959TIP3   OH257367   1.750   6.283   2.423 -0.8366  0.9517 -0.3590
11959TIP3    H157368   1.840   6.307   2.443 -1.1901  0.1034  2.4175
11959TIP3    H257369   1.722   6.347   2.358  1.3002  2.1044 -0.1733
11960TIP3   OH257370   4.765   0.264  11.133 -0.1359  0.1795 -0.2627
11960TIP3    H157371   4.688   0.225  11.176  0.8791 -1.6589 -0.0443
11960TIP3    H257372   4.735   0.282  11.044 -0.6920 -0.9646 -0.3214
11961TIP3   OH257373   0.908   1.908  11.815  0.6738  0.2036 -0.2650
11961TIP3    H157374   0.916   1.859  11.733  0.6709  1.4254 -1.0209
11961TIP3    H257375   0.870   1.992  11.788  1.7323  1.0438  0.8264
11962TIP3   OH257376   4.881   0.010   3.731  0.8109  0.0627  0.3644
11962TIP3    H157377   4.883   0.000   3.636 -0.8202 -1.7643  0.4807
11962TIP3    H257378   4.853   0.100   3.746 -0.4800 -0.1134 -0.9176
11963TIP3   OH257379   0.814   5.615   2.410 -0.0115  0.5569  0.0739
11963TIP3    H157380   0.779   5.623   2.498  0.1922  1.5388  0.0719
11963TIP3    H257381   0.738   5.613   2.353 -0.1498 -0.3060  0.2891
11964TIP3   OH257382   5.349   2.957   3.948  0.0166  0.6553  0.1322
11964TIP3    H157383   5.389   3.034   3.988 -0.3967  1.5054 -1.0798
11964TIP3    H257384   5.346   2.892   4.019 -0.2395  1.9694  1.3474
11965TIP3   OH257385   5.145   3.986  11.147  0.6486 -0.5657 -0.3892
11965TIP3    H157386   5.174   4.041  11.075  2.5779 -1.6370 -0.4950
11965TIP3    H257387   5.191   3.903  11.132 -0.3705 -1.3975  1.0451
11966TIP3   OH257388   1.791   3.942   4.218 -0.2524  0.1718  0.5182
11966TIP3    H157389   1.795   3.954   4.123  1.8667  0.8382  0.6655
11966TIP3    H257390   1.805   3.848   4.231  0.7440  0.2777  0.2315
11967TIP3   OH257391   2.444   4.880   3.900  0.3211  0.1167 -0.6161
11967TIP3    H157392   2.419   4.920   3.817  0.2563 -0.8490 -1.0665
11967TIP3    H257393   2.507   4.813   3.877  0.5720  0.0786  0.1568
11968TIP3   OH257394   1.968   6.427   3.773  0.9345  0.2690 -0.8284
11968TIP3    H157395   1.907   6.361   3.806 -0.0030  1.7854  0.5690
11968TIP3    H257396   1.915   6.479   3.712  0.5598  2.1413  1.0601
11969TIP3   OH257397   5.004   1.401  13.632  0.3963  0.0792  0.4625
11969TIP3    H157398   4.935   1.410  13.567 -1.2208  0.3412  2.1593
11969TIP3    H257399   5.063   1.474  13.616  0.1881 -0.0445 -0.8804
11970TIP3   OH257400   3.734   1.921   5.617 -0.5203 -0.4062  0.3424
11970TIP3    H157401   3.761   2.009   5.645  1.3149 -1.0097  0.5125
11970TIP3    H257402   3.738   1.868   5.697  0.8762 -1.2249 -0.2545
11971TIP3   OH257403   0.766   6.167   1.020  0.1697 -0.4917  0.1548
11971TIP3    H157404   0.769   6.232   0.950 -0.8397  0.5799  1.0995
11971TIP3    H257405   0.858   6.154   1.045  0.3735  0.5394 -0.0600
11972TIP3   OH257406   0.112   5.782  15.009 -0.1736  0.6732  0.2923
11972TIP3    H157407   0.023   5.786  14.974 -0.1580 -0.2066  0.1441
11972TIP3    H257408   0.135   5.873  15.028 -1.8185  0.7359  2.1058
11973TIP3   OH257409   2.845   6.522   3.395 -0.3342 -0.0335 -0.3831
11973TIP3    H157410   2.836   6.468   3.316  0.8426  1.9118 -1.8938
11973TIP3    H257411   2.793   6.600   3.377  0.2895  0.6238  0.6086
11974TIP3   OH257412   2.635   5.588   1.195  0.2598 -0.1683  0.4167
11974TIP3    H157413   2.654   5.511   1.250 -1.5197 -1.5146 -0.7675
11974TIP3    H257414   2.558   5.627   1.236 -0.7192 -0.8411 -0.7680
11975TIP3   OH257415   2.842   1.200   4.589 -0.4030 -0.1601 -0.1956
11975TIP3    H157416   2.778   1.263   4.557 -0.0353  0.6242  0.5971
11975TIP3    H257417   2.790   1.132   4.631 -0.7570  0.0790 -0.2446
11976TIP3   OH257418   5.276   5.195   0.104  0.3713  0.0642  0.4502
11976TIP3    H157419   5.256   5.260   0.171 -0.5604 -1.8160  2.0496
11976TIP3    H257420   5.193   5.180   0.058  0.3005 -0.8030  0.8410
11977TIP3   OH257421   6.035   4.815   5.305 -0.3788  0.1111 -0.3503
11977TIP3    H157422   6.018   4.738   5.250  1.1230 -0.7723  0.3985
11977TIP3    H257423   6.084   4.781   5.380  0.9480  1.9012 -0.3735
11978TIP3   OH257424   3.116   2.485  14.538 -0.1405  0.6809  0.2827
11978TIP3    H157425   3.186   2.431  14.501 -0.2310  1.3109 -0.8515
11978TIP3    H257426   3.152   2.574  14.539 -0.7977  0.9577 -0.0259
11979TIP3   OH257427   6.493   1.260  14.942 -0.0222  0.1136 -0.0281
11979TIP3    H157428   6.421   1.321  14.927 -1.9536 -2.1140 -0.1722
11979TIP3    H257429   6.461   1.204  15.014  2.1374 -0.0468  0.8350
11980TIP3   OH257430   1.677   5.239  14.335  0.1486  0.0881  0.1950
11980TIP3    H157431   1.732   5.316  14.347  0.1292 -0.1073  1.6051
11980TIP3    H257432   1.666   5.203  14.423  0.8895 -2.0533 -0.5479
11981TIP3   OH257433   2.275   6.038  14.521 -0.0247 -0.0799 -0.6326
11981TIP3    H157434   2.317   6.106  14.468  1.1202  0.3975  0.8265
11981TIP3    H257435   2.275   6.074  14.610 -4.1866  0.1968 -0.6829
11982TIP3   OH257436   5.253   4.952   4.226 -0.6239  1.0504 -0.1231
11982TIP3    H157437   5.191   4.929   4.295  0.1252 -1.7356 -0.3206
11982TIP3    H257438   5.337   4.963   4.270 -0.1873 -0.5232 -0.5302
11983TIP3   OH257439   1.215   0.529   6.513  0.2972  0.4214  0.1746
11983TIP3    H157440   1.294   0.476   6.504 -0.3869 -0.4124 -0.9915
11983TIP3    H257441   1.180   0.506   6.599  0.7363 -0.0069  0.2406
11984TIP3   OH257442   2.122   2.841  14.655 -0.1724 -0.4072  0.0893
11984TIP3    H157443   2.168   2.796  14.726 -0.2868  0.8490  0.9669
11984TIP3    H257444   2.133   2.783  14.579  1.7280 -0.7497  0.6153
11985TIP3   OH257445   4.003   2.840  13.133 -0.3597 -0.7858  0.0307
11985TIP3    H157446   4.002   2.770  13.199 -1.6225 -1.5711 -0.7956
11985TIP3    H257447   4.029   2.796  13.052  0.0569 -0.0544 -0.2335
11986TIP3   OH257448   4.979   1.114  14.216  0.2563  0.3239 -0.3165
11986TIP3    H157449   5.043   1.140  14.283 -0.2335 -2.7517  1.4413
11986TIP3    H257450   4.894   1.138  14.253  0.0893  0.1399 -0.5767
11987TIP3   OH257451   0.887   1.272  16.232 -0.3711 -0.5397 -0.0938
11987TIP3    H157452   0.860   1.302  16.319 -1.0541  0.8151 -0.7643
11987TIP3    H257453   0.823   1.310  16.172 -0.8619 -2.8071 -1.0556
11988TIP3   OH257454   6.706   1.968   3.952 -0.3120 -0.3402  0.1079
11988TIP3    H157455   6.703   1.878   3.920 -1.8220 -1.0728  2.1899
11988TIP3    H257456   6.652   2.018   3.890 -2.7723 -1.6379  1.1344
11989TIP3   OH257457   3.410   1.129  14.960 -0.1399 -0.1302 -0.3807
11989TIP3    H157458   3.417   1.067  15.033  1.0422  1.7214  1.1244
11989TIP3    H257459   3.497   1.170  14.955 -1.6464  3.3281  0.4325
11990TIP3   OH257460   6.516   3.398  12.461 -0.4468 -0.1226 -0.3770
11990TIP3    H157461   6.483   3.417  12.373 -1.7634 -0.9675 -0.0935
11990TIP3    H257462   6.489   3.308  12.478  0.8058 -0.3581  0.4488
11991TIP3   OH257463   2.599   5.025   2.689 -0.0636  0.1859 -0.2596
11991TIP3    H157464   2.522   5.030   2.632  0.9869 -0.1339 -1.7238
11991TIP3    H257465   2.563   5.029   2.778 -1.8785 -1.4670 -0.8934
11992TIP3   OH257466   0.757   1.934  15.271  0.2983 -0.5265 -0.2050
11992TIP3    H157467   0.745   1.862  15.210 -0.3418 -0.0019 -0.7071
11992TIP3    H257468   0.672   1.946  15.313  0.4573 -0.1968  0.0323
11993TIP3   OH257469   4.116   0.690   3.255 -0.4858  0.2260  0.0584
11993TIP3    H157470   4.071   0.765   3.216 -1.3223 -1.0145 -1.4193
11993TIP3    H257471   4.179   0.729   3.316 -0.6702  2.1314 -0.9276
11994TIP3   OH257472   2.591   5.539  16.291  0.2058 -1.0423 -0.0042
11994TIP3    H157473   2.634   5.541  16.205 -0.3416  1.8532 -0.2818
11994TIP3    H257474   2.628   5.463  16.335  0.0839 -2.9013 -3.0090
11995TIP3   OH257475   6.444   4.219   0.672 -0.2966 -0.8903 -1.1952
11995TIP3    H157476   6.390   4.174   0.736 -0.4921  0.2662 -0.5277
11995TIP3    H257477   6.408   4.308   0.668 -0.1898 -0.9030 -2.7909
11996TIP3   OH257478   2.023   3.013  13.376 -0.2396  0.1728 -0.1451
11996TIP3    H157479   2.089   3.075  13.344 -1.6447  2.1306  0.6492
11996TIP3    H257480   1.940   3.060  13.368 -1.5907 -2.2474 -1.1555
11997TIP3   OH257481   1.259   0.061   6.030 -0.0056 -0.1866  0.3200
11997TIP3    H157482   1.303   0.144   6.013  0.8288 -0.5042  0.8383
11997TIP3    H257483   1.166   0.078   6.016  0.3527  0.2869 -1.6879
11998TIP3   OH257484   0.800   0.538  13.482 -0.1554 -0.1363  0.1534
11998TIP3    H157485   0.731   0.563  13.544 -0.2892 -1.5669  0.5953
11998TIP3    H257486   0.880   0.572  13.522 -0.4470  0.4642  0.2421
11999TIP3   OH257487   3.688   2.511  16.430 -0.1257  0.5288 -0.1187
11999TIP3    H157488   3.768   2.462  16.447  0.0484  0.7442 -0.3147
11999TIP3    H257489   3.694   2.587  16.488 -0.0611  0.6856 -0.3320
12000TIP3   OH257490   2.968   2.434  14.755  0.4815 -0.5649 -0.0871
12000TIP3    H157491   2.953   2.347  14.717  2.3512 -1.0085  0.1764
12000TIP3    H257492   3.022   2.479  14.692  0.3775  0.0539  0.2633
12001TIP3   OH257493   4.127   4.789  12.524 -0.5411 -0.4804  0.5993
12001TIP3    H157494   4.205   4.828  12.562 -1.0707  2.6928 -1.3424
12001TIP3    H257495   4.062   4.791  12.594  0.3823 -0.8420  1.4786
12002TIP3   OH257496   4.190   3.261  15.916 -0.0565 -0.1405 -0.0187
12002TIP3    H157497   4.130   3.295  15.983  0.1383 -0.5948  0.3878
12002TIP3    H257498   4.239   3.338  15.887 -1.9988  0.5605 -1.5561
12003TIP3   OH257499   0.681   3.893   0.337  0.4510 -0.3712  0.0060
12003TIP3    H157500   0.728   3.855   0.262  2.1474  0.3314  0.6983
12003TIP3    H257501   0.682   3.824   0.403 -0.4441 -0.7382 -0.3460
12004TIP3   OH257502   3.678   1.004  12.251  0.4625  0.7185 -0.3338
12004TIP3    H157503   3.706   0.955  12.174 -2.6412 -1.4214 -0.2241
12004TIP3    H257504   3.678   1.095  12.224 -1.0469 -0.0455 -3.0976
12005TIP3   OH257505   0.764   2.211   2.741  0.2848 -0.6539 -0.1730
12005TIP3    H157506   0.824   2.206   2.815 -1.5571 -0.2158  1.3565
12005TIP3    H257507   0.814   2.259   2.674  1.5417 -0.0481  1.1660
12006TIP3   OH257508   2.027   4.558  15.961 -0.1507 -0.0634  0.3210
12006TIP3    H157509   2.030   4.635  15.905 -1.3902 -0.5558 -0.4178
12006TIP3    H257510   2.119   4.544  15.986  0.5881 -0.5311 -2.5117
12007TIP3   OH257511   3.350   3.575  11.364  0.2618  0.0456 -0.0574
12007TIP3    H157512   3.399   3.635  11.420 -2.6926 -0.4836  3.2086
12007TIP3    H257513   3.384   3.488  11.387 -1.0206 -0.1802  0.9982
12008TIP3   OH257514   6.554   6.066  15.251 -0.0974  0.2893 -0.1655
12008TIP3    H157515   6.545   6.082  15.157  0.2255  0.2836 -0.1991
12008TIP3    H257516   6.571   6.152  15.289  0.2837  0.2234 -0.1788
12009TIP3   OH257517   0.354   2.053  16.960 -0.2539 -0.2599 -0.8795
12009TIP3    H157518   0.311   2.036  16.876 -1.6866  1.1305 -0.4619
12009TIP3    H257519   0.318   1.986  17.019 -1.6597  0.7033 -0.6101
12010TIP3   OH257520   2.792   5.671  16.930  0.5137  0.4783  0.4146
12010TIP3    H157521   2.847   5.621  16.870 -3.1150 -1.5921 -1.3931
12010TIP3    H257522   2.782   5.614  17.007 -1.1199 -0.3288 -0.3561
12011TIP3   OH257523   1.739   6.084  13.918  0.4436 -0.1801 -0.7260
12011TIP3    H157524   1.715   6.045  13.834 -0.7896 -1.7326  0.3254
12011TIP3    H257525   1.659   6.126  13.949  0.4891 -0.8484  0.3349
12012TIP3   OH257526   1.627   1.752  15.381  0.0968 -0.3261 -0.0351
12012TIP3    H157527   1.707   1.804  15.387  0.3649 -0.9564  2.2861
12012TIP3    H257528   1.655   1.670  15.339  0.2193  0.2655 -1.1436
12013TIP3   OH257529   0.740   6.771   1.316 -0.1044 -0.4584  0.4357
12013TIP3    H157530   0.751   6.849   1.261  1.8450  0.8457  2.5976
12013TIP3    H257531   0.657   6.784   1.361  0.9451  1.1110  1.9330
12014TIP3   OH257532   0.736   1.658  14.879  0.2336  0.1069 -0.3253
12014TIP3    H157533   0.724   1.566  14.901  0.1546  0.4185  0.9550
12014TIP3    H257534   0.777   1.657  14.792 -1.1341 -1.1003 -0.9728
12015TIP3   OH257535   0.144   4.020   2.965  0.0115  0.3002 -0.1037
12015TIP3    H157536   0.144   4.100   2.912 -0.2142  1.0277  0.9578
12015TIP3    H257537   0.231   3.983   2.952  0.0612  0.6376 -0.7402
12016TIP3   OH257538   0.930   5.625  16.114 -0.0056  0.2183  0.2561
12016TIP3    H157539   1.016   5.644  16.151  0.1005  3.1681 -1.3688
12016TIP3    H257540   0.916   5.692  16.048 -1.7340 -2.7231 -2.5623
12017TIP3   OH257541   2.815   6.132  15.794  1.4642 -0.1939  0.1719
12017TIP3    H157542   2.841   6.145  15.884 -0.0277  1.6378  0.3716
12017TIP3    H257543   2.871   6.190  15.743  0.3200  1.0099  0.2443
12018TIP3   OH257544   2.462   1.902  15.750 -0.1136  0.1800  0.1598
12018TIP3    H157545   2.445   1.824  15.696  0.6689 -1.2588  1.9657
12018TIP3    H257546   2.401   1.894  15.823 -0.0542  1.3053  0.3331
12019TIP3   OH257547   5.388   5.521   4.051 -0.1346  0.0048  0.2722
12019TIP3    H157548   5.399   5.484   4.138  0.0302 -2.3107 -0.6730
12019TIP3    H257549   5.459   5.584   4.042  1.1445 -1.3101  1.0232
12020TIP3   OH257550   5.899   1.124  15.483  0.6132  0.7036 -0.3706
12020TIP3    H157551   5.883   1.123  15.388 -0.4648  1.3048 -0.2029
12020TIP3    H257552   5.841   1.192  15.516 -0.9657 -1.3249  1.0827
12021TIP3   OH257553   3.599   5.996   0.278  0.1089  0.2775  0.6593
12021TIP3    H157554   3.517   5.983   0.230 -0.6192  1.6195  1.4921
12021TIP3    H257555   3.607   6.091   0.287  1.7570  0.1652  0.6104
12022TIP3   OH257556   6.413   1.188   5.011 -0.0663 -0.0601 -0.0034
12022TIP3    H157557   6.400   1.104   4.966 -2.5585 -0.5834  1.5722
12022TIP3    H257558   6.380   1.254   4.950  2.8158 -0.0873 -1.6563
12023TIP3   OH257559   4.692   2.214   5.257 -0.2874  0.1447  0.9204
12023TIP3    H157560   4.705   2.275   5.185  0.0837 -0.0756  0.7979
12023TIP3    H257561   4.659   2.134   5.216  0.6951 -0.2561  0.8896
12024TIP3   OH257562   5.623   0.161   5.266  0.4857  0.4866 -0.3441
12024TIP3    H157563   5.613   0.249   5.229 -0.4778  0.3586 -0.4093
12024TIP3    H257564   5.551   0.111   5.228  0.9775 -0.3155 -0.2408
12025TIP3   OH257565   4.624   3.179  14.395 -0.1591 -0.6679 -0.5764
12025TIP3    H157566   4.595   3.200  14.306 -1.3340  0.7157  0.1052
12025TIP3    H257567   4.711   3.217  14.402 -1.4739  2.4349 -0.0108
12026TIP3   OH257568   0.587   4.426   3.627  0.0110 -0.0279  0.1290
12026TIP3    H157569   0.513   4.365   3.619 -0.5455  0.2634  2.6074
12026TIP3    H257570   0.664   4.372   3.614 -0.5508 -0.8809  0.2795
12027TIP3   OH257571   5.489   4.771  15.846  0.5650 -0.1290  0.1326
12027TIP3    H157572   5.429   4.697  15.835 -0.1839  0.3756  0.7990
12027TIP3    H257573   5.445   4.845  15.805  1.7089 -0.2328 -1.3289
12028TIP3   OH257574   2.893   1.421   5.595 -0.2597  0.0967  0.0049
12028TIP3    H157575   2.802   1.452   5.591 -0.8210 -1.4898 -0.0716
12028TIP3    H257576   2.945   1.500   5.608 -1.7741  0.8979  1.4515
12029TIP3   OH257577   4.610   1.258  15.848  1.1298  0.1644 -0.0705
12029TIP3    H157578   4.548   1.270  15.777  0.3686  0.8257  0.6909
12029TIP3    H257579   4.615   1.163  15.861  0.4340  0.1057 -0.2525
12030TIP3   OH257580   2.729   0.672  11.905  0.1647 -0.0774  0.9119
12030TIP3    H157581   2.775   0.624  11.836 -0.0220 -2.7300  2.5694
12030TIP3    H257582   2.798   0.719  11.951  0.4829  0.4449 -0.0773
12031TIP3   OH257583   5.745   0.880  12.595  0.1243  0.0876  0.4082
12031TIP3    H157584   5.729   0.863  12.688  0.4971 -1.3781  0.2258
12031TIP3    H257585   5.794   0.962  12.593  0.9212 -0.3458  1.5766
12032TIP3   OH257586   5.685   3.739  16.221  0.0228  0.0806  0.6514
12032TIP3    H157587   5.742   3.683  16.170 -1.8926 -1.5896  0.2633
12032TIP3    H257588   5.635   3.788  16.156  0.1984  0.6818  0.9676
12033TIP3   OH257589   2.089   6.350   0.975 -0.2225  0.0056 -0.0509
12033TIP3    H157590   2.137   6.426   0.942  1.7708 -0.9274  0.6165
12033TIP3    H257591   2.090   6.288   0.903 -2.6433  0.9145 -0.9211
12034TIP3   OH257592   3.643   2.663   1.177 -0.1275  0.4616 -0.2658
12034TIP3    H157593   3.653   2.568   1.177 -0.7942  0.3851 -0.7387
12034TIP3    H257594   3.732   2.697   1.190  0.0435 -0.2274  0.3964
12035TIP3   OH257595   6.234   5.778   5.751 -0.4085 -0.2847  0.2901
12035TIP3    H157596   6.283   5.815   5.825  1.1432 -1.1225 -0.2992
12035TIP3    H257597   6.272   5.820   5.674 -1.5541  0.0709 -0.0858
12036TIP3   OH257598   5.337   0.595   4.076 -0.2224  0.7026 -0.1629
12036TIP3    H157599   5.287   0.641   4.009 -0.0704  2.4385  0.8951
12036TIP3    H257600   5.292   0.615   4.158  0.6037  0.0250  0.4680
12037TIP3   OH257601   5.225   6.423  12.287  1.1751  0.2590 -0.4439
12037TIP3    H157602   5.305   6.420  12.339 -0.0704 -3.0872  1.4286
12037TIP3    H257603   5.246   6.371  12.209  0.2967 -2.3315  0.9756
12038TIP3   OH257604   0.032   6.818   0.162  0.4061 -0.5033 -0.9567
12038TIP3    H157605   0.069   6.747   0.214 -0.7542  0.6388  1.5148
12038TIP3    H257606  -0.060   6.793   0.149 -0.0729  0.6313  0.1408
12039TIP3   OH257607   3.802   1.729   4.610 -0.1146 -0.6468  0.5126
12039TIP3    H157608   3.719   1.769   4.585  0.4936 -0.6675 -1.6699
12039TIP3    H257609   3.778   1.645   4.647 -1.1993  0.3230  2.0392
12040TIP3   OH257610   6.129   5.581   0.321  0.4255 -0.1433 -0.0126
12040TIP3    H157611   6.222   5.585   0.298  0.8607 -1.3972  1.3900
12040TIP3    H257612   6.098   5.500   0.280  0.0407  0.0979 -0.1959
12041TIP3   OH257613   5.367   1.621   1.392  0.2240  0.2712  0.4477
12041TIP3    H157614   5.431   1.551   1.386  0.7653  0.8964 -1.3008
12041TIP3    H257615   5.295   1.593   1.334  0.1938  0.8893  0.1798
12042TIP3   OH257616   6.541   3.323  11.213  0.2485  0.0944 -0.0098
12042TIP3    H157617   6.490   3.309  11.134  0.5510 -0.6746 -0.0759
12042TIP3    H257618   6.630   3.296  11.190 -0.3740 -3.6841  1.6248
12043TIP3   OH257619   2.983   2.053   0.538  0.5015 -0.0412  0.2074
12043TIP3    H157620   3.014   2.138   0.507  0.3563 -0.7193 -1.9408
12043TIP3    H257621   2.907   2.073   0.593 -0.5831  1.1615 -1.6544
12044TIP3   OH257622   3.968   3.166   1.373 -0.2261  0.1322 -0.8667
12044TIP3    H157623   4.017   3.109   1.314 -0.6228  0.5630 -1.6233
12044TIP3    H257624   4.029   3.236   1.395  0.0822 -0.2946 -0.3781
12045TIP3   OH257625   3.186   0.020   5.916 -0.1752 -0.0548 -0.1854
12045TIP3    H157626   3.198   0.104   5.871  1.3854 -0.0069  0.2839
12045TIP3    H257627   3.171  -0.043   5.847 -0.6611  0.4976 -0.5888
12046TIP3   OH257628   2.542   1.134   2.189  0.4724 -0.3786 -0.4530
12046TIP3    H157629   2.599   1.202   2.224 -2.1719  1.2189  0.9024
12046TIP3    H257630   2.552   1.061   2.251  0.3551  0.2212  0.2850
12047TIP3   OH257631   2.485   4.906   4.169 -0.5002 -0.5324 -0.2039
12047TIP3    H157632   2.495   4.898   4.074 -0.1249  1.1921 -0.3315
12047TIP3    H257633   2.392   4.924   4.183 -0.2154  1.2436 -0.4296
12048TIP3   OH257634   3.341   2.829  16.505 -0.4389  0.1260  0.1597
12048TIP3    H157635   3.316   2.776  16.581 -3.3965  0.1047 -0.7459
12048TIP3    H257636   3.363   2.764  16.438  0.5165  0.1188  0.4787
12049TIP3   OH257637   2.755   2.115  17.166 -0.3470 -0.1899 -0.3518
12049TIP3    H157638   2.745   2.206  17.137  0.0849 -0.3227 -0.9319
12049TIP3    H257639   2.747   2.063  17.086  1.9264 -0.4893 -0.4078
12050TIP3   OH257640   1.049   1.424   3.428  0.4067 -0.5223 -0.1569
12050TIP3    H157641   1.137   1.435   3.391  0.0754  0.2385 -0.7148
12050TIP3    H257642   1.038   1.500   3.485 -0.1029 -0.3286 -0.5125
12051TIP3   OH257643   2.858   3.310   5.900 -0.1826 -0.1915  0.4835
12051TIP3    H157644   2.851   3.216   5.886  0.6011 -0.1867  0.0090
12051TIP3    H257645   2.889   3.319   5.990 -3.8047 -0.2635  1.8017
12052TIP3   OH257646   2.321   0.156   1.911  0.1754 -0.3386 -0.1811
12052TIP3    H157647   2.373   0.083   1.878  3.2809  2.2670 -1.2608
12052TIP3    H257648   2.321   0.220   1.840  0.4643  2.1512  1.9976
12053TIP3   OH257649   1.258   6.777  14.187 -0.2184  0.0781  0.0020
12053TIP3    H157650   1.210   6.734  14.259 -0.7175  1.8808  0.7609
12053TIP3    H257651   1.222   6.736  14.108 -0.2971 -1.2978  0.7176
12054TIP3   OH257652   3.480   0.538   4.162  0.6547  0.0920 -0.5620
12054TIP3    H157653   3.443   0.626   4.176  0.8531 -0.1482  1.7091
12054TIP3    H257654   3.569   0.554   4.132  1.0047  0.6893  0.7468
12055TIP3   OH257655   1.466   3.216   5.963  0.1359  0.5166 -0.1883
12055TIP3    H157656   1.482   3.122   5.966  0.5244  0.5993  0.7313
12055TIP3    H257657   1.481   3.245   6.053 -1.6830  1.1805 -0.0731
12056TIP3   OH257658   2.087   0.669   5.271  0.1038  0.1474  0.2215
12056TIP3    H157659   2.101   0.743   5.212  2.1295  0.3012  0.8745
12056TIP3    H257660   2.141   0.599   5.236 -0.1470 -0.3529  0.8302
12057TIP3   OH257661   5.929   5.094  12.803  0.4183 -0.0458  0.5754
12057TIP3    H157662   6.014   5.051  12.810  0.7951  0.5164 -0.4174
12057TIP3    H257663   5.872   5.046  12.863  0.7351 -2.1242 -0.7516
12058TIP3   OH257664   3.494   4.478  13.835  0.3005 -0.6069 -0.1250
12058TIP3    H157665   3.463   4.458  13.923  1.5927 -0.8618  0.2807
12058TIP3    H257666   3.496   4.393  13.791 -0.4024 -0.4718 -0.4234
12059TIP3   OH257667   0.942   0.036  10.461  0.2131  0.3753  0.7115
12059TIP3    H157668   0.936  -0.059  10.446  2.9180  0.3127 -0.4357
12059TIP3    H257669   1.036   0.051  10.471  0.0104  3.2520 -1.3278
12060TIP3   OH257670   3.223   5.165   0.533 -0.1139  0.3660  0.2447
12060TIP3    H157671   3.227   5.110   0.455  1.7201 -0.5645  0.9781
12060TIP3    H257672   3.278   5.120   0.597 -1.4021  1.2388  2.0164
12061TIP3   OH257673   1.776   3.365   1.375 -0.5244  0.7875  0.4499
12061TIP3    H157674   1.745   3.293   1.430 -0.2301  1.0164  0.9249
12061TIP3    H257675   1.859   3.333   1.338 -0.5387  0.7729  0.4308
12062TIP3   OH257676   1.404   5.005   1.083 -0.3124  0.0322  0.4181
12062TIP3    H157677   1.313   5.001   1.111 -0.5213 -1.4546 -0.4226
12062TIP3    H257678   1.455   4.999   1.164 -0.9382 -1.8844  0.6815
12063TIP3   OH257679   0.249   1.703   0.955  0.2817  0.0677  0.1219
12063TIP3    H157680   0.316   1.708   1.023 -0.1325  2.1834  0.4054
12063TIP3    H257681   0.297   1.684   0.875  0.9462 -0.8092  0.7231
12064TIP3   OH257682   6.068   1.899   3.282  0.1288 -0.1680 -0.3508
12064TIP3    H157683   5.976   1.891   3.308  0.1663 -0.7800 -0.3929
12064TIP3    H257684   6.076   1.988   3.247  0.5313  1.4843  3.5967
12065TIP3   OH257685   5.293   2.101   4.286  0.1561  0.4029 -0.2232
12065TIP3    H157686   5.208   2.101   4.241  0.5470  0.4246 -0.9837
12065TIP3    H257687   5.349   2.154   4.229  0.6738  0.3976  0.2847
12066TIP3   OH257688   6.654   5.370  16.230 -0.2049  0.2725 -0.0571
12066TIP3    H157689   6.730   5.382  16.173 -1.3190  1.8225 -1.2299
12066TIP3    H257690   6.692   5.364  16.318  1.5427 -2.3566 -0.9301
12067TIP3   OH257691   0.918   4.230   5.998  0.1067  0.0592  0.2850
12067TIP3    H157692   0.948   4.271   5.917 -0.3933 -0.2291 -0.0489
12067TIP3    H257693   0.908   4.137   5.976 -0.9105  0.1310  0.4239
12068TIP3   OH257694   4.966   0.400   5.497 -0.2840  0.1658 -0.6142
12068TIP3    H157695   5.050   0.428   5.459 -0.2354  1.6483  0.5604
12068TIP3    H257696   4.919   0.361   5.423  1.8585 -1.6772 -1.0596
12069TIP3   OH257697   2.976   3.683  16.759 -0.1244  0.4015 -0.0967
12069TIP3    H157698   3.061   3.641  16.745  0.6979  2.4446 -1.4778
12069TIP3    H257699   2.986   3.731  16.841 -0.2439 -0.0442  0.1831
12070TIP3   OH257700   1.067   0.885  13.331 -0.2961  0.2684  0.2195
12070TIP3    H157701   1.073   0.934  13.249 -1.0595 -0.3501 -0.2083
12070TIP3    H257702   1.149   0.837  13.337  0.2545  1.2180  0.4023
12071TIP3   OH257703   6.312   1.475   2.949 -0.3844  0.3857  0.1862
12071TIP3    H157704   6.395   1.464   2.902  0.3298 -0.8829  1.7028
12071TIP3    H257705   6.332   1.452   3.039 -2.3180  0.4243  0.6557
12072TIP3   OH257706   1.179   0.211  14.277 -0.3536 -0.3430  0.5454
12072TIP3    H157707   1.098   0.204  14.228 -0.3687  0.1664  0.4956
12072TIP3    H257708   1.225   0.129  14.260 -0.7566 -0.5383  0.3972
12073TIP3   OH257709   0.782   1.151   1.945 -0.2620 -0.2960 -0.3737
12073TIP3    H157710   0.830   1.082   1.991 -1.5462 -1.1737 -0.3299
12073TIP3    H257711   0.724   1.188   2.012 -0.0905  0.3549 -0.5787
12074TIP3   OH257712   5.202   1.289  17.007 -0.1346  0.4413  0.5810
12074TIP3    H157713   5.203   1.194  17.013  1.4485  0.3996  0.0235
12074TIP3    H257714   5.188   1.308  16.914 -1.9823  0.7773  0.9216
12075TIP3   OH257715   3.792   5.124   3.089  0.1790  0.8490 -1.2054
12075TIP3    H157716   3.765   5.044   3.135  0.6967  0.9349 -0.7446
12075TIP3    H257717   3.878   5.103   3.054  0.7364  1.5170 -0.2734
12076TIP3   OH257718   6.432   1.154   5.721  0.7072 -0.3747 -0.4015
12076TIP3    H157719   6.429   1.245   5.690  0.7331 -0.7625 -1.5680
12076TIP3    H257720   6.447   1.161   5.816  1.1060  0.8250 -0.5466
12077TIP3   OH257721   0.904   3.833   2.939 -0.1839  0.3725  0.0242
12077TIP3    H157722   0.896   3.907   3.000  0.0292  0.0006  0.5077
12077TIP3    H257723   0.835   3.773   2.966  0.7380 -0.3850  0.7335
12078TIP3   OH257724   1.967   5.070   4.644 -0.2591  0.0555 -0.1490
12078TIP3    H157725   2.044   5.043   4.595  0.3477  1.0266  0.2598
12078TIP3    H257726   1.976   5.028   4.729 -0.7841 -0.7906 -0.5099
12079TIP3   OH257727   5.866   4.807  16.548  0.5292  0.2431  0.0365
12079TIP3    H157728   5.915   4.730  16.577 -0.9112 -0.5465  0.4184
12079TIP3    H257729   5.852   4.792  16.454 -3.8956 -2.3655  0.9909
12080TIP3   OH257730   5.548   5.939  13.047 -0.0476  0.3676  0.0024
12080TIP3    H157731   5.479   5.877  13.071 -0.3025  0.8755  0.6056
12080TIP3    H257732   5.629   5.891  13.061 -0.3025 -0.7528 -2.1778
12081TIP3   OH257733   4.788   0.003  16.271 -0.0915  0.4112  0.1304
12081TIP3    H157734   4.730   0.053  16.328 -0.4347  0.6103 -0.3953
12081TIP3    H257735   4.730  -0.039  16.208  0.4236  1.5618 -1.1312
12082TIP3   OH257736   3.065   1.620  13.852  0.5077 -0.8526  0.4171
12082TIP3    H157737   3.122   1.551  13.819  0.9586  0.0045 -0.5944
12082TIP3    H257738   3.095   1.700  13.810  0.4248  0.1007  2.0973
12083TIP3   OH257739   3.627   5.847  17.034  0.2370 -0.2135 -0.5810
12083TIP3    H157740   3.646   5.895  17.114  0.7731  0.6360 -1.2158
12083TIP3    H257741   3.542   5.806  17.051  0.4634 -0.2543  0.5152
12084TIP3   OH257742   5.638   0.569   2.919 -0.1341 -0.0822 -0.1664
12084TIP3    H157743   5.644   0.638   2.985  0.9415  0.6931 -1.0454
12084TIP3    H257744   5.652   0.488   2.967  1.7626  0.5469  0.4076
12085TIP3   OH257745   0.305   0.786  15.755  0.1798 -0.3830  0.0824
12085TIP3    H157746   0.303   0.815  15.664  0.4397  0.5846  0.3674
12085TIP3    H257747   0.335   0.863  15.803  0.2614 -0.9533  0.9587
12086TIP3   OH257748   4.478   3.432  16.068 -0.0876  0.7945  0.1454
12086TIP3    H157749   4.483   3.526  16.054 -0.7133  0.9328  0.8763
12086TIP3    H257750   4.556   3.397  16.024  0.9574  1.7991  1.2026
12087TIP3   OH257751   6.660   6.494   3.741 -1.0344  0.6160 -0.3510
12087TIP3    H157752   6.742   6.504   3.693  0.4089 -0.4003  1.8196
12087TIP3    H257753   6.601   6.452   3.679  0.6709 -0.3051 -1.3769
12088TIP3   OH257754   3.489   1.882   1.076  0.1235 -0.0215 -0.2785
12088TIP3    H157755   3.483   1.846   0.987 -3.7175 -2.5756  0.8679
12088TIP3    H257756   3.551   1.824   1.121  0.5719  0.0925 -0.7404
12089TIP3   OH257757   3.051   3.204   5.615 -0.3854  0.1656  0.0667
12089TIP3    H157758   2.999   3.125   5.600  0.9221 -0.4428 -1.3993
12089TIP3    H257759   3.109   3.182   5.687  0.4200 -0.4384 -0.7604
12090TIP3   OH257760   3.488   0.172   5.094 -0.2036 -0.0881  0.6376
12090TIP3    H157761   3.463   0.103   5.033 -1.7948  0.1632  0.9999
12090TIP3    H257762   3.464   0.138   5.180  0.4570  0.2770  0.9721
12091TIP3   OH257763   1.525   3.625  14.909 -0.0964  0.3302  0.7098
12091TIP3    H157764   1.481   3.582  14.982  1.3342  1.1189  2.0582
12091TIP3    H257765   1.528   3.718  14.934  1.8024  0.3656  0.3759
12092TIP3   OH257766   5.891   4.768   1.379  0.4228  0.2985  0.1823
12092TIP3    H157767   5.985   4.785   1.371  0.4206  0.0028 -0.4867
12092TIP3    H257768   5.855   4.784   1.292  0.0845 -0.9986  0.0663
12093TIP3   OH257769   0.067   3.988   3.523 -0.6581 -0.3218  0.2700
12093TIP3    H157770   0.105   3.901   3.512 -1.5789 -0.5144 -1.6600
12093TIP3    H257771  -0.028   3.973   3.525 -0.8413  0.6595 -0.4820
12094TIP3   OH257772   6.116   5.349   6.344 -0.1321 -0.1410 -0.1481
12094TIP3    H157773   6.187   5.377   6.287  0.3836 -0.4442  0.3333
12094TIP3    H257774   6.128   5.399   6.424 -1.6676  1.2956 -0.7895
12095TIP3   OH257775   1.011   5.065  13.612 -0.1924  0.3828  0.7735
12095TIP3    H157776   1.024   4.986  13.559 -0.2486  0.8868  0.0050
12095TIP3    H257777   1.034   5.137  13.553  0.7305  0.8995  1.7569
12096TIP3   OH257778   0.636   5.387  15.811 -0.3029  0.0327 -0.0746
12096TIP3    H157779   0.670   5.472  15.840 -1.1364  0.8013 -1.2882
12096TIP3    H257780   0.694   5.323  15.851  0.4997  1.1907  0.6461
12097TIP3   OH257781   5.579   6.027  11.488 -0.7986 -0.5274  0.0711
12097TIP3    H157782   5.570   6.005  11.395  1.2921  0.6296 -0.4272
12097TIP3    H257783   5.491   6.014  11.524 -2.0788  0.7974 -2.4494
12098TIP3   OH257784   2.964   4.314  12.223 -0.2190  0.7003  0.3103
12098TIP3    H157785   2.966   4.253  12.149 -0.6061  0.7601  0.2480
12098TIP3    H257786   2.946   4.399  12.183 -1.5172  0.5609  0.5779
12099TIP3   OH257787   1.268   5.822   5.961  0.0105 -0.1108 -0.5731
12099TIP3    H157788   1.273   5.915   5.983 -0.0511 -0.2853  0.2070
12099TIP3    H257789   1.277   5.778   6.045 -0.2803 -0.8037 -0.9068
12100TIP3   OH257790   5.073   5.552   4.459  0.4602 -0.1611 -0.1393
12100TIP3    H157791   5.006   5.536   4.526  3.4109 -1.0419  2.7248
12100TIP3    H257792   5.076   5.647   4.450  0.8722  0.0373  1.9051
12101TIP3   OH257793   6.730   3.843  17.202  0.3182 -0.5533  0.4576
12101TIP3    H157794   6.702   3.815  17.289  0.3185  0.8372  0.9294
12101TIP3    H257795   6.759   3.934  17.215 -0.9396  0.1217 -1.2470
12102TIP3   OH257796   1.707   6.720  15.916 -0.1625  0.1865 -0.3001
12102TIP3    H157797   1.701   6.642  15.860 -0.0646  0.0180 -0.0785
12102TIP3    H257798   1.707   6.685  16.005  0.1099  0.4261 -0.2054
12103TIP3   OH257799   5.843   3.620  11.525  0.2463 -0.1128  0.0224
12103TIP3    H157800   5.859   3.607  11.432  0.1708 -0.0353 -0.0023
12103TIP3    H257801   5.767   3.565  11.544 -0.8810  1.2663 -0.3592
12104TIP3   OH257802   2.077   4.652  15.295  0.7129 -0.1659  0.1981
12104TIP3    H157803   2.021   4.702  15.355 -2.6735 -0.9756 -2.1710
12104TIP3    H257804   2.030   4.570  15.280  2.3961 -0.7638 -2.0971
12105TIP3   OH257805   4.407   4.015   5.278  0.3046  0.2169  0.8945
12105TIP3    H157806   4.440   4.079   5.341 -0.5478  1.3247  0.2297
12105TIP3    H257807   4.312   4.030   5.276  0.1413 -0.8047  0.4440
12106TIP3   OH257808   4.319   0.916  14.394 -0.2978  0.1006  0.7219
12106TIP3    H157809   4.378   0.846  14.366  1.0522  0.6135  2.2278
12106TIP3    H257810   4.376   0.990  14.411 -1.5918  1.2107  0.3547
12107TIP3   OH257811   5.863   0.903   4.946 -0.6682 -0.0353 -1.1539
12107TIP3    H157812   5.876   0.997   4.933 -0.9307  0.1879  0.1755
12107TIP3    H257813   5.792   0.881   4.886 -0.0361  0.4398 -2.0987
12108TIP3   OH257814   1.905   6.666   4.718  0.7703  0.1110 -0.5292
12108TIP3    H157815   1.857   6.583   4.715  0.8888 -0.0219  0.8139
12108TIP3    H257816   1.857   6.719   4.782  2.1818  0.1147  0.5476
12109TIP3   OH257817   0.057   4.529   1.104  0.2444  0.0143 -0.1838
12109TIP3    H157818   0.036   4.500   1.193  1.7767 -0.0406  0.1830
12109TIP3    H257819   0.044   4.623   1.105 -2.1697 -0.2759 -0.6269
12110TIP3   OH257820   5.172   0.228  10.869  0.7993  0.0557 -0.2163
12110TIP3    H157821   5.156   0.315  10.907  1.8686 -0.6119  1.8575
12110TIP3    H257822   5.244   0.193  10.921 -0.1426 -2.4083 -0.5257
12111TIP3   OH257823   1.873   0.706  11.660 -0.1118 -0.0960  0.4261
12111TIP3    H157824   1.791   0.722  11.612 -0.3031 -0.3227  0.6773
12111TIP3    H257825   1.845   0.678  11.747  0.2559  2.2866  1.3267
12112TIP3   OH257826   0.651   3.729  15.683  0.6342 -0.1389 -0.2202
12112TIP3    H157827   0.595   3.806  15.692 -1.3107 -1.6575  1.1002
12112TIP3    H257828   0.629   3.694  15.596  0.3343 -0.1182 -0.1537
12113TIP3   OH257829   6.583   3.832   3.431 -0.2199 -0.1181  0.2580
12113TIP3    H157830   6.666   3.796   3.461 -0.7046 -1.3508  0.1419
12113TIP3    H257831   6.516   3.774   3.469 -0.9453 -0.1333 -1.0073
12114TIP3   OH257832   0.738   5.168   3.378  1.0612  0.0491  0.4251
12114TIP3    H157833   0.661   5.225   3.384  2.4442  2.1209 -0.9481
12114TIP3    H257834   0.793   5.208   3.311  2.7696 -2.1242  0.4465
12115TIP3   OH257835   3.279   0.840  17.266  0.0317  0.7002  0.2242
12115TIP3    H157836   3.305   0.822  17.356  0.2006 -2.2774 -0.3826
12115TIP3    H257837   3.261   0.934  17.265 -0.0069  0.7726  3.3522
12116TIP3   OH257838   6.195   1.586   5.548  0.2835  0.2417  0.1652
12116TIP3    H157839   6.224   1.563   5.459 -0.2379  1.8852 -0.4507
12116TIP3    H257840   6.100   1.594   5.541  0.0092 -1.6749  1.3727
12117TIP3   OH257841   4.624   1.393  16.394  0.3035  1.0777 -0.2298
12117TIP3    H157842   4.577   1.335  16.333 -2.4373  1.8409  1.1014
12117TIP3    H257843   4.683   1.334  16.441 -0.6003 -0.2207 -0.6846
12118TIP3   OH257844   5.315   4.182  17.023  0.4948 -0.5303  0.4449
12118TIP3    H157845   5.276   4.234  17.093 -0.7086 -0.6724 -0.1232
12118TIP3    H257846   5.358   4.246  16.967  2.1609 -0.4760  1.7272
12119TIP3   OH257847   5.388   5.204  16.739 -0.1984 -0.0418  0.0778
12119TIP3    H157848   5.297   5.199  16.709 -0.4950  2.4055  0.4692
12119TIP3    H257849   5.428   5.270  16.683  0.8572  0.1919  1.0921
12120TIP3   OH257850   2.571   5.394  15.619  0.9384  0.2036 -0.3059
12120TIP3    H157851   2.628   5.397  15.542  0.4211  1.7559 -0.6440
12120TIP3    H257852   2.485   5.420  15.587  0.2345 -1.1776  0.4026
12121TIP3   OH257853   2.724   2.600  15.676 -0.0586  0.0812 -0.3964
12121TIP3    H157854   2.775   2.679  15.657 -0.1006 -0.1876 -1.6389
12121TIP3    H257855   2.756   2.572  15.762  1.3648  0.3350 -0.8266
12122TIP3   OH257856   1.592   3.319  12.126 -0.0182 -0.5610  0.4970
12122TIP3    H157857   1.602   3.225  12.144  1.1197 -0.3590  0.9641
12122TIP3    H257858   1.512   3.325  12.073 -0.5685 -1.7012  1.1725
12123TIP3   OH257859   4.216   1.740   0.351  0.3352 -0.0941 -0.5499
12123TIP3    H157860   4.279   1.802   0.386 -0.6399 -0.0817  1.2382
12123TIP3    H257861   4.132   1.769   0.387 -0.2802 -1.7962 -0.5786
12124TIP3   OH257862   4.080   1.829   5.226  0.1567  0.2862 -0.4694
12124TIP3    H157863   3.987   1.836   5.206  0.3431  0.1309 -1.4146
12124TIP3    H257864   4.124   1.852   5.144  0.9340 -0.8389 -0.3794
12125TIP3   OH257865   2.261   2.971   2.941 -0.2266 -0.6263 -0.3681
12125TIP3    H157866   2.220   3.018   3.014  1.0765 -0.1868  0.0998
12125TIP3    H257867   2.188   2.935   2.891 -1.0983 -1.7667  1.7041
12126TIP3   OH257868   6.172   0.900  15.038 -0.1524 -0.2764  0.8284
12126TIP3    H157869   6.079   0.889  15.055 -0.4179 -1.0156 -0.9963
12126TIP3    H257870   6.214   0.880  15.122 -1.6521  0.6199  1.8194
12127TIP3   OH257871   4.697   5.663  13.222  0.2332 -0.1323  0.5145
12127TIP3    H157872   4.764   5.594  13.229 -0.1025 -0.4610  0.5052
12127TIP3    H257873   4.744   5.744  13.241  0.9886 -0.1807 -1.0847
12128TIP3   OH257874   4.623   2.015   2.938  0.1191 -0.7136 -0.3346
12128TIP3    H157875   4.537   1.995   2.902 -0.2635 -0.5746  0.5096
12128TIP3    H257876   4.663   1.930   2.956  1.2047 -0.8623 -3.1594
12129TIP3   OH257877   1.111   1.553   1.277 -0.6452  0.0737  0.1430
12129TIP3    H157878   1.062   1.493   1.333 -0.0046 -0.7720 -0.1880
12129TIP3    H257879   1.199   1.554   1.313 -0.4920  0.3367 -0.2275
12130TIP3   OH257880   4.757   2.546   2.988  0.1143 -0.6539 -0.1798
12130TIP3    H157881   4.803   2.501   3.059  1.0088 -1.1440 -1.0498
12130TIP3    H257882   4.800   2.515   2.909 -1.3165 -0.6454 -0.9853
12131TIP3   OH257883   5.277   2.372   2.045 -0.3176  0.3119 -0.0242
12131TIP3    H157884   5.234   2.317   2.111 -0.7144  0.3973 -0.2127
12131TIP3    H257885   5.233   2.351   1.963  1.9498 -1.7701 -0.7782
12132TIP3   OH257886   1.049   1.281   1.648 -0.0025  0.4043 -0.8692
12132TIP3    H157887   1.125   1.327   1.611 -0.2978  1.8162  0.2445
12132TIP3    H257888   1.088   1.217   1.708  0.4290 -1.1689 -2.7691
12133TIP3   OH257889   2.177   0.993   3.613 -0.9118 -0.2173  0.1981
12133TIP3    H157890   2.096   1.024   3.573 -0.4867 -1.6582 -1.8562
12133TIP3    H257891   2.192   0.907   3.573 -0.6097 -1.8842  3.6522
12134TIP3   OH257892   5.825   2.054   4.339 -0.0379  0.0354  0.1528
12134TIP3    H157893   5.792   1.966   4.357 -0.7005  0.1146 -0.6169
12134TIP3    H257894   5.779   2.081   4.260  0.2777  1.0147  0.2909
12135TIP3   OH257895   6.647   1.634   0.372  0.0179  0.0324 -0.0632
12135TIP3    H157896   6.717   1.578   0.337  0.4068 -0.9936  2.2249
12135TIP3    H257897   6.642   1.708   0.312  0.1055 -2.0218 -2.6806
12136TIP3   OH257898   2.822   5.961   1.284 -0.0618  0.0574  0.4509
12136TIP3    H157899   2.788   5.911   1.358  0.1338  1.6796  1.6652
12136TIP3    H257900   2.916   5.967   1.300  0.5433 -2.3996 -1.6803
12137TIP3   OH257901   1.362   2.266  11.974 -0.1215  0.3160  0.3651
12137TIP3    H157902   1.286   2.323  11.960 -0.8001 -0.7371 -0.3595
12137TIP3    H257903   1.395   2.249  11.886 -1.3568 -2.2865  0.3526
12138TIP3   OH257904   4.953   0.736  13.582  0.0145  0.3652 -0.2738
12138TIP3    H157905   5.005   0.711  13.659 -0.0185  0.5280 -0.1986
12138TIP3    H257906   5.001   0.809  13.543  0.1477  0.1396 -0.5348
12139TIP3   OH257907   6.126   2.527   3.755 -0.1197 -0.0793  0.1175
12139TIP3    H157908   6.180   2.598   3.720 -0.0392 -1.1146 -1.9378
12139TIP3    H257909   6.189   2.462   3.787 -0.1783  0.0280  0.4519
12140TIP3   OH257910   3.637   1.563  15.628  0.5438 -0.4497  0.0357
12140TIP3    H157911   3.623   1.597  15.716  0.1088  2.0047 -0.9328
12140TIP3    H257912   3.702   1.622  15.589 -1.7057  0.5643 -2.3788
12141TIP3   OH257913   0.263   4.980  15.035 -0.0603  0.3552 -0.1916
12141TIP3    H157914   0.276   5.056  15.092  2.2091 -1.7898  2.2519
12141TIP3    H257915   0.231   4.911  15.093  0.3856 -1.3164 -1.8881
12142TIP3   OH257916   0.461   6.361   2.104  0.6555  0.1493  0.7852
12142TIP3    H157917   0.507   6.310   2.038 -0.2413  0.6688 -0.2434
12142TIP3    H257918   0.475   6.452   2.078 -0.3796  0.3298  0.8687
12143TIP3   OH257919   2.842   2.628  15.944 -0.2709 -0.4778 -0.3721
12143TIP3    H157920   2.907   2.682  15.988  0.1749 -2.2737  1.2144
12143TIP3    H257921   2.759   2.674  15.959  0.1246 -0.1231  0.8007
12144TIP3   OH257922   4.179   5.283   3.187 -0.8692  0.2002 -0.3294
12144TIP3    H157923   4.191   5.197   3.149 -0.2904 -0.2247  0.7810
12144TIP3    H257924   4.110   5.324   3.135 -0.2731 -0.4458 -1.6533
12145TIP3   OH257925   0.225   0.842   1.135  0.6576 -0.3497  0.1141
12145TIP3    H157926   0.146   0.886   1.164 -0.1817 -2.7200  1.5922
12145TIP3    H257927   0.291   0.864   1.201  1.1839  1.3763 -0.9552
12146TIP3   OH257928   0.761   6.787  16.904  0.1533 -0.2370  0.0084
12146TIP3    H157929   0.835   6.826  16.858 -1.3864 -0.9047 -3.1916
12146TIP3    H257930   0.722   6.859  16.954  1.3220  0.7341 -0.4650
12147TIP3   OH257931   0.136   3.266   5.592 -0.0704  0.4318  0.1832
12147TIP3    H157932   0.229   3.283   5.604 -0.0124 -0.3985  0.9271
12147TIP3    H257933   0.113   3.315   5.513  0.2500  3.3286  1.8280
12148TIP3   OH257934   1.026   2.316   1.597  1.0260 -0.1605  0.3554
12148TIP3    H157935   0.963   2.268   1.651  0.2971 -0.2380 -0.5428
12148TIP3    H257936   1.069   2.376   1.658  0.0529 -0.0828  0.9860
12149TIP3   OH257937   6.351   5.848  16.681 -0.0710  0.5412 -0.1127
12149TIP3    H157938   6.391   5.763  16.697  1.1335  0.4824 -3.1141
12149TIP3    H257939   6.277   5.830  16.623 -1.2541  1.2780  1.1354
12150TIP3   OH257940   2.050   0.955  14.377  0.2199  0.0824 -0.3908
12150TIP3    H157941   2.078   1.012  14.305  0.6603  0.0437 -0.2540
12150TIP3    H257942   2.107   0.980  14.450 -2.2184  2.2012  0.8358
12151TIP3   OH257943   4.054   5.097  12.456 -0.3520 -0.0692  0.2595
12151TIP3    H157944   3.987   5.088  12.524  0.3213  0.9842  1.0631
12151TIP3    H257945   4.133   5.123  12.503  0.3895 -0.3569 -0.8047
12152TIP3   OH257946   3.626   3.234   0.609 -0.5030 -0.3124 -0.3167
12152TIP3    H157947   3.619   3.236   0.704 -0.6324  0.2788 -0.3401
12152TIP3    H257948   3.566   3.164   0.582  0.5546 -1.3950  0.1293
12153TIP3   OH257949   2.090   2.775  11.132 -0.4581 -0.7603 -0.7259
12153TIP3    H157950   2.154   2.797  11.065  0.6514 -1.0579  0.2161
12153TIP3    H257951   2.069   2.858  11.175  1.1675 -1.0110  0.5886
12154TIP3   OH257952   2.368   2.801  13.714  0.4445  0.1624 -0.3512
12154TIP3    H157953   2.285   2.824  13.672 -0.3327 -0.0292  1.0440
12154TIP3    H257954   2.357   2.709  13.738  1.6449 -0.2953 -1.4814
12155TIP3   OH257955   2.584   0.897   6.272  0.1026 -0.9645 -0.1215
12155TIP3    H157956   2.576   0.925   6.363  1.4074 -1.0410  0.0348
12155TIP3    H257957   2.679   0.896   6.255 -0.0938 -1.5059 -1.3019
12156TIP3   OH257958   4.031   3.366   5.810  0.7505  0.1039  0.0747
12156TIP3    H157959   3.989   3.287   5.846  0.4715  0.4707  0.5647
12156TIP3    H257960   3.993   3.438   5.861  0.2359  0.6533 -1.0796
12157TIP3   OH257961   1.751   0.972   3.332  0.3357  0.2911  0.3161
12157TIP3    H157962   1.671   1.015   3.362  0.8579 -0.2299  2.5925
12157TIP3    H257963   1.725   0.880   3.319  0.7866 -0.1083  2.1113
12158TIP3   OH257964   3.913   0.793  14.458 -0.1928 -0.0334 -0.6788
12158TIP3    H157965   3.823   0.796  14.492  0.3492  1.2896  0.6882
12158TIP3    H257966   3.935   0.700  14.457 -0.6842 -0.1948  1.3822
12159TIP3   OH257967   6.759   5.692  13.432  0.1398  0.2020  0.0660
12159TIP3    H157968   6.814   5.701  13.354  0.2143  2.4266  0.3348
12159TIP3    H257969   6.670   5.689  13.397  0.2858 -0.8691 -0.2222
12160TIP3   OH257970   4.717   5.148   2.714 -0.4200  0.5347 -0.6746
12160TIP3    H157971   4.715   5.069   2.768 -1.9719 -0.5095 -2.2090
12160TIP3    H257972   4.715   5.220   2.777  0.4053 -0.6368  0.7320
12161TIP3   OH257973   5.671   1.254   4.618  0.1513 -0.2487 -0.2956
12161TIP3    H157974   5.650   1.164   4.641 -0.2692 -0.1189 -0.1746
12161TIP3    H257975   5.587   1.294   4.594  0.0316  0.6569  1.5158
12162TIP3   OH257976   0.151   2.211  16.790  0.6970  0.1804  0.0789
12162TIP3    H157977   0.223   2.151  16.773  1.2348  1.0747 -0.8104
12162TIP3    H257978   0.077   2.154  16.811  0.9189 -0.8411 -1.8104
12163TIP3   OH257979   6.698   1.325  13.927 -0.6990  0.3128  0.0706
12163TIP3    H157980   6.730   1.341  14.015 -0.1577 -0.8356  0.0907
12163TIP3    H257981   6.704   1.230  13.916  0.6483  0.5859 -1.7390
12164TIP3   OH257982   4.359   5.761  16.214 -0.5179  0.6705  0.1217
12164TIP3    H157983   4.280   5.813  16.199 -0.7780  0.2010 -0.1373
12164TIP3    H257984   4.418   5.821  16.261 -0.2378  1.6913 -1.4868
12165TIP3   OH257985   2.242   0.185  10.919  0.2619  0.1430 -0.1750
12165TIP3    H157986   2.234   0.280  10.921  0.4986  0.1433  2.0552
12165TIP3    H257987   2.333   0.168  10.941  0.6390 -0.5735 -2.1821
12166TIP3   OH257988   3.854   3.247  11.072 -0.0213 -0.4005  0.1847
12166TIP3    H157989   3.895   3.164  11.097  0.2215 -0.3632 -0.0888
12166TIP3    H257990   3.818   3.230  10.985  0.2805 -0.1314  0.0078
12167TIP3   OH257991   5.032   1.321  14.605 -0.3128 -0.1714 -0.2266
12167TIP3    H157992   5.113   1.334  14.655 -0.1580  1.8435 -0.9657
12167TIP3    H257993   5.052   1.251  14.544 -0.3139 -2.2745  2.1057
12168TIP3   OH257994   5.429   2.239   3.914  0.2780 -0.1974 -0.1723
12168TIP3    H157995   5.426   2.155   3.869 -2.5477  0.4343 -1.2498
12168TIP3    H257996   5.339   2.256   3.940  0.5799  3.0464 -1.0491
12169TIP3   OH257997   0.314   1.616   2.655 -0.2971  0.3305  0.5473
12169TIP3    H157998   0.221   1.636   2.669  0.0447  0.6256  2.4591
12169TIP3    H257999   0.358   1.700   2.662 -0.0186  0.3898 -1.6983
12170TIP3   OH258000   2.788   3.942  13.584 -0.0320 -0.3678  0.5735
12170TIP3    H158001   2.729   4.017  13.591  0.4906 -0.1283  2.8566
12170TIP3    H258002   2.836   3.956  13.503 -1.1427  0.8851  0.1215
12171TIP3   OH258003   5.768   3.548   1.813 -0.2103  0.5407  0.6783
12171TIP3    H158004   5.714   3.587   1.881 -0.6635 -0.0473  0.6625
12171TIP3    H258005   5.723   3.466   1.791 -0.9947  1.5242 -1.5422
12172TIP3   OH258006   4.321   2.239   1.692 -0.0859  0.3671  0.0061
12172TIP3    H158007   4.363   2.212   1.610 -0.9232 -0.7990 -0.0645
12172TIP3    H258008   4.369   2.192   1.760 -1.1606 -0.8626 -0.0638
12173TIP3   OH258009   3.986   6.092  16.814 -0.3102 -0.1020  0.1928
12173TIP3    H158010   4.059   6.103  16.754  0.1473 -1.0641  0.5680
12173TIP3    H258011   3.926   6.032  16.769 -0.3763 -0.1332  0.3198
12174TIP3   OH258012   0.999   0.186  12.473 -1.0740 -0.3556 -0.3626
12174TIP3    H158013   0.928   0.154  12.417 -0.4660 -2.7218  0.1728
12174TIP3    H258014   1.031   0.108  12.519  1.0209  0.8823  0.3690
12175TIP3   OH258015   5.014   1.673   2.071  0.0227 -0.4117 -0.3124
12175TIP3    H158016   5.049   1.680   1.982  0.9333 -1.7155 -0.0529
12175TIP3    H258017   5.051   1.749   2.117 -1.6253  1.1164 -1.4156
12176TIP3   OH258018   3.442   1.450  12.247 -0.0779 -0.5085 -0.0200
12176TIP3    H158019   3.374   1.389  12.217  0.6305 -0.1721 -2.4127
12176TIP3    H258020   3.398   1.506  12.311 -1.9278 -0.6284 -1.1511
12177TIP3   OH258021   2.563   4.918  13.491  0.2444  0.5146 -0.3797
12177TIP3    H158022   2.475   4.885  13.470  0.2688 -0.4269  0.9475
12177TIP3    H258023   2.552   5.013  13.493 -1.3443  0.3267  2.2599
12178TIP3   OH258024   0.609   2.611  13.556 -0.0856  0.2371 -0.0494
12178TIP3    H158025   0.660   2.531  13.543  1.2518  0.9875  0.4542
12178TIP3    H258026   0.589   2.612  13.649 -1.4426 -0.2816 -0.3200
12179TIP3   OH258027   1.654   6.130   2.911 -0.0304  1.0231 -0.1168
12179TIP3    H158028   1.654   6.215   2.868  1.9821  0.6068 -1.0125
12179TIP3    H258029   1.705   6.144   2.991 -1.2953  1.0966  0.6878
12180TIP3   OH258030   2.131   1.759  15.091  0.7158  0.2059 -0.0522
12180TIP3    H158031   2.102   1.728  15.005  0.5735  1.0308 -0.3070
12180TIP3    H258032   2.127   1.854  15.085 -0.8449  0.2625  1.3874
12181TIP3   OH258033   0.704   1.216  11.478 -0.5535  0.3921  0.6914
12181TIP3    H158034   0.673   1.201  11.568  2.6992 -1.0211  1.6399
12181TIP3    H258035   0.796   1.238  11.488  0.1656 -0.9708 -2.3948
12182TIP3   OH258036   5.188   0.651   4.296 -0.3209 -0.0085 -0.1833
12182TIP3    H158037   5.097   0.657   4.325  0.2409 -0.6601  1.8045
12182TIP3    H258038   5.239   0.662   4.376  1.3039 -1.8046 -0.9550
12183TIP3   OH258039   0.258   3.584   1.707 -0.2865 -0.6260  0.4033
12183TIP3    H158040   0.344   3.627   1.717 -1.0234  1.0183 -0.0906
12183TIP3    H258041   0.211   3.640   1.645 -2.1289 -0.8810  1.5525
12184TIP3   OH258042   4.884   1.668  17.027  0.4708  0.8979 -0.1421
12184TIP3    H158043   4.965   1.621  17.011 -0.6042 -1.3290  0.7040
12184TIP3    H258044   4.868   1.717  16.946  1.6185 -0.1973 -1.0519
12185TIP3   OH258045   2.234   2.046   5.014 -0.1164  0.4665  0.6624
12185TIP3    H158046   2.155   1.993   5.026  0.7874 -1.3677 -1.2333
12185TIP3    H258047   2.281   2.003   4.943  1.4938  2.8471  0.2420
12186TIP3   OH258048   3.894   4.792  11.821 -0.1259  0.4927  0.1046
12186TIP3    H158049   3.872   4.717  11.876 -0.2827 -0.0082 -0.6306
12186TIP3    H258050   3.962   4.838  11.870 -0.2055  0.0109  0.6809
12187TIP3   OH258051   6.023   6.494  12.371 -0.0108  0.7945  0.4109
12187TIP3    H158052   6.024   6.585  12.401  0.0442  1.3614 -1.2536
12187TIP3    H258053   5.965   6.494  12.295 -0.1093 -0.5921  0.4733
12188TIP3   OH258054   2.139   6.785  16.137 -0.0637  0.4590  0.5848
12188TIP3    H158055   2.073   6.742  16.191 -1.3273  1.4062 -0.1960
12188TIP3    H258056   2.094   6.807  16.056  0.8577  2.3300  0.5645
12189TIP3   OH258057   2.927   3.005  17.009 -0.1775  0.7618 -0.0919
12189TIP3    H158058   2.861   2.959  17.061 -1.6326  2.0691 -0.7637
12189TIP3    H258059   2.951   2.942  16.941  0.2375 -0.1973  0.9089
12190TIP3   OH258060   4.906   4.781   0.420  0.2614  0.2744  0.4818
12190TIP3    H158061   4.988   4.737   0.398 -0.2959 -0.5397  0.0053
12190TIP3    H258062   4.933   4.864   0.458  1.3306 -0.5710  1.6093
12191TIP3   OH258063   4.398   0.078  11.269 -0.1127 -0.3620  0.3634
12191TIP3    H158064   4.403   0.150  11.205 -0.2603  0.6063  1.4161
12191TIP3    H258065   4.444   0.112  11.346  0.3435 -1.6391  0.6637
12192TIP3   OH258066   3.885   5.670  17.123  0.4461  0.0381 -0.3077
12192TIP3    H158067   3.810   5.705  17.075 -0.0071  0.4953  0.7175
12192TIP3    H258068   3.908   5.740  17.184  0.9309 -0.5948  0.2283
12193TIP3   OH258069   0.990   1.451   5.595  0.2613 -0.4216 -0.5863
12193TIP3    H158070   0.925   1.428   5.530  1.0620  1.1777 -1.9897
12193TIP3    H258071   1.060   1.387   5.584  0.3323 -0.2363 -1.2161
12194TIP3   OH258072   1.287   4.298  15.192  0.0777 -1.0029 -0.4814
12194TIP3    H158073   1.289   4.368  15.257 -1.0286 -1.4632  0.0774
12194TIP3    H258074   1.358   4.239  15.218  0.0882 -0.8203 -0.0912
12195TIP3   OH258075   0.093   4.652  13.745 -0.0367 -0.3037 -0.4278
12195TIP3    H158076   0.125   4.720  13.805  0.1533 -0.8566  0.0968
12195TIP3    H258077   0.001   4.641  13.770 -0.2605  0.2768 -0.9947
12196TIP3   OH258078   1.526   0.685  16.674  0.1636 -0.6124  0.4850
12196TIP3    H158079   1.542   0.779  16.680  0.3847 -0.5847 -0.4300
12196TIP3    H258080   1.604   0.649  16.633 -1.0604 -0.7965 -1.7623
12197TIP3   OH258081   0.503   5.560  11.837  0.2468 -0.4042 -0.7583
12197TIP3    H158082   0.551   5.636  11.805 -0.2440 -0.3451 -1.3617
12197TIP3    H258083   0.500   5.500  11.762 -0.7356 -0.3471 -0.7691
12198TIP3   OH258084   1.787   4.349  15.774  0.6418  0.4180 -0.2624
12198TIP3    H158085   1.738   4.360  15.856 -0.7896  0.6562 -1.1157
12198TIP3    H258086   1.733   4.289  15.722  2.1304 -0.6652 -0.5762
12199TIP3   OH258087   1.414   3.090   1.838  0.6956  0.0260 -0.0283
12199TIP3    H158088   1.494   3.048   1.807  0.4349 -1.0836  0.7683
12199TIP3    H258089   1.372   3.024   1.893 -0.8285  0.5601 -0.5208
12200TIP3   OH258090   1.609   2.766   6.750  0.2969  0.2516 -0.2649
12200TIP3    H158091   1.604   2.800   6.839  0.6645 -1.6149  0.4855
12200TIP3    H258092   1.630   2.843   6.696  1.0827  1.2045  1.3734
12201TIP3   OH258093   5.642   1.960  14.335 -0.2178  0.4652 -0.5463
12201TIP3    H158094   5.694   1.997  14.263 -0.0625  1.6700  0.1663
12201TIP3    H258095   5.684   1.993  14.414 -1.9819  1.3688  0.0417
12202TIP3   OH258096   1.419   5.743   2.798  0.1196  0.4703 -0.3907
12202TIP3    H158097   1.379   5.656   2.802  1.4126 -0.2211 -1.8235
12202TIP3    H258098   1.505   5.732   2.837 -0.2417  1.4375  0.6861
12203TIP3   OH258099   0.296   2.390  13.590 -0.3918  0.4154 -0.0225
12203TIP3    H158100   0.365   2.403  13.656  0.8875  0.6048 -1.3608
12203TIP3    H258101   0.219   2.431  13.628  0.1678  0.0203  1.6053
12204TIP3   OH258102   2.286   2.911   2.570 -0.0476  0.1393 -0.4824
12204TIP3    H158103   2.199   2.898   2.533  0.7424 -1.2773 -1.9613
12204TIP3    H258104   2.297   2.838   2.631  0.1142  0.2821 -0.3407
12205TIP3   OH258105   4.453   3.112   2.236 -0.3267 -0.2147 -0.3948
12205TIP3    H158106   4.475   3.041   2.175 -1.0310 -0.6509 -0.1444
12205TIP3    H258107   4.465   3.074   2.323 -1.8721 -0.4078 -0.2546
12206TIP3   OH258108   5.011   4.215   1.574  0.4361  0.0315  0.6808
12206TIP3    H158109   4.958   4.220   1.495  1.5530  2.3436  0.0195
12206TIP3    H258110   4.950   4.189   1.643 -1.2460  1.2149 -0.3221
12207TIP3   OH258111   6.115   3.434  12.616  0.2359 -0.0796 -0.1745
12207TIP3    H158112   6.166   3.503  12.660 -0.4043  0.2156  0.1093
12207TIP3    H258113   6.080   3.477  12.538 -0.4342  0.0172  0.1723
12208TIP3   OH258114   3.472   6.489  14.186  0.3262  0.0427 -0.1229
12208TIP3    H158115   3.564   6.516  14.183  0.4276  0.0040  2.0288
12208TIP3    H258116   3.471   6.416  14.248 -1.0611 -0.3633 -0.6251
12209TIP3   OH258117   4.331   5.088  14.844  0.3152  0.2630  0.4176
12209TIP3    H158118   4.353   5.148  14.915  1.7164 -0.4360  0.5808
12209TIP3    H258119   4.265   5.030  14.881  1.0380 -0.0981  1.1552
12210TIP3   OH258120   6.446   4.732   1.761 -0.4212  0.1083  0.6352
12210TIP3    H158121   6.526   4.750   1.810 -1.0802  0.9020  1.4254
12210TIP3    H258122   6.475   4.722   1.670  0.7641 -1.0870  1.1231
12211TIP3   OH258123   0.199   1.481  13.840  0.4643 -0.0576 -0.4654
12211TIP3    H158124   0.221   1.573  13.849 -2.3482  0.5951 -0.0012
12211TIP3    H258125   0.223   1.442  13.924  1.9430  0.1531 -0.7732
12212TIP3   OH258126   2.181   6.445  16.484 -0.3420 -0.2786 -0.4106
12212TIP3    H158127   2.098   6.426  16.528 -0.2215 -0.2112 -0.1506
12212TIP3    H258128   2.209   6.529  16.521 -1.3620  0.9098 -2.2811
12213TIP3   OH258129   4.757   6.722  13.545 -0.0603 -0.4882 -0.0704
12213TIP3    H158130   4.666   6.697  13.560 -0.4474 -0.1366 -1.6998
12213TIP3    H258131   4.792   6.739  13.632 -2.1626  1.4781  0.4463
12214TIP3   OH258132   5.893   2.390  11.554 -0.9591 -0.2920  0.3554
12214TIP3    H158133   5.799   2.388  11.535 -0.7992 -0.0827 -0.4944
12214TIP3    H258134   5.928   2.312  11.511 -0.5903  0.1789 -0.2070
12215TIP3   OH258135   5.049   6.011  12.549  0.1168  0.2182 -0.2798
12215TIP3    H158136   5.115   5.948  12.577 -0.0449  0.4250  0.5834
12215TIP3    H258137   5.009   5.972  12.472 -2.3339 -2.3453  2.1849
12216TIP3   OH258138   6.364   3.201   3.735 -0.4145  0.6034 -0.3056
12216TIP3    H158139   6.290   3.150   3.769 -0.1577  0.9649  0.8151
12216TIP3    H258140   6.328   3.247   3.659 -1.3584  0.8015  0.2461
12217TIP3   OH258141   2.502   5.774   5.712  0.2077 -0.5403 -0.3281
12217TIP3    H158142   2.488   5.769   5.618 -0.8579  0.8392 -0.2387
12217TIP3    H258143   2.595   5.796   5.721  0.2494 -0.4181 -1.0505
12218TIP3   OH258144   5.616   1.454   1.383 -0.1481  0.1490  0.4935
12218TIP3    H158145   5.697   1.504   1.373 -0.3879  0.5515  0.5573
12218TIP3    H258146   5.614   1.428   1.475  0.3713 -0.6623  0.2860
12219TIP3   OH258147   4.968   4.043   5.719  0.5160  0.4274 -0.4192
12219TIP3    H158148   4.995   3.952   5.733  0.5929  0.5820  0.4260
12219TIP3    H258149   4.981   4.057   5.625  2.6314  0.2485 -0.1876
12220TIP3   OH258150   0.842   5.149   2.848 -0.5512  0.0657  0.0634
12220TIP3    H158151   0.864   5.084   2.781 -2.3891 -1.4263  0.8555
12220TIP3    H258152   0.751   5.130   2.870 -0.8096  2.3026  1.0293
12221TIP3   OH258153   5.842   3.899   0.467  0.2574  0.2400  0.8147
12221TIP3    H158154   5.829   3.968   0.532 -1.1716 -0.5920  1.4127
12221TIP3    H258155   5.833   3.817   0.515 -0.2304 -0.3810 -0.3102
12222TIP3   OH258156   5.721   1.898   0.859 -0.4864 -0.6857  0.1279
12222TIP3    H158157   5.812   1.923   0.843 -0.4079 -0.9784  0.1057
12222TIP3    H258158   5.689   1.869   0.773 -0.3521 -1.3550  0.2982
12223TIP3   OH258159   3.268   0.848  15.403 -0.4424  0.0785  0.2838
12223TIP3    H158160   3.247   0.862  15.495 -0.4173 -0.1753  0.3280
12223TIP3    H258161   3.185   0.861  15.357 -0.3653  0.6365  0.2973
12224TIP3   OH258162   4.020   4.489   4.560  0.5184 -0.0328 -0.4589
12224TIP3    H158163   4.061   4.448   4.636 -0.3104 -3.8117 -1.9611
12224TIP3    H258164   4.093   4.511   4.502  0.9663  0.6351  0.3402
12225TIP3   OH258165   4.243   4.524   6.476 -0.3638 -0.5631  0.1413
12225TIP3    H158166   4.167   4.579   6.458 -1.7632 -2.8266 -1.1919
12225TIP3    H258167   4.318   4.583   6.470 -1.7377  1.0435 -1.9622
12226TIP3   OH258168   5.679   2.922  12.921 -0.7461 -0.2953 -0.3152
12226TIP3    H158169   5.656   2.946  13.011  2.5370  2.4905 -0.1315
12226TIP3    H258170   5.609   2.961  12.868 -0.1073  2.3659  0.6950
12227TIP3   OH258171   4.474   2.498   3.995 -0.1871  0.4848 -0.0194
12227TIP3    H158172   4.502   2.532   4.080 -2.8255  0.2324  0.9997
12227TIP3    H258173   4.522   2.416   3.985  0.4176  0.6972  1.0541
12228TIP3   OH258174   0.257   6.797  14.750 -0.5194 -0.1270  0.1880
12228TIP3    H158175   0.248   6.879  14.701 -0.5823  1.2547  2.4143
12228TIP3    H258176   0.350   6.791  14.768 -0.6381  0.0021  0.8781
12229TIP3   OH258177   3.220   3.816   3.647  0.0242  0.2433  0.0064
12229TIP3    H158178   3.127   3.834   3.662 -0.3071 -1.4128 -0.0459
12229TIP3    H258179   3.230   3.819   3.552  0.4344  2.3547  0.0903
12230TIP3   OH258180   3.372   0.849   6.549 -0.3094  0.4219  0.1447
12230TIP3    H158181   3.358   0.941   6.528 -1.6223 -0.1025 -1.3836
12230TIP3    H258182   3.464   0.844   6.575 -0.5317  2.3645  1.4410
12231TIP3   OH258183   1.037   3.445  15.486 -0.7257  0.2499  0.3658
12231TIP3    H158184   1.028   3.359  15.444  3.5201 -0.4384  0.6506
12231TIP3    H258185   0.993   3.435  15.571 -0.0347 -1.7598  0.5094
12232TIP3   OH258186   0.951   0.832  15.888 -0.1518  0.5859 -0.7245
12232TIP3    H158187   0.983   0.742  15.897  0.2348  0.9571  1.9771
12232TIP3    H258188   0.856   0.823  15.881 -0.2209  0.0166  0.7459
12233TIP3   OH258189   3.839   1.315  16.882 -0.1749  0.0776  0.0910
12233TIP3    H158190   3.845   1.361  16.966  0.3766 -1.1264  0.7345
12233TIP3    H258191   3.782   1.241  16.900  1.2054 -1.0693 -0.1716
12234TIP3   OH258192   2.990   0.694   5.684 -0.2714 -1.3374  0.3170
12234TIP3    H158193   3.002   0.783   5.717 -1.0736 -1.7584  1.8106
12234TIP3    H258194   3.028   0.695   5.596  0.8450  0.1470  0.7994
12235TIP3   OH258195   3.573   0.809  15.829 -0.2505 -0.2282  0.2418
12235TIP3    H158196   3.606   0.740  15.888 -1.8095 -1.6203 -0.4680
12235TIP3    H258197   3.565   0.886  15.885  1.2117 -0.6876  1.1368
12236TIP3   OH258198   5.867   0.695  12.947 -0.3863  0.5244  0.5939
12236TIP3    H158199   5.931   0.658  13.008  0.6368  2.7979  0.9578
12236TIP3    H258200   5.860   0.630  12.878  2.0048  0.0082  0.7735
12237TIP3   OH258201   5.147   5.366   0.702  0.0743 -0.2212  0.7018
12237TIP3    H158202   5.221   5.362   0.761  0.8541  1.0492 -0.1668
12237TIP3    H258203   5.086   5.428   0.742  1.4561  2.1340 -0.7291
12238TIP3   OH258204   6.660   2.129  15.524 -0.1989  0.1574 -0.3826
12238TIP3    H158205   6.672   2.224  15.514  0.3653  0.1018 -0.2153
12238TIP3    H258206   6.749   2.094  15.534 -0.3958 -0.4050 -0.5741
12239TIP3   OH258207   3.595   2.109  17.175 -0.8624  0.3456  0.1175
12239TIP3    H158208   3.583   2.053  17.098 -0.8891  0.8619 -0.2553
12239TIP3    H258209   3.625   2.049  17.243  0.8376  0.1792 -0.7598
12240TIP3   OH258210   5.953   6.019  13.195  0.4090  0.3542 -0.5670
12240TIP3    H158211   5.979   6.058  13.279 -1.8926  0.9885 -0.1030
12240TIP3    H258212   5.956   6.091  13.133 -3.0004  1.1401  0.1083
12241TIP3   OH258213   6.353   0.846   5.672 -0.2197  0.4477  0.0177
12241TIP3    H158214   6.289   0.778   5.648 -0.2939  0.4392  0.2347
12241TIP3    H258215   6.320   0.925   5.630 -0.3114  0.4192  0.0351
12242TIP3   OH258216   6.168   1.147  11.325  0.1563  0.0248 -0.6823
12242TIP3    H158217   6.184   1.236  11.356  0.0421 -0.1800 -0.0282
12242TIP3    H258218   6.108   1.158  11.251  0.1905  0.4942 -0.6396
12243TIP3   OH258219   5.599   1.797   1.560  0.2430 -0.0338 -0.2027
12243TIP3    H158220   5.664   1.812   1.629  0.5920 -1.6627 -0.1677
12243TIP3    H258221   5.629   1.718   1.515 -0.4671  0.5033 -1.6713
12244TIP3   OH258222   6.701   6.695  14.827 -0.0360 -0.0127 -0.1669
12244TIP3    H158223   6.612   6.674  14.855  0.3961 -2.0672 -0.2894
12244TIP3    H258224   6.728   6.765  14.887 -0.6240 -1.4758  1.8574
12245TIP3   OH258225   0.573   1.160   0.625 -0.2124  0.3409 -0.9301
12245TIP3    H158226   0.600   1.068   0.620 -0.1322  0.3190 -0.1754
12245TIP3    H258227   0.634   1.199   0.688 -0.5461  0.8006 -0.8918
12246TIP3   OH258228   1.702   4.298   0.222  0.3181 -0.0575 -0.3075
12246TIP3    H158229   1.746   4.258   0.296  1.2889  0.3182 -0.6769
12246TIP3    H258230   1.662   4.377   0.258 -1.5137 -1.2571  0.3991
12247TIP3   OH258231   2.654   0.609   1.495  0.2045 -0.3101  0.0054
12247TIP3    H158232   2.564   0.640   1.506  0.1434  0.0633 -1.4346
12247TIP3    H258233   2.708   0.682   1.525  0.0377  0.0306 -0.5157
12248TIP3   OH258234   1.796   1.964   2.329 -0.4743  0.0118 -0.5585
12248TIP3    H158235   1.763   2.029   2.390 -0.1412  0.1425 -0.5168
12248TIP3    H258236   1.882   1.996   2.304 -0.5579 -0.1027 -1.0015
12249TIP3   OH258237   6.511   1.195  12.758  0.3652 -0.3597  0.4556
12249TIP3    H158238   6.472   1.131  12.816  1.3331 -2.2090 -0.8936
12249TIP3    H258239   6.579   1.237  12.811  0.3574 -1.1126  1.0659
12250TIP3   OH258240   4.824   6.585   3.858 -0.0152  0.0796 -0.2903
12250TIP3    H158241   4.862   6.671   3.839  1.1169 -0.3699 -0.0805
12250TIP3    H258242   4.733   6.592   3.829  0.2474  1.1404 -0.8730
12251TIP3   OH258243   1.563   0.654  16.981 -0.3341  0.3949  0.0222
12251TIP3    H158244   1.517   0.585  17.029 -0.2805 -0.2146 -0.7896
12251TIP3    H258245   1.505   0.730  16.986 -0.8863 -0.0210  0.0186
12252TIP3   OH258246   1.002   4.595   1.627  0.5779  0.3009 -0.1046
12252TIP3    H158247   1.035   4.511   1.661 -1.3305 -0.4623 -0.0795
12252TIP3    H258248   0.953   4.571   1.549  1.5648  1.6166 -1.1422
12253TIP3   OH258249   2.765   0.693  12.218  0.2351  0.4393  0.4796
12253TIP3    H158250   2.754   0.608  12.177  1.1372  0.7223 -0.3738
12253TIP3    H258251   2.676   0.721  12.241 -0.1471 -0.3099 -0.0810
12254TIP3   OH258252   0.102   2.801  13.252  0.6373  0.1959 -0.2760
12254TIP3    H158253   0.064   2.889  13.257 -0.8423 -0.4495  0.0423
12254TIP3    H258254   0.189   2.811  13.290  0.3030  1.4432  0.1868
12255TIP3   OH258255   1.807   1.949   4.534  0.1484  0.4317 -0.2937
12255TIP3    H158256   1.741   1.986   4.476  0.5378  0.4871 -0.7026
12255TIP3    H258257   1.757   1.899   4.599 -0.2847  0.3959 -0.6548
12256TIP3   OH258258   1.991   6.213  13.467  0.7469  0.5169 -0.6474
12256TIP3    H158259   1.903   6.180  13.453  1.1640  0.3605 -3.0185
12256TIP3    H258260   1.985   6.261  13.550 -1.6820  0.9156 -1.0016
12257TIP3   OH258261   4.266   3.889   0.593  0.2055  0.0441 -0.1519
12257TIP3    H158262   4.288   3.973   0.634 -1.1196 -1.6629  4.3708
12257TIP3    H258263   4.336   3.830   0.621 -0.2710 -0.9931 -1.1130
12258TIP3   OH258264   0.736   0.628   6.738  0.8677  0.2697  0.6068
12258TIP3    H158265   0.671   0.564   6.765  1.0717 -0.1554  0.1085
12258TIP3    H258266   0.693   0.679   6.670  0.4463  1.1630  1.5281
12259TIP3   OH258267   4.180   5.600  13.430  0.2261  0.6983 -0.0369
12259TIP3    H158268   4.268   5.624  13.400 -0.7865 -0.0381 -3.8960
12259TIP3    H258269   4.178   5.504  13.422 -0.5540  0.6018  1.2127
12260TIP3   OH258270   0.833   5.507   0.475 -0.0759  0.8022  0.9693
12260TIP3    H158271   0.864   5.431   0.426 -1.5068 -0.1663  1.5500
12260TIP3    H258272   0.872   5.582   0.429  0.8402 -0.2348  0.0197
12261TIP3   OH258273   4.573   5.920   1.062  0.2867  0.3780  0.0617
12261TIP3    H158274   4.593   5.827   1.069  1.0299  0.5420  0.1819
12261TIP3    H258275   4.505   5.935   1.128 -0.5287 -0.2680 -0.6165
12262TIP3   OH258276   6.067   5.618  11.199 -0.7346  0.0662 -0.4064
12262TIP3    H158277   6.140   5.675  11.224 -0.0822  0.0440 -2.1558
12262TIP3    H258278   6.023   5.665  11.128 -2.3261 -0.0065  0.5324
12263TIP3   OH258279   2.034   6.120  14.778 -0.6016  0.4084 -0.4004
12263TIP3    H158280   2.076   6.063  14.713 -1.1127 -0.9509  0.4214
12263TIP3    H258281   2.082   6.202  14.773  2.6907 -1.3329  1.0362
12264TIP3   OH258282   1.405   2.847  11.992  0.2414 -0.0889  0.4808
12264TIP3    H158283   1.363   2.871  11.909 -0.3531  0.0821  0.8321
12264TIP3    H258284   1.392   2.752  11.999 -0.4004  0.0191  0.7643
12265TIP3   OH258285   0.463   3.079   6.260  0.1530  0.1134 -0.1267
12265TIP3    H158286   0.476   3.006   6.200 -0.5191 -0.0059 -0.1234
12265TIP3    H258287   0.520   3.148   6.226  0.4266 -0.2458 -0.4014
12266TIP3   OH258288   6.383   6.710   1.271 -0.7654  0.0656  0.4072
12266TIP3    H158289   6.365   6.648   1.201 -0.9191 -1.4264  1.7332
12266TIP3    H258290   6.474   6.695   1.294 -0.1776  1.7965 -0.6406
12267TIP3   OH258291   0.563   3.867  11.525  0.4535  0.3581 -0.1039
12267TIP3    H158292   0.476   3.888  11.560  0.0164 -1.7335  0.1484
12267TIP3    H258293   0.559   3.894  11.433 -0.2997  0.7406  0.0364
12268TIP3   OH258294   3.827   2.148   5.786  0.4586 -0.1095  0.1619
12268TIP3    H158295   3.906   2.115   5.827  0.9103 -0.4297 -0.9444
12268TIP3    H258296   3.855   2.180   5.700 -0.3556  1.1312  0.3448
12269TIP3   OH258297   5.985   3.217  17.111  0.1685  0.1328  0.4259
12269TIP3    H158298   6.052   3.192  17.174  0.2950 -0.0404  0.2205
12269TIP3    H258299   6.031   3.272  17.047 -0.0784  0.7950  0.8069
12270TIP3   OH258300   6.106   0.867  15.364 -0.1979 -0.3595 -0.4634
12270TIP3    H158301   6.021   0.842  15.328 -0.3849 -0.2631 -0.0868
12270TIP3    H258302   6.170   0.820  15.309 -0.4785 -0.1912 -0.9419
12271TIP3   OH258303   2.469   6.459  14.200 -0.4276  0.0451  0.0049
12271TIP3    H158304   2.484   6.481  14.108 -0.7257  0.4287  0.0467
12271TIP3    H258305   2.374   6.462  14.211 -0.4012 -0.1077  0.2992
12272TIP3   OH258306   6.382   5.736  14.477 -0.7701  0.4105 -0.3087
12272TIP3    H158307   6.472   5.753  14.505 -0.7351 -0.8668  0.4090
12272TIP3    H258308   6.339   5.821  14.483  0.3553  1.0064 -0.5195
12273TIP3   OH258309   4.078   6.227   2.989 -0.4732  0.0601 -0.3545
12273TIP3    H158310   4.132   6.173   3.046 -0.9605  1.6879  1.7127
12273TIP3    H258311   3.988   6.201   3.009 -0.8408  3.1117  2.3205
12274TIP3   OH258312   4.904   3.948   1.134  0.2263  0.4414  0.6122
12274TIP3    H158313   4.969   3.881   1.158  0.0426  0.6117  1.6188
12274TIP3    H258314   4.820   3.910   1.159  0.0509  0.7306  0.4639
12275TIP3   OH258315   5.341   3.810  16.200 -0.4029  0.1273  0.2528
12275TIP3    H158316   5.422   3.812  16.149 -0.4179  0.1345  0.2301
12275TIP3    H258317   5.321   3.717  16.211  0.7576  0.0671  2.0742
12276TIP3   OH258318   0.379   5.812   1.594  0.2690 -0.0859  0.2224
12276TIP3    H158319   0.334   5.888   1.632 -1.7007 -1.2946  0.3967
12276TIP3    H258320   0.314   5.741   1.599  2.2861 -1.9516  0.6431
12277TIP3   OH258321   2.347   5.224   3.983  0.3934 -0.7097 -0.5152
12277TIP3    H158322   2.355   5.230   4.078  0.9482 -1.3123 -0.5254
12277TIP3    H258323   2.252   5.225   3.967  0.2525 -2.2402  0.1535
12278TIP3   OH258324   5.816   6.237  11.596 -0.2491 -0.1421  0.4566
12278TIP3    H158325   5.815   6.249  11.501  0.4834 -0.0254  0.4580
12278TIP3    H258326   5.757   6.163  11.611  0.1178 -0.5669 -0.1548
12279TIP3   OH258327   5.790   6.028   5.744  0.5372 -0.5695 -0.1738
12279TIP3    H158328   5.854   5.966   5.779  1.2560  0.2097 -0.1114
12279TIP3    H258329   5.725   6.037   5.814  2.1782  1.2848  1.1444
12280TIP3   OH258330   5.548   0.467  16.202 -0.5439  0.0761  0.5097
12280TIP3    H158331   5.556   0.433  16.113  0.2369  1.0609  0.1782
12280TIP3    H258332   5.503   0.399  16.251  0.7408 -1.3094 -0.1834
12281TIP3   OH258333   3.135   1.057  12.113 -0.1890  0.0283 -0.6759
12281TIP3    H158334   3.214   1.073  12.164 -0.4442  0.3452 -0.3769
12281TIP3    H258335   3.167   1.030  12.027  0.2614  1.9978 -1.1578
12282TIP3   OH258336   5.348   1.114   4.560 -0.4010  0.4642 -0.2723
12282TIP3    H158337   5.414   1.053   4.527 -1.2907 -0.6939  0.0614
12282TIP3    H258338   5.350   1.102   4.655  0.1244  1.6983 -0.1151
12283TIP3   OH258339   3.767   2.135   0.367  0.5699 -0.2131  0.8364
12283TIP3    H158340   3.684   2.179   0.383  0.9498  0.8029  0.1162
12283TIP3    H258341   3.751   2.079   0.291  0.8227  0.8214  0.0029
12284TIP3   OH258342   0.346   6.368  11.387  0.0351 -0.7892  0.3049
12284TIP3    H158343   0.361   6.425  11.311  0.6297 -1.0849  0.1981
12284TIP3    H258344   0.322   6.284  11.349 -1.3480 -0.4835  0.4691
12285TIP3   OH258345   2.441   0.723  12.719 -0.2444  0.4341 -0.5279
12285TIP3    H158346   2.527   0.691  12.691 -0.4837 -0.0977 -0.6614
12285TIP3    H258347   2.389   0.644  12.731 -0.9138  0.7824 -1.1009
12286TIP3   OH258348   0.100   6.026  11.152 -0.0575  0.3700  0.1256
12286TIP3    H158349   0.020   5.982  11.124 -1.1877 -0.4069  4.2874
12286TIP3    H258350   0.165   5.956  11.157  0.8961  0.9551 -2.9806
12287TIP3   OH258351   5.951   4.592   4.162  0.4796  0.2916  0.3978
12287TIP3    H158352   5.981   4.663   4.105  3.1041 -0.3724  0.8842
12287TIP3    H258353   5.912   4.636   4.237 -0.0995  1.1951 -0.4251
12288TIP3   OH258354   5.840   1.564  13.361 -0.3508 -0.4828 -0.4626
12288TIP3    H158355   5.922   1.595  13.399 -0.5911 -0.9147  0.4128
12288TIP3    H258356   5.773   1.587  13.425 -0.9047 -0.2534 -1.1089
12289TIP3   OH258357   6.255   2.077  10.998 -0.6358 -0.1011 -0.1151
12289TIP3    H158358   6.288   1.990  10.975 -0.1714 -0.4963  1.9087
12289TIP3    H258359   6.254   2.125  10.916 -0.8174 -1.9944 -1.2539
12290TIP3   OH258360   0.882   6.326   2.662  0.0375 -0.3266 -0.1294
12290TIP3    H158361   0.825   6.287   2.596 -0.0113  0.1433 -0.3669
12290TIP3    H258362   0.827   6.389   2.707  0.0100 -0.8058  0.5115
12291TIP3   OH258363   5.201   3.509  13.703 -0.0237  0.0516  0.5365
12291TIP3    H158364   5.207   3.438  13.767  0.5376 -0.0456  0.3818
12291TIP3    H258365   5.254   3.479  13.629 -0.8831  0.0473 -0.0843
12292TIP3   OH258366   6.748   1.870  15.779  0.1877 -0.4304  0.3351
12292TIP3    H158367   6.741   1.932  15.852 -1.2390  0.2060 -0.3223
12292TIP3    H258368   6.674   1.891  15.723  2.2296  0.2581 -2.2062
12293TIP3   OH258369   6.345   5.633  11.311 -0.0434  0.2708 -0.5765
12293TIP3    H158370   6.361   5.713  11.361 -1.1796  0.8354 -1.0867
12293TIP3    H258371   6.276   5.588  11.359 -0.7028  0.5103 -1.2860
12294TIP3   OH258372   5.553   6.182  10.584  0.3922  0.7439  0.3770
12294TIP3    H158373   5.470   6.152  10.621 -0.0507 -1.4029 -2.2570
12294TIP3    H258374   5.619   6.124  10.621  0.3305  0.5458  0.1789
12295TIP3   OH258375   6.495   4.058  11.671 -0.5071  0.1540 -0.5355
12295TIP3    H158376   6.423   4.021  11.619 -1.6152  2.8295 -1.0276
12295TIP3    H258377   6.454   4.083  11.754  0.2321  0.1130 -0.1553
12296TIP3   OH258378   2.330   4.502   2.375  0.1678  0.3031  0.1716
12296TIP3    H158379   2.311   4.460   2.291  0.9939  0.9506 -0.3575
12296TIP3    H258380   2.266   4.466   2.435  2.0885 -3.2032  0.2289
12297TIP3   OH258381   0.449   3.591   0.650  0.3869 -0.2178 -0.0729
12297TIP3    H158382   0.375   3.598   0.709 -0.7707 -0.8663 -1.4087
12297TIP3    H258383   0.524   3.575   0.707 -0.0963  2.7429  1.4722
12298TIP3   OH258384   2.776   5.020   0.877  0.2496  0.6510 -0.3600
12298TIP3    H158385   2.810   5.061   0.957 -2.3914  0.4552  0.9135
12298TIP3    H258386   2.807   5.077   0.806 -0.1054  2.7190  1.0804
12299TIP3   OH258387   3.782   2.882  13.565 -0.0468 -0.4517 -0.2688
12299TIP3    H158388   3.750   2.810  13.511  1.6412 -0.5016 -1.2432
12299TIP3    H258389   3.849   2.924  13.511 -1.7533  2.5258 -0.1807
12300TIP3   OH258390   5.123   5.189   1.453  0.4003 -0.0368  0.3433
12300TIP3    H158391   5.063   5.185   1.379  0.1253  0.0409  0.5617
12300TIP3    H258392   5.190   5.252   1.426  0.7782 -0.6591 -0.1870
12301TIP3   OH258393   1.346   1.853   3.130 -0.3153 -0.0114  0.4422
12301TIP3    H158394   1.312   1.896   3.052 -0.0068  1.8509  1.3051
12301TIP3    H258395   1.270   1.813   3.171 -0.9848  1.5165  0.7267
12302TIP3   OH258396   0.759   2.267   0.955  0.8962  0.4445 -0.6104
12302TIP3    H158397   0.747   2.248   0.862 -1.1860 -1.7460  0.0529
12302TIP3    H258398   0.839   2.219   0.979  0.9456  0.2918 -1.0827
12303TIP3   OH258399   5.853   1.575  11.521 -0.6119  0.1277  0.3741
12303TIP3    H158400   5.840   1.562  11.427 -0.9856 -0.5368  0.5111
12303TIP3    H258401   5.920   1.511  11.546  1.5700  2.2369  0.0422
12304TIP3   OH258402   3.747   2.565   3.782  0.2197  0.4266  0.2498
12304TIP3    H158403   3.735   2.488   3.727 -0.5892  1.0867 -0.4957
12304TIP3    H258404   3.731   2.533   3.871  0.9386 -0.4985  0.0529
12305TIP3   OH258405   1.405   5.143   1.803 -0.3738  0.6817 -0.4426
12305TIP3    H158406   1.438   5.100   1.725 -0.9044  0.8246 -0.7484
12305TIP3    H258407   1.483   5.171   1.851 -0.0066 -0.9780 -0.0358
12306TIP3   OH258408   0.613   2.118  11.804  0.1837 -0.1732  0.7866
12306TIP3    H158409   0.696   2.130  11.850  1.3675 -2.2868 -0.6614
12306TIP3    H258410   0.570   2.046  11.851  0.4965 -0.9913 -0.1460
12307TIP3   OH258411   6.771   0.830  15.318 -0.5600 -0.2228  0.2460
12307TIP3    H158412   6.801   0.898  15.378 -2.4712  0.5575  0.3603
12307TIP3    H258413   6.676   0.827  15.331 -0.4666 -3.2933  0.6660
12308TIP3   OH258414   2.950   5.667  10.771  0.2338 -0.4413  0.4460
12308TIP3    H158415   2.981   5.586  10.732 -0.7627 -0.3469 -0.5763
12308TIP3    H258416   2.927   5.722  10.696 -1.7128 -0.2625  1.1427
12309TIP3   OH258417   0.434   2.701   3.617  0.9377 -0.1836 -0.2686
12309TIP3    H158418   0.419   2.795   3.609  0.3078 -0.3445 -1.0952
12309TIP3    H258419   0.358   2.669   3.665  1.1417 -0.2795 -0.0068
12310TIP3   OH258420   3.648   1.219  15.489 -0.2510 -0.3031  0.2656
12310TIP3    H158421   3.585   1.286  15.516 -1.1504 -1.3096  0.7217
12310TIP3    H258422   3.601   1.136  15.501  1.2552 -1.0903  0.8978
12311TIP3   OH258423   0.514   3.095   2.687  0.8161 -0.9885  0.5190
12311TIP3    H158424   0.540   3.011   2.725  1.2331 -0.7305  0.8106
12311TIP3    H258425   0.581   3.113   2.620  0.5314 -1.0577  0.2145
12312TIP3   OH258426   4.218   4.454  16.598  0.6102  0.2076  0.0516
12312TIP3    H158427   4.170   4.435  16.679 -1.1811  1.2582 -0.7308
12312TIP3    H258428   4.248   4.368  16.567  2.3386 -0.0692  2.4304
12313TIP3   OH258429   2.437   0.594   3.742  0.0531 -0.2308 -0.3281
12313TIP3    H158430   2.477   0.679   3.723  0.4218  0.2418  2.3274
12313TIP3    H258431   2.504   0.545   3.789 -1.0028 -1.0345  0.3748
12314TIP3   OH258432   4.295   2.414  11.304 -0.1975  0.4368  0.1754
12314TIP3    H158433   4.385   2.413  11.273  0.0589 -0.8470  0.9360
12314TIP3    H258434   4.274   2.322  11.322 -1.1875  0.8648  1.3299
12315TIP3   OH258435   6.088   2.031  15.544 -0.1601  0.4058 -0.2466
12315TIP3    H158436   6.007   2.064  15.505 -0.5509  0.8198  0.9042
12315TIP3    H258437   6.133   2.108  15.577 -0.2240 -0.0250  0.8635
12316TIP3   OH258438   3.802   6.388  14.645 -0.2415 -0.3565 -0.4797
12316TIP3    H158439   3.809   6.307  14.595  0.3292 -2.4115  2.8178
12316TIP3    H258440   3.730   6.373  14.707  0.6408  1.1805  0.9690
12317TIP3   OH258441   0.023   6.004   0.321 -0.6016  0.4416  0.1453
12317TIP3    H158442   0.088   6.007   0.252 -0.2990 -1.1167  0.3302
12317TIP3    H258443   0.057   6.062   0.390 -0.0715  0.6617 -0.3021
12318TIP3   OH258444   4.432   0.277  11.090 -0.0415 -0.1005 -0.6994
12318TIP3    H158445   4.362   0.320  11.139  1.6963  2.5582 -0.5020
12318TIP3    H258446   4.395   0.265  11.002 -1.5431 -0.8030  0.0094
12319TIP3   OH258447   6.015   0.381  13.776  0.0314  0.1985  0.4636
12319TIP3    H158448   5.926   0.404  13.751 -1.4007 -2.4616  2.7815
12319TIP3    H258449   6.014   0.379  13.872  2.7429  0.7141  0.5474
12320TIP3   OH258450   4.467   3.056  16.594  0.0887 -0.5670  0.0998
12320TIP3    H158451   4.399   3.050  16.527  1.2344 -1.2347 -1.0154
12320TIP3    H258452   4.525   2.982  16.577  1.7289  0.6330  0.3249
12321TIP3   OH258453   3.317   4.054  15.103  0.3516 -0.4649  0.2786
12321TIP3    H158454   3.267   3.972  15.111  0.7742 -0.8824 -1.2989
12321TIP3    H258455   3.249   4.122  15.099  0.0114 -0.4178  4.2895
12322TIP3   OH258456   2.544   1.314   5.104  0.5965  0.4113  0.3287
12322TIP3    H158457   2.537   1.224   5.073  1.1012 -0.2239  2.0286
12322TIP3    H258458   2.490   1.364   5.042 -2.9205 -1.5978  1.6127
12323TIP3   OH258459   6.465   4.743   2.485  0.5138  0.5419 -0.0154
12323TIP3    H158460   6.553   4.768   2.514  0.8413  1.7409 -1.9947
12323TIP3    H258461   6.425   4.825   2.456 -1.1552 -0.0491  0.5740
12324TIP3   OH258462   3.080   0.034  11.447 -0.4039  0.2509  0.7112
12324TIP3    H158463   3.028  -0.037  11.484 -1.2817 -0.7169 -2.2018
12324TIP3    H258464   3.085   0.013  11.353  1.1232  2.9291  0.1443
12325TIP3   OH258465   5.838   0.767  16.375  0.0927 -0.4529  0.2012
12325TIP3    H158466   5.749   0.802  16.375  0.1758 -0.2195 -1.0722
12325TIP3    H258467   5.877   0.800  16.295  0.5892 -2.4303 -0.4113
12326TIP3   OH258468   2.491   6.497   3.528  0.7265 -0.1228 -0.2959
12326TIP3    H158469   2.507   6.444   3.606  0.0090 -0.0644 -0.1028
12326TIP3    H258470   2.432   6.444   3.474  1.1578 -0.1316 -0.7590
12327TIP3   OH258471   0.599   1.886  10.520  0.1477 -0.0533 -0.3313
12327TIP3    H158472   0.680   1.834  10.511 -0.1255 -0.6747  0.6336
12327TIP3    H258473   0.542   1.831  10.575 -1.0552  0.2385 -1.2740
12328TIP3   OH258474   0.417   6.065  12.912 -0.0311 -0.1390  0.0251
12328TIP3    H158475   0.418   6.122  12.836  1.4734 -0.2521 -0.0560
12328TIP3    H258476   0.495   6.090  12.962 -0.3875 -0.8281  0.9559
12329TIP3   OH258477   5.982   3.916  13.095 -0.0953 -0.1075 -0.0925
12329TIP3    H158478   6.050   3.850  13.082 -0.9784 -1.2412  0.8837
12329TIP3    H258479   6.020   3.997  13.062  1.6215 -0.7803  0.1986
12330TIP3   OH258480   2.891   4.445   2.638  0.2772  0.0023  0.6426
12330TIP3    H158481   2.880   4.362   2.590  0.1543  0.5061 -0.2036
12330TIP3    H258482   2.803   4.482   2.643  0.2738 -0.0931  1.3501
12331TIP3   OH258483   5.326   5.761  11.012  0.0379  0.0233  0.1879
12331TIP3    H158484   5.311   5.819  10.937  1.4932 -0.7925 -0.7462
12331TIP3    H258485   5.262   5.690  11.000 -0.3865  0.3878  0.2570
12332TIP3   OH258486   4.507   6.180  16.599  0.2660  0.3817 -0.1847
12332TIP3    H158487   4.598   6.154  16.603 -0.1330 -1.2303 -1.3131
12332TIP3    H258488   4.508   6.263  16.551  0.9366 -0.7459 -2.1928
12333TIP3   OH258489   6.578   6.168  11.764 -0.3148  0.5683  0.5834
12333TIP3    H158490   6.607   6.132  11.848 -0.9379 -1.6557 -0.0986
12333TIP3    H258491   6.493   6.208  11.783 -0.4527  0.0685  1.0244
12334TIP3   OH258492   4.766   2.017   2.650 -0.3082  0.3259  0.6594
12334TIP3    H158493   4.720   1.933   2.649  0.1150  0.0698  1.6030
12334TIP3    H258494   4.701   2.080   2.680 -0.9491  0.5463 -1.1535
12335TIP3   OH258495   4.286   4.534   1.281  0.2608 -0.1783  0.3041
12335TIP3    H158496   4.367   4.582   1.262 -0.1531  0.6282  0.5267
12335TIP3    H258497   4.219   4.580   1.231 -0.0806 -0.7762  0.2084
12336TIP3   OH258498   5.994   6.331  14.197 -0.7089 -0.4591 -0.2140
12336TIP3    H158499   6.052   6.395  14.237  0.5096 -1.2493 -0.6774
12336TIP3    H258500   5.984   6.361  14.106  0.2896 -1.1852 -0.5797
12337TIP3   OH258501   3.805   4.775  15.646  0.0415 -0.5100  0.0806
12337TIP3    H158502   3.857   4.802  15.722 -2.1530  1.0450  1.0747
12337TIP3    H258503   3.722   4.822  15.655 -0.0469  0.2300 -3.6230
12338TIP3   OH258504   4.321   0.095  13.416  0.0716  0.2034 -0.1670
12338TIP3    H158505   4.347   0.161  13.480 -0.6422 -0.0181  0.3546
12338TIP3    H258506   4.249   0.048  13.458  1.3050 -1.6386 -0.0671
12339TIP3   OH258507   3.268   0.852   2.119 -0.2025  0.2813 -0.2152
12339TIP3    H158508   3.298   0.938   2.147 -1.8767  0.3503  1.4969
12339TIP3    H258509   3.192   0.869   2.063 -0.4349 -0.0635 -0.0108
12340TIP3   OH258510   6.283   2.347   2.438 -0.0131  0.3753  0.5508
12340TIP3    H158511   6.268   2.405   2.512 -0.8793  0.6549  0.1560
12340TIP3    H258512   6.204   2.355   2.384  0.3667 -0.2594 -0.1093
12341TIP3   OH258513   4.249   1.401   5.373 -0.0999  0.2705  0.1573
12341TIP3    H158514   4.241   1.314   5.332 -1.3170 -0.1632  1.2700
12341TIP3    H258515   4.174   1.405   5.433  1.6660  0.8954  2.3474
12342TIP3   OH258516   6.642   3.337   4.085 -0.9912 -0.3056 -0.2071
12342TIP3    H158517   6.628   3.330   4.179 -0.4920  0.1554 -0.0958
12342TIP3    H258518   6.554   3.348   4.049 -1.1397  0.0307  0.2526
12343TIP3   OH258519   5.142   1.509   1.271 -0.0105 -0.0824  0.1779
12343TIP3    H158520   5.122   1.468   1.355 -0.1253  0.3730  0.3729
12343TIP3    H258521   5.086   1.463   1.208  0.1079 -0.4531  0.3441
12344TIP3   OH258522   4.635   3.881   1.186  0.2182  0.0454  0.0754
12344TIP3    H158523   4.630   3.786   1.196 -1.4227  0.1421  0.2797
12344TIP3    H258524   4.546   3.912   1.202  0.4053  1.4803 -1.5338
12345TIP3   OH258525   6.573   2.645   5.463 -0.8055 -0.4528  0.0422
12345TIP3    H158526   6.634   2.716   5.480  1.0663 -1.9496 -0.2090
12345TIP3    H258527   6.590   2.582   5.534 -0.1639 -2.0743 -1.5098
12346TIP3   OH258528   2.398   1.957  16.238 -0.1851  0.0009  0.4550
12346TIP3    H158529   2.482   2.004  16.242  0.2376 -0.5528 -1.2479
12346TIP3    H258530   2.334   2.026  16.222  0.4978  0.0371 -2.5599
12347TIP3   OH258531   1.088   2.761   2.568  0.1523 -0.4192 -0.2800
12347TIP3    H158532   1.086   2.856   2.564 -1.9241 -0.3578  1.1188
12347TIP3    H258533   1.159   2.740   2.628 -1.3168  0.3726  1.7564
12348TIP3   OH258534   0.759   5.336   0.253  0.9476  0.1561 -0.1284
12348TIP3    H158535   0.747   5.299   0.166  1.4883 -0.5642  0.0985
12348TIP3    H258536   0.716   5.274   0.312  0.5479  0.6604  0.1167
12349TIP3   OH258537   2.533   6.787  15.672  0.3873 -0.1356  0.2243
12349TIP3    H158538   2.484   6.849  15.727  2.3196  0.9412  0.7712
12349TIP3    H258539   2.536   6.706  15.723  1.0941  0.4848  1.1818
12350TIP3   OH258540   1.602   1.831  14.668 -0.6658  0.1307 -0.1664
12350TIP3    H158541   1.562   1.755  14.711  1.2918  0.4094  2.2743
12350TIP3    H258542   1.584   1.904  14.728  2.8980  0.3591  0.7392
12351TIP3   OH258543   3.162   3.349  13.197  0.2339  0.0023 -0.0216
12351TIP3    H158544   3.222   3.320  13.129  0.2862 -0.3732  0.1802
12351TIP3    H258545   3.075   3.325  13.165  0.0150  2.2175 -1.1640
12352TIP3   OH258546   3.290   6.486  16.887  0.9936 -0.5169  0.4607
12352TIP3    H158547   3.373   6.440  16.873  0.6402 -0.7398 -1.0230
12352TIP3    H258548   3.259   6.505  16.799 -1.2382 -1.6860  0.9843
12353TIP3   OH258549   0.414   3.158  11.523  0.1497 -0.3230  0.0890
12353TIP3    H158550   0.491   3.199  11.484 -0.7980 -0.5224 -2.0862
12353TIP3    H258551   0.422   3.175  11.617  2.6586 -0.0636 -0.1331
12354TIP3   OH258552   4.096   2.160   5.350 -0.8585  0.0992 -0.4388
12354TIP3    H158553   4.103   2.129   5.259  0.0990  0.7922 -0.6066
12354TIP3    H258554   4.185   2.187   5.372 -1.1980  0.4015  0.5472
12355TIP3   OH258555   6.766   6.659  12.272  0.3560 -0.0981 -0.0740
12355TIP3    H158556   6.692   6.598  12.263  0.4867 -0.2301 -0.2534
12355TIP3    H258557   6.819   6.622  12.342  0.4376 -0.1947 -0.1854
12356TIP3   OH258558   6.171   1.047  13.892  0.2751  0.2758  0.8057
12356TIP3    H158559   6.237   1.114  13.873  1.9613 -1.3014  0.9608
12356TIP3    H258560   6.151   1.058  13.985  0.0059  1.0241  0.6637
12357TIP3   OH258561   6.576   4.046  14.996 -0.1297 -0.5819  0.5978
12357TIP3    H158562   6.567   4.025  14.903 -1.2817 -1.6288  0.9264
12357TIP3    H258563   6.543   4.135  15.004  2.3334  0.4680 -0.3903
12358TIP3   OH258564   1.631   0.999  11.779  0.2168  0.1366  0.2073
12358TIP3    H158565   1.617   0.917  11.731  3.5190 -0.5594  0.3302
12358TIP3    H258566   1.685   0.974  11.854  0.4866  2.2889  0.7469
12359TIP3   OH258567   3.128   5.655  15.840  0.2035 -0.0600  0.3076
12359TIP3    H158568   3.191   5.668  15.769 -0.2993 -0.2237 -0.1714
12359TIP3    H258569   3.105   5.743  15.868 -0.5296  0.0325 -0.5637
12360TIP3   OH258570   2.912   4.412   0.378  0.7414 -0.1723  0.1802
12360TIP3    H158571   2.884   4.379   0.463 -1.3494 -1.7701 -1.0979
12360TIP3    H258572   2.845   4.475   0.352  1.7187  0.8187 -0.0029
12361TIP3   OH258573   2.846   6.490   1.737  0.0462 -0.2179 -0.0919
12361TIP3    H158574   2.793   6.559   1.697 -0.1384 -0.3716 -0.1109
12361TIP3    H258575   2.815   6.485   1.827 -0.7847 -1.1169 -0.4167
12362TIP3   OH258576   5.452   5.313  12.263 -0.1575 -0.1916 -0.5951
12362TIP3    H158577   5.376   5.367  12.285 -0.6813 -1.0963 -0.1354
12362TIP3    H258578   5.415   5.234  12.223  0.6467  0.2130 -2.1634
12363TIP3   OH258579   0.612   3.174  14.494  0.2909 -0.1574  0.4992
12363TIP3    H158580   0.545   3.236  14.522  0.8422  1.2468 -1.2311
12363TIP3    H258581   0.692   3.205  14.534  0.8276  1.0832 -1.4581
12364TIP3   OH258582   0.535   2.210  16.552 -0.0941 -0.0634 -0.0057
12364TIP3    H158583   0.557   2.248  16.637  0.4326 -0.2330 -0.0662
12364TIP3    H258584   0.618   2.207  16.504 -0.9438  3.3452 -1.8720
12365TIP3   OH258585   0.620   3.500  14.331 -0.0343  0.3806  0.6197
12365TIP3    H158586   0.579   3.444  14.397  0.0238 -0.2895  0.0814
12365TIP3    H258587   0.687   3.445  14.291 -1.1351  0.2882 -1.1150
12366TIP3   OH258588   4.348   2.826   4.740  0.1359 -0.4011 -0.0663
12366TIP3    H158589   4.272   2.874   4.708 -0.3945 -0.6328  0.8184
12366TIP3    H258590   4.421   2.887   4.728 -0.7008  1.0809  2.0876
12367TIP3   OH258591   0.273   2.981   6.421  0.1891 -0.3036  0.2535
12367TIP3    H158592   0.203   2.945   6.366 -0.9921  1.0973  0.8017
12367TIP3    H258593   0.342   3.003   6.359 -0.2648 -0.7490 -0.4280
12368TIP3   OH258594   3.305   3.464   3.405 -0.0748  0.0465 -0.1681
12368TIP3    H158595   3.302   3.538   3.344 -2.0001  0.6279  0.5973
12368TIP3    H258596   3.393   3.466   3.441 -0.4852  2.7669  0.7820
12369TIP3   OH258597   5.760   0.257   3.764  0.1038 -0.1456  0.0342
12369TIP3    H158598   5.666   0.275   3.763  0.3766  1.4059 -1.2513
12369TIP3    H258599   5.767   0.163   3.776 -1.5778 -0.1071  1.4877
12370TIP3   OH258600   2.884   6.026  13.091  0.2126  0.6567  0.4073
12370TIP3    H158601   2.920   6.090  13.029 -1.5724  0.7960 -0.5204
12370TIP3    H258602   2.790   6.042  13.089 -0.0938 -0.9953  1.3114
12371TIP3   OH258603   5.166   0.048  16.037 -0.7289  0.1486  0.2899
12371TIP3    H158604   5.191   0.041  16.129  1.2732  0.1641 -0.2332
12371TIP3    H258605   5.082   0.094  16.039 -0.7414  0.1041  2.1005
12372TIP3   OH258606   0.785   6.663   5.025  0.5829 -0.9475 -0.1270
12372TIP3    H158607   0.719   6.676   4.957  1.0500 -2.2150 -0.8375
12372TIP3    H258608   0.837   6.743   5.025 -0.9255  0.0524  0.4083
12373TIP3   OH258609   2.967   2.072  14.737 -0.5692 -0.1653  0.2936
12373TIP3    H158610   2.961   1.981  14.766  1.0298 -0.4110 -0.0877
12373TIP3    H258611   3.061   2.088  14.728 -0.9032  1.0111 -1.2586
12374TIP3   OH258612   6.738   0.445  16.192  0.7197 -0.4303 -0.1018
12374TIP3    H158613   6.725   0.436  16.286 -1.0030 -0.0024 -0.2660
12374TIP3    H258614   6.771   0.360  16.164 -0.0620 -1.0198  0.7011
12375TIP3   OH258615   5.539   0.790  12.172  0.6494 -0.2185  0.4042
12375TIP3    H158616   5.610   0.739  12.212 -0.4588 -1.8490  0.2959
12375TIP3    H258617   5.558   0.880  12.199  2.1236 -0.7798  1.3471
12376TIP3   OH258618   0.208   5.544   4.242 -0.2681  0.2717  0.2296
12376TIP3    H158619   0.167   5.553   4.156 -1.2273 -2.0964  0.4211
12376TIP3    H258620   0.232   5.452   4.249 -0.2185  0.4251  2.5108
12377TIP3   OH258621   4.449   1.654   2.936 -0.3220  0.2752  0.2796
12377TIP3    H158622   4.396   1.580   2.905 -0.1487 -0.3846  1.5383
12377TIP3    H258623   4.393   1.730   2.923 -1.6637 -0.4340  1.7647
12378TIP3   OH258624   0.783   4.185   4.287 -0.2866  0.5068  0.1084
12378TIP3    H158625   0.692   4.200   4.259  0.3746  4.2300 -0.2339
12378TIP3    H258626   0.779   4.104   4.339 -3.2667 -1.0345 -2.3374
12379TIP3   OH258627   5.406   4.403   5.872 -0.1134 -0.3345 -0.1016
12379TIP3    H158628   5.388   4.408   5.966  1.6595  2.4585  0.1602
12379TIP3    H258629   5.469   4.474   5.856 -2.5862  1.1396 -3.9080
12380TIP3   OH258630   5.498   5.905  11.174 -0.1748 -0.4036  0.2274
12380TIP3    H158631   5.502   5.975  11.109 -0.3374 -0.5641  0.0465
12380TIP3    H258632   5.448   5.836  11.132 -1.0263 -0.1741  0.8468
12381TIP3   OH258633   3.989   3.649  16.231 -0.1612  0.3047 -0.3900
12381TIP3    H158634   3.962   3.681  16.318  0.2090  0.8515 -0.4688
12381TIP3    H258635   3.909   3.653  16.178 -0.4146 -0.1337 -0.0454
12382TIP3   OH258636   0.063   2.968  15.874  0.0524 -0.2064 -0.1748
12382TIP3    H158637   0.011   2.937  15.948  1.3741 -1.2896  0.3344
12382TIP3    H258638   0.141   2.911  15.874  0.7729  0.7434 -1.4911
12383TIP3   OH258639   4.082   5.042  13.137  0.1615  0.3959  0.5227
12383TIP3    H158640   4.077   4.949  13.113 -0.7876  1.0876 -2.1159
12383TIP3    H258641   4.071   5.089  13.055 -0.3080  2.8817  1.9428
12384TIP3   OH258642   4.181   3.440   5.572  0.3613 -0.2742 -0.0623
12384TIP3    H158643   4.145   3.399   5.650  1.3879 -2.3466 -0.6496
12384TIP3    H258644   4.269   3.467   5.598 -0.1609  1.2410  0.1983
12385TIP3   OH258645   5.299   5.232  14.623 -0.6744  1.0126 -0.3424
12385TIP3    H158646   5.323   5.324  14.613 -0.2673  0.7221 -2.2987
12385TIP3    H258647   5.379   5.184  14.604 -1.4713  0.1907 -1.7294
12386TIP3   OH258648   3.636   4.280   0.098  0.1880 -0.0454 -0.2337
12386TIP3    H158649   3.611   4.370   0.119  0.2787  0.1728 -1.0447
12386TIP3    H258650   3.555   4.240   0.066  0.4396  0.1272 -1.1037
12387TIP3   OH258651   6.761   5.342   3.184  0.1668 -0.4218  0.0335
12387TIP3    H158652   6.806   5.424   3.202  0.5621 -0.8361  0.9340
12387TIP3    H258653   6.736   5.349   3.092  3.7390 -0.9872 -1.0531
12388TIP3   OH258654   5.604   5.131   2.101  0.1974  0.0470 -0.2474
12388TIP3    H158655   5.696   5.144   2.122  0.5396 -0.6338 -1.2791
12388TIP3    H258656   5.604   5.066   2.031 -0.9591  1.4755 -1.5994
12389TIP3   OH258657   6.068   0.812  16.734 -0.5979  0.3331  0.4751
12389TIP3    H158658   6.071   0.907  16.720 -0.9925  0.4549  1.1649
12389TIP3    H258659   6.015   0.802  16.814  0.3395 -0.3986  1.0120
12390TIP3   OH258660   6.131   1.809  15.826 -0.2012  0.0341 -0.7791
12390TIP3    H158661   6.144   1.800  15.921  0.6701  0.6051 -0.8432
12390TIP3    H258662   6.064   1.877  15.817 -1.1946 -0.8831 -0.5471
12391TIP3   OH258663   0.859   1.297  15.352 -0.3692 -0.0508  0.0308
12391TIP3    H158664   0.846   1.376  15.299 -1.2434 -1.0195 -1.2346
12391TIP3    H258665   0.809   1.313  15.432 -1.1457  0.3986 -0.5319
12392TIP3   OH258666   2.368   4.273  11.020 -0.2647  0.3395  0.3162
12392TIP3    H158667   2.338   4.216  10.949  2.7751  0.5848 -1.2320
12392TIP3    H258668   2.394   4.213  11.090 -2.3077  0.0658  0.8777
12393TIP3   OH258669   1.028   6.431   3.418 -0.4753  0.2874 -0.3897
12393TIP3    H158670   1.011   6.356   3.476  0.7488  0.5142  0.2765
12393TIP3    H258671   0.958   6.427   3.353 -0.8663 -0.9940  0.0910
12394TIP3   OH258672   3.482   3.398  13.699  0.5969  0.0590  0.2009
12394TIP3    H158673   3.525   3.416  13.782  0.0442  1.3782  0.2160
12394TIP3    H258674   3.551   3.362  13.643  1.4063  0.9041  0.6447
12395TIP3   OH258675   0.641   6.112  13.063  0.0842 -0.2246  0.1012
12395TIP3    H158676   0.643   6.208  13.056  0.3476 -0.3448 -1.8763
12395TIP3    H258677   0.686   6.094  13.145  1.9494  1.2909 -0.5162
12396TIP3   OH258678   3.436   1.957  13.234 -0.6746  0.0132 -0.3667
12396TIP3    H158679   3.391   1.926  13.155 -0.2025  0.7214 -0.9260
12396TIP3    H258680   3.374   2.017  13.275 -1.4978 -1.4545  0.5920
12397TIP3   OH258681   4.913   4.337  14.622  0.1904  0.8865  0.5744
12397TIP3    H158682   4.902   4.425  14.659 -2.8855  0.5637  0.5326
12397TIP3    H258683   4.843   4.285  14.661  0.7920 -1.0669 -0.8624
12398TIP3   OH258684   1.280   4.823   2.452 -0.1531  0.3242 -0.6167
12398TIP3    H158685   1.346   4.756   2.436 -0.4626  0.2554 -1.5804
12398TIP3    H258686   1.292   4.886   2.381 -1.5772 -0.0373 -1.1914
12399TIP3   OH258687   3.185   3.957   0.019 -0.7518 -0.6014  0.0166
12399TIP3    H158688   3.176   4.045  -0.019 -1.8519 -0.3920  0.7511
12399TIP3    H258689   3.127   3.957   0.095 -0.8266 -1.9950 -0.0241
12400TIP3   OH258690   0.514   1.567  16.205  0.2146 -0.5574  0.2866
12400TIP3    H158691   0.562   1.641  16.169  0.2141 -0.6608  0.0731
12400TIP3    H258692   0.425   1.578  16.173  0.4112 -1.1379 -0.4879
12401TIP3   OH258693   2.964   6.657   1.126  0.1442  0.0673  0.1411
12401TIP3    H158694   2.879   6.616   1.143 -0.0917 -0.5614 -2.3612
12401TIP3    H258695   2.946   6.751   1.126 -0.1915  0.0054  1.4481
12402TIP3   OH258696   5.165   2.004  13.815  0.0171  0.7673  0.1815
12402TIP3    H158697   5.076   1.979  13.792 -0.2156  1.3611  0.4129
12402TIP3    H258698   5.203   2.035  13.733  0.2103 -0.0533 -0.0431
12403TIP3   OH258699   2.948   4.898   4.808 -0.2122  0.3356 -0.1217
12403TIP3    H158700   2.965   4.818   4.859 -2.0424 -2.3205 -3.4809
12403TIP3    H258701   3.029   4.912   4.759  0.0190  0.3965  0.2719
12404TIP3   OH258702   6.149   3.050   3.736  0.3922  0.0578 -0.1392
12404TIP3    H158703   6.088   2.980   3.758 -0.6082  0.4597 -1.5791
12404TIP3    H258704   6.135   3.066   3.643 -0.0663  2.8034  0.3639
12405TIP3   OH258705   2.050   6.440  13.743  0.1343 -0.1149 -0.3687
12405TIP3    H158706   2.003   6.401  13.817  0.4559  1.0347  0.4433
12405TIP3    H258707   2.001   6.520  13.723  0.6657  0.1265 -0.7058
12406TIP3   OH258708   5.771   2.246   0.920  0.4332 -0.2502 -0.5581
12406TIP3    H158709   5.834   2.185   0.881  0.9990 -1.0607  1.5686
12406TIP3    H258710   5.779   2.231   1.014 -2.0281  0.5513 -0.2022
12407TIP3   OH258711   2.864   5.210  15.401 -0.0492  0.1321 -0.3798
12407TIP3    H158712   2.781   5.253  15.379 -0.5472 -0.9632 -0.6828
12407TIP3    H258713   2.873   5.223  15.495 -1.5824 -1.4462  0.0185
12408TIP3   OH258714   3.311   4.712  13.808  0.4619  0.0055 -0.4537
12408TIP3    H158715   3.358   4.769  13.747 -1.2563 -1.1707 -2.9871
12408TIP3    H258716   3.369   4.637  13.820  0.3275 -0.2820 -1.5689
12409TIP3   OH258717   6.508   1.061  13.875  0.4747  0.2042  0.2325
12409TIP3    H158718   6.453   1.025  13.945 -0.8158  0.3754 -0.6765
12409TIP3    H258719   6.463   1.141  13.847  0.7958 -0.0396 -1.0223
12410TIP3   OH258720   3.761   2.004  15.387 -0.1053 -0.4968  0.0413
12410TIP3    H158721   3.716   1.927  15.354  1.2038 -1.1199 -0.3318
12410TIP3    H258722   3.844   1.971  15.421 -0.5040  0.4368  1.9839
12411TIP3   OH258723   3.951   1.112  13.231 -0.4127 -0.0592  0.3910
12411TIP3    H158724   4.035   1.082  13.199 -0.4298 -0.4097  0.6677
12411TIP3    H258725   3.895   1.034  13.231  0.5458 -0.8930  4.4727
12412TIP3   OH258726   2.397   6.307   2.759  0.1189  0.5324 -0.2419
12412TIP3    H158727   2.399   6.395   2.720  0.6590  0.3857 -0.5622
12412TIP3    H258728   2.305   6.291   2.778  0.0642  1.3326  0.1975
12413TIP3   OH258729   5.912   3.511   5.980 -0.2184 -0.5234  0.0849
12413TIP3    H158730   5.854   3.541   5.909 -1.4488 -0.3597  1.1474
12413TIP3    H258731   5.944   3.592   6.020  0.3409 -0.6185 -0.1689
12414TIP3   OH258732   4.318   0.462  13.882  0.3120 -0.6401 -0.2474
12414TIP3    H158733   4.362   0.547  13.886 -0.8290 -0.0363 -0.1212
12414TIP3    H258734   4.256   0.464  13.954  1.5498 -2.3364  0.8736
12415TIP3   OH258735   2.113   5.306   3.331  0.1821  0.3745  0.4087
12415TIP3    H158736   2.058   5.257   3.270 -0.3616  2.2923 -0.6732
12415TIP3    H258737   2.168   5.361   3.276  1.2456  0.5203  1.5820
12416TIP3   OH258738   6.438   6.780   2.121  0.6103  0.1215  0.1961
12416TIP3    H158739   6.512   6.840   2.106  2.0135 -1.2552  1.3919
12416TIP3    H258740   6.362   6.828   2.089  1.8902  1.9642 -0.2144
12417TIP3   OH258741   3.265   3.699  11.124  0.5794 -0.3426 -0.6888
12417TIP3    H158742   3.237   3.621  11.076 -2.5819 -0.4910  1.2214
12417TIP3    H258743   3.314   3.665  11.199 -1.9332 -0.6671  0.8811
12418TIP3   OH258744   1.099   2.606   5.220 -0.0611 -0.1571 -0.3580
12418TIP3    H158745   1.104   2.679   5.158  0.5446 -0.7405 -1.0001
12418TIP3    H258746   1.005   2.590   5.230 -0.1986  0.8319 -0.0694
12419TIP3   OH258747   4.728   3.387  16.956 -0.2765 -0.3362  0.0347
12419TIP3    H158748   4.732   3.412  16.864 -1.1497  0.8428  0.3002
12419TIP3    H258749   4.638   3.357  16.969 -0.0142 -0.9708  0.3822
12420TIP3   OH258750   1.840   2.616   2.778  0.0940 -0.5868  0.1473
12420TIP3    H158751   1.791   2.620   2.695 -1.6217 -0.4915  1.1332
12420TIP3    H258752   1.875   2.527   2.782  1.5547 -0.1074 -1.4246
12421TIP3   OH258753   3.339   5.884   0.475  0.0402  0.3760  0.5078
12421TIP3    H158754   3.425   5.850   0.500  0.1158  1.0116  1.1327
12421TIP3    H258755   3.284   5.807   0.469  1.3342 -0.3565 -2.7094
12422TIP3   OH258756   1.815   6.368   2.727 -0.1010  0.6838  0.6418
12422TIP3    H158757   1.851   6.314   2.798 -1.5994  0.2838  1.1055
12422TIP3    H258758   1.815   6.309   2.651  0.1220  0.6496  0.6673
12423TIP3   OH258759   2.798   5.446  16.621  0.3822  0.0956  0.4359
12423TIP3    H158760   2.854   5.401  16.684  1.0075 -0.3396 -0.4103
12423TIP3    H258761   2.858   5.502  16.571  0.5047 -2.1831 -2.0988
12424TIP3   OH258762   0.403   1.154   1.115 -0.5401  0.1536 -0.5427
12424TIP3    H158763   0.413   1.095   1.190 -0.1032  1.1355  0.1857
12424TIP3    H258764   0.350   1.104   1.052  2.0366 -2.0539 -1.0701
12425TIP3   OH258765   4.957   0.719   2.912 -0.1174  0.5647  0.3458
12425TIP3    H158766   4.865   0.698   2.930  0.3709 -0.7082  1.4258
12425TIP3    H258767   4.974   0.798   2.964  0.2359 -0.9656  2.6624
12426TIP3   OH258768   2.719   6.045  12.790  0.6327  0.3658  0.4025
12426TIP3    H158769   2.673   5.977  12.840  0.1780 -0.8730 -1.6725
12426TIP3    H258770   2.770   5.997  12.725  2.1501  1.9149  0.4094
12427TIP3   OH258771   1.079   2.600   5.826 -0.6019  0.1496  0.0894
12427TIP3    H158772   1.114   2.600   5.915 -1.7373  1.5777  0.5424
12427TIP3    H258773   1.017   2.673   5.824 -0.4830  0.2188 -1.9146
12428TIP3   OH258774   4.471   4.183   2.465  0.4237  0.3564  0.2708
12428TIP3    H158775   4.541   4.127   2.497  0.2391 -0.4845 -0.7651
12428TIP3    H258776   4.453   4.151   2.377 -3.0803 -1.2079  1.4581
12429TIP3   OH258777   2.000   6.484  15.342 -0.2437  0.5322 -1.1430
12429TIP3    H158778   2.019   6.527  15.258  0.9123 -0.4552 -1.4088
12429TIP3    H258779   1.952   6.549  15.392  2.5253  2.6118 -1.0475
12430TIP3   OH258780   3.893   1.364   0.447  0.1490 -0.2453  0.1007
12430TIP3    H158781   3.964   1.329   0.393  1.8987  2.1500  0.7908
12430TIP3    H258782   3.935   1.387   0.530 -1.6861  0.0979  0.9601
12431TIP3   OH258783   2.809   1.656   2.046  0.1486 -0.1166  0.1993
12431TIP3    H158784   2.714   1.670   2.045  0.3041  0.8702 -1.5966
12431TIP3    H258785   2.833   1.666   2.138 -1.5111 -0.5146  0.6903
12432TIP3   OH258786   6.594   3.112   5.562  0.1113 -0.2827  0.1857
12432TIP3    H158787   6.513   3.129   5.516  1.8929  0.2552 -2.8803
12432TIP3    H258788   6.650   3.188   5.542  1.1149 -0.2315  2.8911
12433TIP3   OH258789   5.927   3.406   1.575  0.2881 -0.1722 -0.3202
12433TIP3    H158790   5.911   3.427   1.667  0.7679  1.0347 -0.5013
12433TIP3    H258791   5.902   3.314   1.567  1.9395 -0.8163  1.4245
12434TIP3   OH258792   3.723   5.108  13.565 -0.1290 -0.0040 -0.0228
12434TIP3    H158793   3.647   5.145  13.521 -1.0639 -0.2488  1.3679
12434TIP3    H258794   3.759   5.045  13.502 -1.4613 -0.3684 -0.4228
12435TIP3   OH258795   6.113   0.390  14.046 -0.2876 -0.0779 -0.3361
12435TIP3    H158796   6.126   0.391  14.141  0.2380 -3.3867 -0.2964
12435TIP3    H258797   6.201   0.381  14.011 -0.4788  1.2225 -1.1556
12436TIP3   OH258798   1.687   4.701   2.223 -0.3600  0.5573  0.2920
12436TIP3    H158799   1.774   4.672   2.196 -0.7990 -1.1043  0.6329
12436TIP3    H258800   1.700   4.742   2.308  0.2813  1.5531 -0.2651
12437TIP3   OH258801   4.652   6.763  14.651 -0.0939 -0.0146  0.3811
12437TIP3    H158802   4.683   6.746  14.739  0.9897 -1.1969 -0.2080
12437TIP3    H258803   4.676   6.854  14.634  0.0396  0.0970  1.1636
12438TIP3   OH258804   2.842   1.068   1.520 -0.3403  0.0733 -0.4159
12438TIP3    H158805   2.750   1.042   1.531 -0.2790  0.1827  0.3759
12438TIP3    H258806   2.842   1.163   1.534  0.3448 -0.3297  2.5502
12439TIP3   OH258807   6.717   0.704  11.328 -0.1122 -0.0714  0.3752
12439TIP3    H158808   6.787   0.645  11.356  0.1311  0.5505  1.0842
12439TIP3    H258809   6.677   0.734  11.409 -2.0598 -1.4304 -0.0486
12440TIP3   OH258810   3.534   6.663  16.905  0.1433 -0.4046  0.3711
12440TIP3    H158811   3.579   6.612  16.973 -0.1926 -1.0096  0.1394
12440TIP3    H258812   3.550   6.615  16.824  0.0653  0.0133  0.1042
12441TIP3   OH258813   2.380   1.473  13.221 -0.4962 -0.1120  0.3467
12441TIP3    H158814   2.375   1.385  13.183  0.3082 -0.1027  0.2079
12441TIP3    H258815   2.359   1.461  13.314 -0.2249 -0.4765  0.3613
12442TIP3   OH258816   5.882   5.066  14.775  0.0726  0.6922 -0.1962
12442TIP3    H158817   5.870   5.080  14.681 -1.3253  0.1715 -0.1075
12442TIP3    H258818   5.977   5.058  14.786  0.0898 -2.1110 -1.9960
12443TIP3   OH258819   6.624   2.855  13.217  0.4416 -0.1898  0.2486
12443TIP3    H158820   6.714   2.826  13.232  1.3020  1.2631 -1.7811
12443TIP3    H258821   6.633   2.925  13.152 -2.3295 -1.3333 -1.4241
12444TIP3   OH258822   2.038   5.512  13.060  0.3391 -0.1529  0.2243
12444TIP3    H158823   1.954   5.520  13.106 -0.6543 -3.7769 -0.7535
12444TIP3    H258824   2.045   5.591  13.007 -2.1175  0.5473  0.8996
12445TIP3   OH258825   0.127   5.947   0.777  0.0035  0.4573  0.0710
12445TIP3    H158826   0.153   5.862   0.812  1.8644  1.3900  1.0131
12445TIP3    H258827   0.187   5.964   0.705 -1.1871  0.4071 -0.9554
12446TIP3   OH258828   6.121   3.164  11.545  0.4518 -0.4135  0.4784
12446TIP3    H158829   6.065   3.189  11.618  1.1816 -0.1695  0.9640
12446TIP3    H258830   6.207   3.148  11.585  0.5577 -1.4853 -0.1437
12447TIP3   OH258831   0.748   2.976  11.624 -0.0538 -0.1718  0.6981
12447TIP3    H158832   0.663   2.979  11.580  0.4646  1.7742 -0.2289
12447TIP3    H258833   0.790   2.897  11.590 -1.2891 -0.8488  0.7525
12448TIP3   OH258834   1.159   1.626   3.191  0.3503 -0.2128  0.0095
12448TIP3    H158835   1.119   1.663   3.270  1.1963 -1.9011  1.2719
12448TIP3    H258836   1.108   1.547   3.173 -0.6050  0.8025 -1.8806
12449TIP3   OH258837   4.663   0.918   3.717  0.0797  0.6497 -0.8047
12449TIP3    H158838   4.610   0.854   3.764 -1.2758  1.1624 -1.6133
12449TIP3    H258839   4.674   0.991   3.778  1.0045 -0.0350 -0.1486
12450TIP3   OH258840   6.665   5.833  14.568 -0.1157 -0.3207  0.2614
12450TIP3    H158841   6.702   5.902  14.623  1.8739 -0.6820 -0.5545
12450TIP3    H258842   6.635   5.878  14.489  2.9950 -0.5479 -1.1444
12451TIP3   OH258843   4.758   3.354   0.801 -0.7306  0.2481 -0.1948
12451TIP3    H158844   4.833   3.406   0.829 -2.4282  1.9731  1.2901
12451TIP3    H258845   4.692   3.418   0.776 -1.4507 -1.2461 -2.2989
12452TIP3   OH258846   5.699   5.531  16.907 -0.3110  0.1688 -0.2679
12452TIP3    H158847   5.613   5.567  16.886  0.1159  1.1673 -0.3107
12452TIP3    H258848   5.744   5.600  16.955 -0.1630 -0.9835  1.2949
12453TIP3   OH258849   4.253   6.119  13.166 -0.6460 -0.0214  0.0121
12453TIP3    H158850   4.317   6.138  13.097 -1.5144  0.7603 -0.5782
12453TIP3    H258851   4.205   6.042  13.134 -0.7088  0.0301 -0.0163
12454TIP3   OH258852   3.497   3.363  12.065  0.1781 -0.0417  0.1114
12454TIP3    H158853   3.489   3.342  11.972  1.0006  0.6929 -0.1274
12454TIP3    H258854   3.524   3.281  12.106  1.6334  0.0769 -0.5677
12455TIP3   OH258855   6.165   1.512  15.222  0.3483  0.1338 -0.2458
12455TIP3    H158856   6.252   1.500  15.182  0.7661 -1.8895  1.1932
12455TIP3    H258857   6.184   1.538  15.312 -0.5941  2.7497 -0.7506
12456TIP3   OH258858   0.858   0.911   4.483 -0.0009 -0.1624  0.0246
12456TIP3    H158859   0.921   0.840   4.478 -0.1883 -0.3287  0.0165
12456TIP3    H258860   0.873   0.963   4.404 -0.6603 -0.8623 -0.5755
12457TIP3   OH258861   6.361   4.925  14.652 -0.2968  0.2712 -0.4676
12457TIP3    H158862   6.294   4.857  14.657 -0.0280 -0.1097 -1.7234
12457TIP3    H258863   6.363   4.965  14.739  0.0294 -1.7969  0.4914
12458TIP3   OH258864   0.254   4.105   3.276 -0.7047 -0.1627 -0.5526
12458TIP3    H158865   0.170   4.059   3.277 -1.2184  0.7672 -0.1579
12458TIP3    H258866   0.262   4.140   3.188 -0.2565 -1.1147 -0.8884
12459TIP3   OH258867   5.146   0.888  13.531  0.3061 -0.3719  0.0388
12459TIP3    H158868   5.172   0.975  13.500  1.2251 -0.7980 -0.4096
12459TIP3    H258869   5.189   0.827  13.471 -0.7050 -1.1320  0.0691
12460TIP3   OH258870   1.015   2.916   4.148  0.8889  0.4781  0.0615
12460TIP3    H158871   1.074   2.980   4.188 -0.2687  0.9686  1.0143
12460TIP3    H258872   0.947   2.968   4.106  0.3505 -0.1062  0.2034
12461TIP3   OH258873   2.675   2.772   5.484  0.5872  0.4365  0.3683
12461TIP3    H158874   2.662   2.711   5.556  0.8611  0.2648  0.2723
12461TIP3    H258875   2.618   2.739   5.414 -1.3695  1.8453  1.2485
12462TIP3   OH258876   2.381   3.311   1.650 -0.5273 -0.6344  0.3570
12462TIP3    H158877   2.427   3.237   1.611 -0.3001 -0.1260 -0.3471
12462TIP3    H258878   2.425   3.325   1.734  0.0678 -0.6753  0.0510
12463TIP3   OH258879   4.890   0.832   0.502  0.1964 -0.8282 -0.2732
12463TIP3    H158880   4.825   0.849   0.570  0.9532  0.2293  0.1968
12463TIP3    H258881   4.875   0.741   0.477 -0.9951 -0.8091  0.3276
12464TIP3   OH258882   1.510   0.933   5.557 -0.2944  0.1319 -0.5941
12464TIP3    H158883   1.484   0.914   5.647 -0.8638 -0.2512 -0.8325
12464TIP3    H258884   1.592   0.885   5.544  1.6410  2.9138  0.7833
12465TIP3   OH258885   5.742   4.340  16.574 -0.2344 -0.2439  0.4929
12465TIP3    H158886   5.791   4.304  16.501  0.4954 -0.3221  1.0213
12465TIP3    H258887   5.727   4.265  16.632  0.5659  0.1365  1.1928
12466TIP3   OH258888   2.486   4.676  15.446 -0.8694  0.4617  0.2296
12466TIP3    H158889   2.425   4.683  15.373 -0.7634 -2.2924 -0.1467
12466TIP3    H258890   2.430   4.665  15.523 -0.9122  0.9665  0.2750
12467TIP3   OH258891   4.750   5.467  14.034 -0.1961  0.4685  0.3727
12467TIP3    H158892   4.791   5.492  13.952 -0.6364 -0.7556 -0.2428
12467TIP3    H258893   4.810   5.401  14.071  0.4964  1.7017  1.5230
12468TIP3   OH258894   2.441   6.187   1.714 -0.3923 -0.6626 -0.6507
12468TIP3    H158895   2.423   6.200   1.621  2.4905 -0.9561 -1.2824
12468TIP3    H258896   2.477   6.271   1.744  0.6711 -1.2426 -0.2990
12469TIP3   OH258897   2.568   5.710   0.328 -0.0702  0.2654 -0.0192
12469TIP3    H158898   2.498   5.666   0.376  0.8582 -1.0399  0.1799
12469TIP3    H258899   2.649   5.678   0.369  0.6634  1.1988 -0.7115
12470TIP3   OH258900   5.126   6.233  16.066  0.5427 -0.5270 -0.5489
12470TIP3    H158901   5.157   6.174  16.134  0.8595 -2.3708 -2.2509
12470TIP3    H258902   5.164   6.318  16.089  0.5683 -1.0903  1.5916
12471TIP3   OH258903   5.147   5.812   4.503 -0.4092  0.3300  0.0608
12471TIP3    H158904   5.220   5.874   4.515  0.0111 -0.4911  1.9953
12471TIP3    H258905   5.081   5.842   4.565 -1.1982  0.2795 -0.7486
12472TIP3   OH258906   4.829   6.264  13.713 -0.0879  0.2923  0.1297
12472TIP3    H158907   4.740   6.293  13.732  0.7120  1.6230  1.9769
12472TIP3    H258908   4.834   6.265  13.617 -2.6417 -1.6870 -0.0895
12473TIP3   OH258909   5.599   3.008   1.691  0.4914  0.7301  0.7674
12473TIP3    H158910   5.627   3.009   1.600 -0.9477  1.8046  0.3215
12473TIP3    H258911   5.677   3.037   1.741  0.7628  1.8033 -0.2635
12474TIP3   OH258912   6.314   0.221   3.125  0.4678  0.4336  0.3302
12474TIP3    H158913   6.336   0.131   3.100 -0.4978  0.1682  0.4273
12474TIP3    H258914   6.308   0.219   3.220  2.1853  1.0021  0.4579
12475TIP3   OH258915   5.362   3.887  13.222 -0.4883  0.0983  0.2470
12475TIP3    H158916   5.352   3.879  13.127  0.0535  0.4582  0.1606
12475TIP3    H258917   5.285   3.936  13.250 -0.1130  0.9166 -0.1391
12476TIP3   OH258918   1.933   5.846   2.144 -0.1167 -0.5625  0.3773
12476TIP3    H158919   2.007   5.901   2.117 -0.8281 -0.7143 -1.9499
12476TIP3    H258920   1.956   5.817   2.232  2.4750 -0.3864 -0.2085
12477TIP3   OH258921   0.606   0.795   4.114 -0.9279  0.2472 -0.0011
12477TIP3    H158922   0.638   0.831   4.032 -0.4028 -1.5326 -0.6074
12477TIP3    H258923   0.634   0.703   4.113 -2.6246 -0.3284  1.2600
12478TIP3   OH258924   6.491   6.698  14.252  0.2030 -0.5501 -0.2203
12478TIP3    H158925   6.563   6.760  14.253  0.4761 -0.8590  1.9948
12478TIP3    H258926   6.533   6.612  14.258 -0.2523 -0.8629 -1.3842
12479TIP3   OH258927   6.421   4.125  15.432  0.0041 -0.2817 -0.5236
12479TIP3    H158928   6.447   4.068  15.360  2.8670 -0.6694  0.7598
12479TIP3    H258929   6.372   4.067  15.491 -0.3855 -0.4889 -1.0407
12480TIP3   OH258930   4.942   6.809  15.499  0.0956 -0.4437  0.3631
12480TIP3    H158931   5.023   6.790  15.547  1.4271  1.3636 -1.0697
12480TIP3    H258932   4.930   6.904  15.508 -0.8973 -0.4326 -0.8874
12481TIP3   OH258933   6.309   4.880  15.450  0.5345 -1.4799  0.4217
12481TIP3    H158934   6.253   4.957  15.455  1.6615 -0.6698  1.0123
12481TIP3    H258935   6.268   4.816  15.508 -1.0695 -1.7694 -1.0077
12482TIP3   OH258936   1.366   1.393  11.872  0.4457 -0.5610  0.2396
12482TIP3    H158937   1.393   1.444  11.796  2.2436 -0.3461  1.0032
12482TIP3    H258938   1.376   1.302  11.846  1.2703 -0.4859  0.2748
12483TIP3   OH258939   0.396   6.376  12.265 -0.3934 -0.1045  0.2725
12483TIP3    H158940   0.367   6.308  12.327 -1.9771  0.5236  0.2469
12483TIP3    H258941   0.455   6.431  12.315 -0.3912 -0.5479  0.7599
12484TIP3   OH258942   0.284   0.308  12.104 -0.3930  0.0277 -0.6277
12484TIP3    H158943   0.232   0.388  12.115  0.7866  0.8587 -0.9749
12484TIP3    H258944   0.349   0.313  12.175  0.3700 -0.0724 -1.3194
12485TIP3   OH258945   1.577   3.317  16.221  0.2873  0.0414  0.3767
12485TIP3    H158946   1.570   3.230  16.259  0.6194  0.0529  0.4625
12485TIP3    H258947   1.651   3.312  16.161 -0.2349  0.0246 -0.2733
12486TIP3   OH258948   1.123   3.224  14.832  1.2962  0.4646 -0.2196
12486TIP3    H158949   1.112   3.267  14.748 -2.8248 -2.0622 -1.1300
12486TIP3    H258950   1.133   3.131  14.810  3.4192  0.1367  1.9570
12487TIP3   OH258951   3.878   6.513   0.332  0.7671 -0.2363 -0.5110
12487TIP3    H158952   3.794   6.466   0.335  0.3914  0.3771 -1.2219
12487TIP3    H258953   3.854   6.604   0.315  1.5480  0.0517 -0.1059
12488TIP3   OH258954   4.698   0.676   1.701  0.0371 -0.4174 -0.2048
12488TIP3    H158955   4.773   0.721   1.738  0.1054 -1.6519  1.2419
12488TIP3    H258956   4.735   0.614   1.638  0.1308 -0.1554 -0.4060
12489TIP3   OH258957   2.066   5.564  14.069  0.8689 -0.6898 -0.3472
12489TIP3    H158958   2.098   5.621  13.999  0.1158  0.6624  0.4080
12489TIP3    H258959   2.128   5.576  14.141  0.6738 -0.7916 -0.1627
12490TIP3   OH258960   2.951   2.814  13.233 -0.6950  0.2188 -0.0532
12490TIP3    H158961   3.028   2.757  13.225  0.1283  1.1339  1.2018
12490TIP3    H258962   2.951   2.866  13.153  0.0589  0.3052  0.0009
12491TIP3   OH258963   1.230   6.712   4.111 -0.0379  0.4265 -0.2181
12491TIP3    H158964   1.323   6.725   4.093  0.2292 -0.2513  0.6728
12491TIP3    H258965   1.209   6.775   4.179  0.3454 -1.0628  1.3085
12492TIP3   OH258966   4.267   4.195  14.322 -0.1957 -0.1222 -0.0069
12492TIP3    H158967   4.348   4.145  14.313  0.1776  0.4434  0.1889
12492TIP3    H258968   4.283   4.275  14.273 -1.4437 -0.9606 -1.8449
12493TIP3   OH258969   5.731   1.795  10.842  0.6153 -0.2188  0.5506
12493TIP3    H158970   5.737   1.874  10.789  1.2752 -0.7428 -0.1632
12493TIP3    H258971   5.822   1.774  10.865  0.4211 -0.5864  1.0034
12494TIP3   OH258972   6.711   4.978  12.876  0.6985 -0.1992  0.6759
12494TIP3    H158973   6.725   4.999  12.783  0.8530  0.0576  0.7561
12494TIP3    H258974   6.667   5.055  12.911  0.9050 -0.1764  0.8835
12495TIP3   OH258975   1.031   6.215  16.965  0.5516  0.0297 -0.1775
12495TIP3    H158976   1.081   6.188  16.888  0.4327 -1.4827  0.2552
12495TIP3    H258977   1.081   6.288  17.002  0.3231  1.1227 -1.9830
12496TIP3   OH258978   5.679   5.940  14.906  0.3765  0.2636  0.3710
12496TIP3    H158979   5.631   5.972  14.982  2.8861  0.2762  2.0086
12496TIP3    H258980   5.616   5.884  14.860 -0.9100 -0.5116  2.9732
12497TIP3   OH258981   1.405   2.029   5.071  0.6104 -0.3796 -0.7249
12497TIP3    H158982   1.364   2.110   5.102 -1.0943 -1.5117  0.0513
12497TIP3    H258983   1.476   2.013   5.133  0.5648  0.1825 -0.5215
12498TIP3   OH258984   3.218   1.305   1.121  0.2263 -0.4227  0.3008
12498TIP3    H158985   3.167   1.383   1.142 -2.2377 -1.3080 -2.0575
12498TIP3    H258986   3.302   1.339   1.088  0.0067  1.1436  1.3097
12499TIP3   OH258987   0.357   4.521   1.289  0.6408  0.2417  0.1212
12499TIP3    H158988   0.312   4.590   1.338  1.6708  0.7112  0.4258
12499TIP3    H258989   0.393   4.564   1.212  0.7276 -0.0845 -0.0246
12500TIP3   OH258990   5.736   4.901   4.124  0.2840 -0.3249 -0.2329
12500TIP3    H158991   5.759   4.844   4.197 -0.0351 -0.0185  0.1042
12500TIP3    H258992   5.644   4.882   4.106 -0.9093  2.6954  2.2563
12501TIP3   OH258993   4.320   3.534  12.290  0.6074  0.1727  0.1754
12501TIP3    H158994   4.365   3.450  12.302  1.2651  0.6827  1.2753
12501TIP3    H258995   4.318   3.545  12.195 -0.3812 -1.5705 -0.0287
12502TIP3   OH258996   4.052   2.224  16.262 -0.7048 -0.7824 -0.2294
12502TIP3    H158997   3.997   2.191  16.191 -0.1018 -2.1709 -0.0744
12502TIP3    H258998   4.014   2.185  16.341  0.0739 -1.1813 -0.0517
12503TIP3   OH258999   6.401   5.878   1.013  0.2852  0.6240  0.3682
12503TIP3    H159000   6.336   5.861   1.081 -1.9517  1.1259 -1.5765
12503TIP3    H259001   6.360   5.945   0.958  1.3520 -0.9627 -2.4067
12504TIP3   OH259002   5.270   0.932  15.090 -0.2981 -1.1858 -0.0811
12504TIP3    H159003   5.275   1.028  15.095  0.4141 -1.3166  2.3970
12504TIP3    H259004   5.351   0.906  15.045 -1.5200 -0.5356 -2.7547
12505TIP3   OH259005   2.086   0.365  16.467  0.1553  0.3331 -0.3344
12505TIP3    H159006   2.075   0.299  16.398 -0.6287  1.0811 -0.9260
12505TIP3    H259007   2.049   0.324  16.545 -0.7853  0.2694 -0.8177
12506TIP3   OH259008   3.223   2.694  13.454  0.6123 -0.0470 -0.4610
12506TIP3    H159009   3.283   2.730  13.389 -0.5768 -1.1769 -2.2335
12506TIP3    H259010   3.178   2.771  13.489  0.8324  0.5311 -1.4258
12507TIP3   OH259011   0.965   1.259   5.239 -0.1572 -0.4145  0.2916
12507TIP3    H159012   1.001   1.336   5.285 -0.2504 -0.7443  0.9223
12507TIP3    H259013   0.929   1.295   5.158  3.9807 -0.4348 -1.6536
12508TIP3   OH259014   0.307   2.030   2.937  0.8401  0.2407  0.0458
12508TIP3    H159015   0.346   2.004   3.020 -1.1584 -0.3643  0.8306
12508TIP3    H259016   0.222   2.066   2.961  0.1032 -0.2436 -1.7642
12509TIP3   OH259017   6.003   1.764   6.309  0.3923 -0.2952 -0.0191
12509TIP3    H159018   6.069   1.694   6.311  1.6637  0.8982  0.7136
12509TIP3    H259019   5.920   1.719   6.325  1.2685 -1.5631  1.1227
12510TIP3   OH259020   4.124   5.243  12.953  0.0384 -0.1812  0.3485
12510TIP3    H159021   4.123   5.185  12.877  3.0233 -0.1042  0.1752
12510TIP3    H259022   4.046   5.297  12.943 -0.3922 -1.1410 -1.8983
12511TIP3   OH259023   4.919   4.907  16.800  0.4257  0.1238  0.2260
12511TIP3    H159024   4.924   4.819  16.763  1.8607 -0.2615  1.3243
12511TIP3    H259025   5.003   4.948  16.778  0.3340  0.7209  0.9619
12512TIP3   OH259026   1.939   6.180   4.383 -0.2088 -0.5132 -0.4652
12512TIP3    H159027   1.867   6.184   4.320 -0.7730 -0.2706  0.1859
12512TIP3    H259028   1.915   6.108   4.441 -0.6292  0.4661  0.5947
12513TIP3   OH259029   2.455   6.038   3.430 -0.1421  0.3672  0.0664
12513TIP3    H159030   2.494   6.080   3.507 -0.3497 -0.6996  0.7674
12513TIP3    H259031   2.427   5.952   3.462  0.2419 -0.2801 -1.3250
12514TIP3   OH259032   1.417   1.680  14.866  0.7464 -0.4979 -0.1556
12514TIP3    H159033   1.351   1.653  14.930  0.9034  0.1292  0.2795
12514TIP3    H259034   1.500   1.664  14.910  0.8396  0.8876  0.2065
12515TIP3   OH259035   2.775   5.035  14.138  0.0827  0.1503  0.0935
12515TIP3    H159036   2.758   5.104  14.074  0.2039 -0.4257 -0.5563
12515TIP3    H259037   2.716   4.964  14.114 -0.3080  0.1632  0.9890
12516TIP3   OH259038   1.872   2.206   1.526  0.2701  0.5951 -0.1348
12516TIP3    H159039   1.954   2.217   1.574  0.2565 -0.9090  0.2381
12516TIP3    H259040   1.897   2.219   1.434  0.9801 -0.1448 -0.0524
12517TIP3   OH259041   4.218   5.212  17.000  0.2516  0.3762  0.3079
12517TIP3    H159042   4.148   5.220  16.936 -0.5378 -2.9091  0.6796
12517TIP3    H259043   4.295   5.186  16.948 -0.1491 -1.3052  0.5184
12518TIP3   OH259044   0.987   2.450  13.835  0.2408 -0.2337  0.0905
12518TIP3    H159045   1.003   2.390  13.762 -1.2786 -2.0765  1.2405
12518TIP3    H259046   1.057   2.431  13.897  0.4929  0.0954 -0.0859
12519TIP3   OH259047   2.064   0.317  14.552 -0.1329 -0.2607  0.1524
12519TIP3    H159048   1.974   0.284  14.544 -0.1970  0.2299 -1.3177
12519TIP3    H259049   2.098   0.275  14.631 -1.9328  0.1959  1.2061
12520TIP3   OH259050   4.086   5.378   4.672  0.4037 -0.0282 -0.1250
12520TIP3    H159051   4.040   5.460   4.683 -0.4681 -0.0443 -3.1878
12520TIP3    H259052   4.140   5.370   4.750 -1.2002  2.3184  1.2801
12521TIP3   OH259053   3.151   4.982  15.459  0.5648  0.0295  0.0281
12521TIP3    H159054   3.210   4.999  15.385  0.9704 -0.6724  0.1865
12521TIP3    H259055   3.198   4.919  15.514  1.2304  2.2406  2.0649
12522TIP3   OH259056   1.670   4.348  14.031 -0.2901 -0.0501  0.5585
12522TIP3    H159057   1.673   4.261  14.071  2.1824 -1.4855 -2.5411
12522TIP3    H259058   1.602   4.341  13.963 -0.7699  0.7599  0.9425
12523TIP3   OH259059   5.341   4.996   1.709 -0.0310  0.2581 -0.3972
12523TIP3    H159060   5.339   4.961   1.620  2.8301  0.3516 -0.5277
12523TIP3    H259061   5.298   4.929   1.762 -1.7234  0.1860 -1.8221
12524TIP3   OH259062   6.526   5.346   5.415 -0.2468  0.2090  0.3449
12524TIP3    H159063   6.621   5.351   5.424 -0.2650  1.3500 -0.0960
12524TIP3    H259064   6.511   5.286   5.342  0.1421  0.4892  0.0378
12525TIP3   OH259065   4.537   2.003   2.126 -0.3095  0.0389  0.0157
12525TIP3    H159066   4.509   1.974   2.213 -0.8981  3.1806  0.9723
12525TIP3    H259067   4.633   2.004   2.131 -0.3056 -1.1121  0.1724
12526TIP3   OH259068   5.428   2.153  12.004  0.5264 -0.7108  0.1792
12526TIP3    H159069   5.450   2.074  11.955 -2.2527 -1.9291  0.8073
12526TIP3    H259070   5.450   2.133  12.095  1.4428 -0.0991  0.1041
12527TIP3   OH259071   3.484   1.576   2.373 -0.3010  0.3556 -0.5779
12527TIP3    H159072   3.410   1.581   2.433 -0.1742  0.9967 -0.4767
12527TIP3    H259073   3.462   1.638   2.303 -0.1699  0.0519 -0.8905
12528TIP3   OH259074   2.073   0.658   3.492  0.2883 -0.2479  0.2858
12528TIP3    H159075   2.023   0.598   3.548 -1.3171  1.5351  0.8521
12528TIP3    H259076   2.049   0.634   3.403 -1.0849  0.1389  0.5395
12529TIP3   OH259077   1.600   5.199  16.223 -0.6254 -0.1536 -0.8467
12529TIP3    H159078   1.671   5.250  16.184  0.5993 -2.2139 -1.4040
12529TIP3    H259079   1.629   5.181  16.313 -1.2692  0.5223 -0.4973
12530TIP3   OH259080   3.459   1.854  15.489  0.3248  0.4991  0.3437
12530TIP3    H159081   3.435   1.846  15.397  0.6437 -0.1550  0.3164
12530TIP3    H259082   3.540   1.803  15.498 -0.0621  0.0125  1.1192
12531TIP3   OH259083   4.272   1.657  16.548 -0.0156 -0.2557 -0.1508
12531TIP3    H159084   4.245   1.743  16.518 -0.6452  0.0440  1.2241
12531TIP3    H259085   4.308   1.672  16.636 -1.4712 -1.5750  0.7158
12532TIP3   OH259086   6.663   0.976  11.624  0.0915  1.0024 -0.2304
12532TIP3    H159087   6.752   0.952  11.650  0.2075 -0.4891 -1.9007
12532TIP3    H259088   6.619   0.892  11.610 -0.8526  1.7444 -1.7912
12533TIP3   OH259089   1.347   6.680  14.633  0.3279 -0.2969  0.0971
12533TIP3    H159090   1.308   6.647  14.553 -0.0860 -2.8876  1.2967
12533TIP3    H259091   1.281   6.739  14.670 -0.0487 -0.1881 -0.7445
12534TIP3   OH259092   5.425   3.674   3.212  0.1521  0.8623  0.6564
12534TIP3    H159093   5.423   3.669   3.307 -0.3528  1.4031  0.6803
12534TIP3    H259094   5.361   3.742   3.190 -0.0835  0.4083 -0.0912
12535TIP3   OH259095   2.226   3.123  11.116  0.3941 -0.4952  0.1040
12535TIP3    H159096   2.274   3.091  11.040  2.1734  0.0794  0.9682
12535TIP3    H259097   2.289   3.176  11.165 -0.6613 -0.9925  2.0807
12536TIP3   OH259098   2.309   5.595   4.316 -0.1992 -0.3723 -1.0607
12536TIP3    H159099   2.280   5.686   4.314 -0.1884 -0.2922  1.7256
12536TIP3    H259100   2.229   5.544   4.302 -0.1604  0.0357 -2.9346
12537TIP3   OH259101   4.225   2.953   2.775  0.3530 -0.0543  0.6062
12537TIP3    H159102   4.162   2.896   2.731  0.2257  0.6934 -0.2004
12537TIP3    H259103   4.254   3.013   2.706  1.6807 -0.1675  1.0584
12538TIP3   OH259104   0.420   2.542   2.679 -0.5408 -0.0075  0.5812
12538TIP3    H159105   0.342   2.499   2.713  0.1515 -1.4977  0.3339
12538TIP3    H259106   0.398   2.563   2.588 -1.2396  1.0746  0.9968
12539TIP3   OH259107   0.208   2.226  15.766  0.2569  0.3534  1.2539
12539TIP3    H159108   0.260   2.298  15.800  0.6072  0.3589  0.7174
12539TIP3    H259109   0.118   2.246  15.792  0.0187  2.0900 -0.6944
12540TIP3   OH259110   0.454   6.819   3.888 -0.3750  0.1571  0.6876
12540TIP3    H159111   0.525   6.761   3.860 -0.9983 -0.7028  0.8687
12540TIP3    H259112   0.393   6.762   3.934 -1.3639  0.8261  0.2203
12541TIP3   OH259113   3.089   6.487  11.740  0.1389  0.4073 -0.1246
12541TIP3    H159114   3.103   6.582  11.749 -0.6220  0.6851 -1.6646
12541TIP3    H259115   3.128   6.466  11.655 -1.3553 -0.3214 -0.6347
12542TIP3   OH259116   1.379   4.713  16.132 -1.0045 -0.5675  0.3060
12542TIP3    H159117   1.459   4.766  16.129  0.2697 -2.4902 -0.9125
12542TIP3    H259118   1.343   4.728  16.219  0.4304  0.7098  0.6960
12543TIP3   OH259119   5.023   3.574  15.304  0.6191  0.2712 -0.0839
12543TIP3    H159120   4.938   3.530  15.311  0.6280  0.1765 -0.5434
12543TIP3    H259121   5.063   3.536  15.226  0.5723  1.1783 -0.5585
12544TIP3   OH259122   3.086   5.728   2.496  0.6807 -0.4451 -0.6003
12544TIP3    H159123   3.026   5.723   2.422 -1.8157 -2.0046  1.4325
12544TIP3    H259124   3.063   5.810   2.540 -2.5727 -2.6325  2.1472
12545TIP3   OH259125   4.190   0.609   4.445  0.2121  0.4231  0.4168
12545TIP3    H159126   4.221   0.534   4.394 -1.6629  0.4947 -0.8996
12545TIP3    H259127   4.220   0.592   4.534  2.0206 -0.6009 -0.3582
12546TIP3   OH259128   5.003   6.217  10.916  0.0830 -1.2435 -0.3727
12546TIP3    H159129   5.021   6.147  10.852 -0.5491 -0.7369 -1.1139
12546TIP3    H259130   4.909   6.210  10.933  0.2929 -1.5238  0.6862
12547TIP3   OH259131   4.311   6.215  16.122 -0.0856 -0.7105 -0.4781
12547TIP3    H159132   4.279   6.158  16.052 -2.1328  0.5554 -0.6139
12547TIP3    H259133   4.298   6.165  16.202  0.8733 -1.5655 -0.8305
12548TIP3   OH259134   5.283   3.125   4.196  0.0014  0.0208  0.1800
12548TIP3    H159135   5.337   3.200   4.172 -0.8396  0.1508 -1.4244
12548TIP3    H259136   5.226   3.158   4.266  0.2620  0.6082  0.1186
12549TIP3   OH259137   1.720   5.743  13.506 -0.1849 -0.0080 -0.1965
12549TIP3    H159138   1.738   5.652  13.482  1.9006 -0.5851  3.3051
12549TIP3    H259139   1.633   5.742  13.545  0.5666 -0.8373  1.4732
12550TIP3   OH259140   2.104   6.370   0.280 -0.1101 -0.5528 -0.1953
12550TIP3    H159141   2.053   6.429   0.225  0.4598  0.4876  0.3876
12550TIP3    H259142   2.174   6.338   0.224  0.6374  0.7259 -0.0032
12551TIP3   OH259143   5.448   1.452   5.949 -0.5810 -0.3228 -0.5273
12551TIP3    H159144   5.366   1.442   5.996  0.7245 -0.1654  1.8378
12551TIP3    H259145   5.430   1.522   5.886 -2.6657 -1.2698 -1.0406
12552TIP3   OH259146   4.503   1.259  15.254  0.1231  0.1656  1.0902
12552TIP3    H159147   4.544   1.343  15.274 -0.4739  0.9583 -0.8780
12552TIP3    H259148   4.427   1.255  15.313 -0.4837  1.5263  0.4232
12553TIP3   OH259149   6.662   3.400  14.541 -0.4159  0.2101 -0.2713
12553TIP3    H159150   6.698   3.452  14.613  0.3312  0.9617 -1.1706
12553TIP3    H259151   6.612   3.463  14.489 -0.5529 -0.2327 -0.6812
12554TIP3   OH259152   0.715   6.195  10.697 -0.2864  0.5243  0.2693
12554TIP3    H159153   0.666   6.250  10.636  0.5082  0.0518 -0.8107
12554TIP3    H259154   0.807   6.205  10.670  0.0792  0.3535  1.4239
12555TIP3   OH259155   4.411   4.807   3.439  0.5613  0.1567  0.0335
12555TIP3    H159156   4.383   4.890   3.478  0.6711  0.1551  0.1175
12555TIP3    H259157   4.353   4.795   3.364  1.0818  0.7298 -0.4744
12556TIP3   OH259158   4.820   2.350   3.182 -0.0955 -0.5498  0.0400
12556TIP3    H159159   4.766   2.298   3.241 -1.6439  0.3525 -0.5763
12556TIP3    H259160   4.820   2.302   3.100  1.2608 -1.2977  0.4507
12557TIP3   OH259161   5.248   2.732   5.650 -0.2079 -0.4789  0.4460
12557TIP3    H159162   5.261   2.655   5.706  1.0339 -0.8954 -0.3969
12557TIP3    H259163   5.250   2.697   5.561 -0.7067  0.3848  0.0949
12558TIP3   OH259164   0.594   0.456  16.804 -0.0617 -0.2335 -0.9102
12558TIP3    H159165   0.586   0.550  16.791  1.9184  0.0609 -0.1143
12558TIP3    H259166   0.522   0.434  16.864 -1.4882  0.4793 -2.3062
12559TIP3   OH259167   5.478   4.200  16.198  0.3599  0.3092  0.5613
12559TIP3    H159168   5.468   4.258  16.274  1.4901  0.6378  0.4766
12559TIP3    H259169   5.394   4.204  16.153  0.6359  2.4684  0.1611
12560TIP3   OH259170   4.400   6.674  14.534 -0.2766  0.3552 -0.2939
12560TIP3    H159171   4.423   6.582  14.543 -1.5715  0.1726  1.2833
12560TIP3    H259172   4.471   6.720  14.579 -0.1773  0.0756 -0.1640
12561TIP3   OH259173   5.593   5.535  14.984  0.1765  0.2356  0.2550
12561TIP3    H159174   5.603   5.492  15.069 -0.4185  0.1458  0.2817
12561TIP3    H259175   5.500   5.558  14.979 -0.3106 -1.9023 -1.3699
12562TIP3   OH259176   5.487   3.890   1.611  0.0129 -0.6114 -0.8438
12562TIP3    H159177   5.541   3.916   1.536 -0.3999  2.1187 -0.2329
12562TIP3    H259178   5.517   3.945   1.683 -0.7424 -2.0341  0.5945
12563TIP3   OH259179   3.981   4.115  16.027  0.2940 -0.0628  0.1259
12563TIP3    H159180   3.894   4.147  16.052  0.5003  1.5796 -1.1395
12563TIP3    H259181   4.035   4.132  16.104  0.4679  3.1061 -0.5934
12564TIP3   OH259182   5.466   4.479   5.582 -0.4010  0.3469  0.0318
12564TIP3    H159183   5.547   4.429   5.578  1.5726  3.4258 -0.3937
12564TIP3    H259184   5.427   4.456   5.666  0.0087 -2.4534 -0.5063
12565TIP3   OH259185   6.322   3.434   4.558  0.3164 -0.3074 -0.3241
12565TIP3    H159186   6.406   3.473   4.582  0.3632 -0.7938  0.3034
12565TIP3    H259187   6.296   3.481   4.478  0.6639  0.5953  0.0820
12566TIP3   OH259188   2.642   5.059   0.090 -0.3211 -0.1479 -0.2221
12566TIP3    H159189   2.697   5.028   0.162 -0.2166 -0.1305 -0.2950
12566TIP3    H259190   2.642   4.987   0.027 -1.6053 -0.7621  0.4527
12567TIP3   OH259191   3.543   0.156  11.357 -0.0856 -0.1221 -0.2742
12567TIP3    H159192   3.508   0.171  11.269  0.1326  2.0328 -0.0361
12567TIP3    H259193   3.476   0.104  11.401 -1.2671  0.7446 -1.0111
12568TIP3   OH259194   5.365   6.781   1.106  0.5403  0.0112  0.0123
12568TIP3    H159195   5.355   6.876   1.097 -0.8061 -0.3574 -3.2572
12568TIP3    H259196   5.276   6.748   1.113  0.9762 -1.0658  0.5943
12569TIP3   OH259197   4.536   5.190  13.903 -0.1164 -0.2975 -0.0449
12569TIP3    H159198   4.569   5.208  13.991 -0.0805 -0.1257 -0.0930
12569TIP3    H259199   4.605   5.222  13.845 -0.1742 -0.3402 -0.1366
12570TIP3   OH259200   2.656   6.717   1.647 -0.3055  0.4362 -0.0580
12570TIP3    H159201   2.603   6.776   1.593 -1.6753  2.5031  3.3819
12570TIP3    H259202   2.745   6.750   1.639 -0.7482  1.6928  0.2089
12571TIP3   OH259203   1.329   3.464  15.125 -0.2992  0.0398  0.2760
12571TIP3    H159204   1.264   3.533  15.138 -0.5143 -0.4364  1.8937
12571TIP3    H259205   1.279   3.389  15.094 -0.3299  0.0567  0.2857
12572TIP3   OH259206   4.556   5.247  12.762  0.0083 -0.1654  0.0159
12572TIP3    H159207   4.499   5.298  12.819 -0.7472 -1.3402  0.3240
12572TIP3    H259208   4.522   5.158  12.767  0.4961 -0.4535 -1.5552
12573TIP3   OH259209   4.072   1.369   1.678  0.0166  0.1002  0.3332
12573TIP3    H159210   3.995   1.384   1.623 -0.2621  0.2995  0.7702
12573TIP3    H259211   4.087   1.275   1.673 -0.1756  0.0792  0.1342
12574TIP3   OH259212   4.188   6.101   5.044 -0.0674 -0.0074 -0.1050
12574TIP3    H159213   4.156   6.066   4.960  0.0743 -0.1351 -0.1045
12574TIP3    H259214   4.122   6.074   5.108  0.0224 -0.2374 -0.1110
12575TIP3   OH259215   4.810   1.500  14.582 -0.3647 -0.2251 -0.1259
12575TIP3    H159216   4.905   1.497  14.574 -0.1902  2.9891  0.0311
12575TIP3    H259217   4.779   1.492  14.492  0.2323  1.9954 -0.5667
12576TIP3   OH259218   1.904   4.790  13.338  0.8372 -0.2193 -0.3555
12576TIP3    H159219   1.971   4.757  13.278  2.6637  0.9940  0.9403
12576TIP3    H259220   1.920   4.744  13.420  0.3476  0.3686  0.0726
12577TIP3   OH259221   0.867   1.598   3.620  0.0513 -0.4931 -0.4922
12577TIP3    H159222   0.791   1.580   3.565  1.1888  0.4149 -2.4086
12577TIP3    H259223   0.873   1.522   3.678 -1.4710 -1.2321 -1.2579
12578TIP3   OH259224   1.641   0.282  13.634 -0.2681 -0.4978 -0.1050
12578TIP3    H159225   1.699   0.255  13.563  0.2818  1.8765 -0.5929
12578TIP3    H259226   1.573   0.334  13.592 -2.8000 -3.1837  0.4725
12579TIP3   OH259227   1.135   3.600   4.468 -0.1324  0.2629 -0.6066
12579TIP3    H159228   1.178   3.685   4.458  0.7279 -0.2231 -1.1977
12579TIP3    H259229   1.102   3.579   4.380 -3.4831  1.5910  0.2566
12580TIP3   OH259230   5.894   0.296   0.116  0.6116  0.0670  0.7464
12580TIP3    H159231   5.958   0.344   0.168 -0.4351  0.6937  1.4805
12580TIP3    H259232   5.816   0.351   0.118 -0.9828 -2.1564  2.5019
12581TIP3   OH259233   4.573   2.437  11.256  0.2798  0.2763 -0.1107
12581TIP3    H159234   4.569   2.401  11.344 -1.1510  1.1931  0.2208
12581TIP3    H259235   4.618   2.371  11.204 -1.4639 -1.5652  0.6770
12582TIP3   OH259236   1.110   5.663  14.608  0.0686 -0.1670 -0.2605
12582TIP3    H159237   1.094   5.570  14.598  0.5342 -0.2106 -0.6290
12582TIP3    H259238   1.120   5.677  14.702 -0.0816 -0.4705 -0.2019
12583TIP3   OH259239   2.948   0.673   0.223 -0.3514 -0.2300  0.5490
12583TIP3    H159240   2.967   0.766   0.236  1.7127 -0.4286 -0.8495
12583TIP3    H259241   2.940   0.662   0.129 -3.1291 -1.0472  0.8133
12584TIP3   OH259242   1.899   5.308  15.147  0.1259  0.0093 -0.5564
12584TIP3    H159243   1.835   5.325  15.216  0.7297  0.5175 -0.1173
12584TIP3    H259244   1.847   5.301  15.067 -0.9443 -3.6852  0.3476
12585TIP3   OH259245   1.802   3.641  16.159 -0.5923  0.0369 -0.1758
12585TIP3    H159246   1.764   3.699  16.226  1.6157  0.2749  0.9024
12585TIP3    H259247   1.732   3.632  16.094 -1.3962  3.0316  0.1733
12586TIP3   OH259248   2.268   3.873   1.200  0.0201 -0.1213  0.1668
12586TIP3    H159249   2.290   3.838   1.286 -0.1691  0.0200  0.2732
12586TIP3    H259250   2.316   3.956   1.195  0.3102 -0.3002 -0.0050
12587TIP3   OH259251   5.065   5.704   6.246  0.5484  0.4240  0.0747
12587TIP3    H159252   5.072   5.626   6.191  0.9014  1.2323 -1.0427
12587TIP3    H259253   4.979   5.741   6.225  0.4830  0.4797  0.4263
12588TIP3   OH259254   0.420   1.348   4.989  0.3244 -0.4389  0.6506
12588TIP3    H159255   0.431   1.266   4.940  0.6206 -1.0507  1.7413
12588TIP3    H259256   0.326   1.367   4.981  0.0739 -1.3935  1.1976
12589TIP3   OH259257   1.497   4.753   0.938 -0.1620 -0.1276 -0.4948
12589TIP3    H159258   1.426   4.695   0.964 -0.8279  1.4864  1.3748
12589TIP3    H259259   1.473   4.839   0.973  1.6997  0.8891 -1.6074
12590TIP3   OH259260   5.932   4.136  13.695  0.0732 -0.1475 -0.1010
12590TIP3    H159261   5.889   4.195  13.756 -0.1624 -1.7538  1.3243
12590TIP3    H259262   5.880   4.142  13.614  0.2787  1.8429 -0.1063
12591TIP3   OH259263   3.467   0.502  16.328  0.3949  0.4339  0.4969
12591TIP3    H159264   3.562   0.512  16.327  0.3106  1.3372  1.1781
12591TIP3    H259265   3.433   0.589  16.306 -0.2938  0.6536  2.3392
12592TIP3   OH259266   6.434   4.373  12.707 -0.6723  0.1011 -0.4768
12592TIP3    H159267   6.496   4.369  12.780 -1.4429  0.4559  0.2078
12592TIP3    H259268   6.385   4.454  12.722 -1.2660 -0.1495 -1.0419
12593TIP3   OH259269   5.011   1.241   2.145  0.0748  0.2499  0.4722
12593TIP3    H159270   4.987   1.326   2.108 -0.9206 -0.0251  0.4810
12593TIP3    H259271   4.956   1.178   2.098 -0.1347 -0.2516  1.3977
12594TIP3   OH259272   1.943   6.660   4.436  0.0955 -0.1113 -0.0051
12594TIP3    H159273   1.947   6.654   4.532 -0.3205 -1.2827 -0.0546
12594TIP3    H259274   2.024   6.618   4.406 -0.1823 -0.4970 -0.2043
12595TIP3   OH259275   6.412   1.923  16.953 -0.4803  0.3098  0.3441
12595TIP3    H159276   6.471   1.974  16.898  0.0693  0.9574  1.5151
12595TIP3    H259277   6.423   1.833  16.922 -1.0184  0.7951 -1.3319
12596TIP3   OH259278   1.806   1.215  11.101 -0.4999  0.3116 -0.1864
12596TIP3    H159279   1.763   1.299  11.118  0.3285  0.5000  0.9736
12596TIP3    H259280   1.790   1.199  11.008 -2.3803  0.7766  0.0357
12597TIP3   OH259281   1.689   3.600  14.220 -0.0904  0.1335 -0.1350
12597TIP3    H159282   1.760   3.541  14.194  0.0854  0.5027 -0.5015
12597TIP3    H259283   1.644   3.620  14.138 -1.4325 -1.1433  0.2756
12598TIP3   OH259284   5.867   5.971  14.676  0.1365 -0.2985 -0.3016
12598TIP3    H159285   5.837   5.995  14.763  1.9885  0.7427  0.0696
12598TIP3    H259286   5.846   6.047  14.621 -1.5014 -1.1538 -0.9062
12599TIP3   OH259287   5.059   0.565  16.483 -0.3739 -0.4526 -0.4617
12599TIP3    H159288   5.038   0.480  16.446  1.9794 -1.3780  0.2461
12599TIP3    H259289   5.124   0.602  16.422 -1.7209  1.0773 -1.0270
12600TIP3   OH259290   6.100   3.155  16.485 -0.4409  0.8120  0.2931
12600TIP3    H159291   6.169   3.095  16.457  0.4314  1.3782  1.1975
12600TIP3    H259292   6.038   3.100  16.532 -0.9478  0.1871 -1.0845
12601TIP3   OH259293   0.893   3.683   5.055 -0.3142 -0.3374 -0.2261
12601TIP3    H159294   0.972   3.637   5.084  0.5543  0.9941 -0.4455
12601TIP3    H259295   0.844   3.700   5.136  1.6470  2.5275  0.4407
12602TIP3   OH259296   3.794   5.404   0.663 -0.0150 -0.2741  0.4409
12602TIP3    H159297   3.777   5.459   0.587 -2.1406 -0.4089  0.7795
12602TIP3    H259298   3.770   5.459   0.738 -0.1788 -0.9447  0.8819
12603TIP3   OH259299   6.657   4.388  11.789 -0.0801  0.0301 -0.6583
12603TIP3    H159300   6.729   4.387  11.726  0.4309  1.1917 -0.1019
12603TIP3    H259301   6.652   4.297  11.820 -0.5440 -0.6334 -2.5754
12604TIP3   OH259302   2.005   6.795  14.954  0.1311 -0.1318  0.1748
12604TIP3    H159303   2.031   6.822  14.866  0.9570  2.0003  1.0401
12604TIP3    H259304   2.077   6.822  15.010 -0.7514 -0.7169  1.6260
12605TIP3   OH259305   4.578   4.319   6.613 -0.0941 -0.6135  0.3081
12605TIP3    H159306   4.576   4.341   6.520  0.6217  0.1267  0.4636
12605TIP3    H259307   4.490   4.339   6.645  0.0963  0.5584  0.1109
12606TIP3   OH259308   2.057   6.592   2.349 -0.1397 -0.4471  0.4823
12606TIP3    H159309   2.066   6.503   2.383  0.0697 -0.1932  1.1080
12606TIP3    H259310   1.970   6.619   2.379  0.6086  0.2971  2.0849
12607TIP3   OH259311   0.487   0.615   5.779 -0.1050 -0.0472  0.0722
12607TIP3    H159312   0.487   0.616   5.875  2.1209 -0.9637  0.1124
12607TIP3    H259313   0.512   0.525   5.756 -0.6659  0.1552 -1.3732
12608TIP3   OH259314   3.756   1.247   3.448  0.0107  0.0991  0.0626
12608TIP3    H159315   3.688   1.180   3.460  0.0332 -0.1469 -1.1385
12608TIP3    H259316   3.748   1.273   3.357  3.0223 -1.5922 -0.7555
12609TIP3   OH259317   1.944   0.619  14.082  0.1408 -0.5554  0.0318
12609TIP3    H159318   1.991   0.571  14.151 -1.1178  0.4766  1.6596
12609TIP3    H259319   2.009   0.632  14.013  1.6515 -0.9580  1.3391
12610TIP3   OH259320   2.699   0.053   0.898 -0.1474  0.1557  0.0002
12610TIP3    H159321   2.759   0.062   0.972 -0.7684 -0.0746  0.5385
12610TIP3    H259322   2.643  -0.021   0.921 -1.0048  0.7189 -0.2285
12611TIP3   OH259323   2.020   5.529   5.792 -0.0434 -0.1917 -0.0322
12611TIP3    H159324   2.031   5.434   5.799 -1.0812 -0.2029  1.9259
12611TIP3    H259325   2.102   5.566   5.824 -0.2430 -0.4120  0.7339
12612TIP3   OH259326   4.355   6.468  12.472 -0.0508 -0.0198  0.5272
12612TIP3    H159327   4.262   6.480  12.452  0.4057 -0.2500 -1.8908
12612TIP3    H259328   4.399   6.535  12.420  1.2318 -0.9076  0.4580
12613TIP3   OH259329   1.342   4.383  11.646  0.2260 -0.5796  0.0274
12613TIP3    H159330   1.326   4.295  11.611 -0.0995 -0.8515  0.8535
12613TIP3    H259331   1.435   4.381  11.670  0.3161 -0.5679 -0.3072
12614TIP3   OH259332   3.648   4.207  12.305  0.7093 -0.0330 -0.5331
12614TIP3    H159333   3.660   4.175  12.215 -0.6538 -1.0236 -0.3889
12614TIP3    H259334   3.701   4.148  12.358  2.3355  1.1856 -0.7731
12615TIP3   OH259335   1.983   1.592   2.127 -0.2437 -0.2019  0.1702
12615TIP3    H159336   1.963   1.649   2.053 -0.3667 -0.0211  0.3415
12615TIP3    H259337   1.908   1.602   2.185  0.4909  0.7488  0.9851
12616TIP3   OH259338   4.316   3.126  13.401  0.3331  0.0542  0.5314
12616TIP3    H159339   4.395   3.101  13.354 -0.7792  0.2532 -1.5174
12616TIP3    H259340   4.315   3.222  13.398  0.7134  0.0977  1.7458
12617TIP3   OH259341   1.851   5.306  16.363  0.6708 -0.3778 -0.4325
12617TIP3    H159342   1.798   5.362  16.419 -1.0051 -1.3659 -0.9926
12617TIP3    H259343   1.919   5.363  16.328 -0.0781  0.9301  0.2367
12618TIP3   OH259344   0.320   6.064  16.464 -0.2382 -0.5111  0.2421
12618TIP3    H159345   0.325   6.152  16.426  1.3929 -0.8460 -0.3554
12618TIP3    H259346   0.301   6.079  16.557 -2.0885  0.3822 -0.2460
12619TIP3   OH259347   6.567   2.228   6.320  0.2763 -0.1471  0.6529
12619TIP3    H159348   6.494   2.288   6.305  2.3812  1.7958 -2.4819
12619TIP3    H259349   6.622   2.238   6.242  3.0707 -2.7198  2.2100
12620TIP3   OH259350   2.510   1.049   4.387 -0.2445 -0.3778 -0.1033
12620TIP3    H159351   2.536   1.122   4.443 -2.0587  0.8817 -0.8740
12620TIP3    H259352   2.577   1.045   4.319 -0.5098  1.0363 -0.4587
12621TIP3   OH259353   2.074   0.611  16.339 -0.4174  0.0148  0.5972
12621TIP3    H159354   2.137   0.607  16.267 -2.2274  0.0233 -1.0242
12621TIP3    H259355   2.095   0.535  16.393  2.0398  0.9440  1.0083
12622TIP3   OH259356   3.142   3.626  14.537 -0.2412 -0.3334 -0.1714
12622TIP3    H159357   3.111   3.591  14.620  0.3313 -1.8714 -0.5868
12622TIP3    H259358   3.174   3.550  14.489  1.1929  0.7834 -1.0385
12623TIP3   OH259359   4.063   3.196  15.404  0.2704 -0.3643 -0.2574
12623TIP3    H159360   4.051   3.143  15.325  0.7959  1.2974 -1.4755
12623TIP3    H259361   4.068   3.286  15.373  0.8085  0.3033  1.6458
12624TIP3   OH259362   2.704   1.494   5.240 -0.1139  0.0810 -0.8736
12624TIP3    H159363   2.645   1.492   5.315 -0.0888 -0.3091 -0.8616
12624TIP3    H259364   2.661   1.440   5.174  0.6298 -0.9380 -0.5557
12625TIP3   OH259365   5.031   6.091  13.851 -0.8958 -0.4299  0.2733
12625TIP3    H159366   4.974   6.146  13.798  0.0584 -0.6253 -0.9813
12625TIP3    H259367   5.037   6.009  13.803  1.6650  0.1126 -0.4338
12626TIP3   OH259368   1.226   1.245   3.130 -0.1706  0.0477  0.2953
12626TIP3    H159369   1.138   1.209   3.140  0.9243 -2.4365  1.4816
12626TIP3    H259370   1.232   1.312   3.199 -0.8052 -0.4597  0.8551
12627TIP3   OH259371   5.647   6.297   5.423  0.0236 -0.2095  0.1637
12627TIP3    H159372   5.567   6.348   5.409 -1.2699 -1.9978  0.8512
12627TIP3    H259373   5.627   6.241   5.498  1.4088 -1.7068 -0.5639
12628TIP3   OH259374   1.363   1.550  10.514 -0.0751  0.4345 -0.1748
12628TIP3    H159375   1.322   1.504  10.441 -0.6716  0.9255 -0.1450
12628TIP3    H259376   1.350   1.492  10.589  0.8688 -0.2473 -0.5223
12629TIP3   OH259377   1.463   5.014  14.320 -0.0898  0.0176 -0.6760
12629TIP3    H159378   1.507   5.094  14.291 -1.2897  0.3301 -1.6403
12629TIP3    H259379   1.370   5.031  14.307 -0.5434 -0.5565  1.5555
12630TIP3   OH259380   1.777   4.201  15.359  0.2168 -0.1744  0.2643
12630TIP3    H159381   1.776   4.285  15.405  0.7163 -0.3894  0.6710
12630TIP3    H259382   1.846   4.151  15.402 -1.5382 -1.6143  1.5425
12631TIP3   OH259383   2.197   5.959  12.840  0.7735  0.4564  0.5755
12631TIP3    H159384   2.115   6.004  12.860  0.6836  1.0076 -0.9865
12631TIP3    H259385   2.223   5.994  12.755  1.7780 -0.9257  0.3035
12632TIP3   OH259386   2.884   5.492   2.610 -0.4658  0.2934  0.6491
12632TIP3    H159387   2.958   5.546   2.582 -1.5372  1.6310  0.3229
12632TIP3    H259388   2.822   5.495   2.537 -0.6802 -1.1162  0.7664
12633TIP3   OH259389   2.874   6.540  15.555  0.2325 -0.3114 -0.0529
12633TIP3    H159390   2.874   6.618  15.498  1.7188 -0.2112  0.0574
12633TIP3    H259391   2.927   6.566  15.630 -0.2698 -1.0392  0.5524
12634TIP3   OH259392   6.291   5.177   4.848  0.4586  0.0135 -0.4311
12634TIP3    H159393   6.335   5.098   4.818 -0.3867 -0.6922  0.1599
12634TIP3    H259394   6.200   5.165   4.822 -0.1937 -0.3863  1.9288
12635TIP3   OH259395   4.796   1.314   0.556 -0.3157 -0.5406  0.0919
12635TIP3    H159396   4.825   1.384   0.498  0.6305 -1.4504 -0.5412
12635TIP3    H259397   4.837   1.334   0.640  0.4351 -0.6551 -0.2454
12636TIP3   OH259398   0.883   1.745   3.310 -0.5782 -0.0151 -0.4908
12636TIP3    H159399   0.877   1.787   3.396  1.1722  2.2535 -1.4068
12636TIP3    H259400   0.880   1.818   3.248  1.8460 -1.2895 -2.1939
12637TIP3   OH259401   1.982   5.140   1.765 -0.0485  0.3869 -0.6580
12637TIP3    H159402   2.060   5.161   1.817 -0.0072 -0.2062 -0.4740
12637TIP3    H259403   2.010   5.152   1.674  0.3108  0.0091 -0.6001
12638TIP3   OH259404   4.489   0.480  16.087  0.4889  0.3044  0.1337
12638TIP3    H159405   4.512   0.566  16.119  0.5797 -0.4158  2.0304
12638TIP3    H259406   4.443   0.497  16.004  1.4321  2.0889 -0.0396
12639TIP3   OH259407   2.846   3.248   3.130  0.4434 -0.1085  0.7108
12639TIP3    H159408   2.932   3.263   3.170  0.5800  0.0707  0.3558
12639TIP3    H259409   2.839   3.316   3.063  0.6910 -1.0623 -0.3036
12640TIP3   OH259410   6.223   0.575   1.251 -0.0545  0.0539  0.1583
12640TIP3    H159411   6.257   0.492   1.283 -0.3432 -0.0038  0.3186
12640TIP3    H259412   6.131   0.556   1.229  0.3037 -0.0832 -1.3144
12641TIP3   OH259413   3.387   6.358   2.563 -0.3688 -0.0293 -0.3143
12641TIP3    H159414   3.392   6.278   2.513  1.3611 -0.4786  0.5309
12641TIP3    H259415   3.308   6.349   2.616 -0.9272 -0.5642 -1.2504
12642TIP3   OH259416   6.074   5.098   0.926  0.5773 -0.0203  0.2585
12642TIP3    H159417   6.126   5.082   0.847 -0.1798 -0.7592 -0.1012
12642TIP3    H259418   5.986   5.118   0.893  0.5484  0.8749  0.8696
12643TIP3   OH259419   6.208   3.389  15.221  0.0193 -0.9185 -0.3317
12643TIP3    H159420   6.185   3.436  15.301 -1.4148 -2.5271  0.2384
12643TIP3    H259421   6.146   3.316  15.217 -0.1120 -0.7336 -3.0595
12644TIP3   OH259422   4.130   3.043   0.785 -0.2388 -0.7946  0.0233
12644TIP3    H159423   4.213   3.014   0.822  0.0845 -1.0841 -0.9327
12644TIP3    H259424   4.120   3.133   0.816  2.2971  0.6100 -2.9703
12645TIP3   OH259425   0.279   1.255   2.312 -0.6749  0.6974  0.5525
12645TIP3    H159426   0.292   1.180   2.370  0.7874  0.0322 -0.6210
12645TIP3    H259427   0.315   1.329   2.360  0.1813  0.2125  0.6701
12646TIP3   OH259428   1.925   0.471   2.718  0.1732 -0.2071  0.9055
12646TIP3    H159429   1.849   0.432   2.760 -1.7105  0.5470 -1.6890
12646TIP3    H259430   1.952   0.407   2.652  1.1629 -0.0130  1.1094
12647TIP3   OH259431   1.975   2.906  11.793 -0.0560  0.2827 -0.4734
12647TIP3    H159432   2.062   2.941  11.773  0.0332  1.4666  1.8427
12647TIP3    H259433   1.914   2.971  11.758 -0.0093 -0.3319 -1.7083
12648TIP3   OH259434   0.136   0.328  13.422  1.1075 -0.0761  0.2203
12648TIP3    H159435   0.166   0.380  13.496  1.7748  1.0204 -0.7913
12648TIP3    H259436   0.216   0.310  13.371  0.5218  0.0478 -0.7648
12649TIP3   OH259437   0.138   4.877  15.657 -0.0409 -0.2007  0.4742
12649TIP3    H159438   0.128   4.789  15.693 -2.9833  0.1395  0.6127
12649TIP3    H259439   0.159   4.932  15.733 -1.2383 -0.3083  0.8972
12650TIP3   OH259440   1.431   0.909  11.462 -0.1878 -0.2039 -0.3158
12650TIP3    H159441   1.428   1.003  11.481 -1.1800 -0.3129  0.0940
12650TIP3    H259442   1.340   0.880  11.469  0.2658 -1.4338  0.7581
12651TIP3   OH259443   4.433   1.865  14.456  0.0619  0.3380 -0.1817
12651TIP3    H159444   4.510   1.920  14.466  0.3194 -0.0614  0.0711
12651TIP3    H259445   4.437   1.834  14.365  0.7303 -0.4567  0.1129
12652TIP3   OH259446   5.900   1.733  13.685  0.1385  0.4126  0.3840
12652TIP3    H159447   5.948   1.743  13.602 -0.5652 -0.3745 -0.1246
12652TIP3    H259448   5.929   1.807  13.738  0.7967  0.7802 -0.4680
12653TIP3   OH259449   3.719   1.807   3.931  0.3514 -0.1116 -0.0522
12653TIP3    H159450   3.762   1.867   3.870 -1.2524  1.7196  0.5705
12653TIP3    H259451   3.627   1.832   3.928 -0.4828 -3.0739 -0.3303
12654TIP3   OH259452   1.942   3.929   2.370 -0.2168 -0.2123 -0.7713
12654TIP3    H159453   1.906   3.923   2.282  0.2113  1.5487 -1.0948
12654TIP3    H259454   1.978   4.018   2.375  1.5189 -0.9646  0.5083
12655TIP3   OH259455   3.808   6.423   1.682 -0.2065  0.1520  0.3767
12655TIP3    H159456   3.895   6.415   1.721  0.0824 -0.3180 -0.3515
12655TIP3    H259457   3.820   6.485   1.609 -0.7620  1.0996  1.0791
12656TIP3   OH259458   4.131   1.784  15.328 -0.2163  0.4987 -0.0778
12656TIP3    H159459   4.117   1.800  15.421 -0.9073 -2.7286  0.4257
12656TIP3    H259460   4.098   1.863  15.285 -0.0103  1.9803  2.3655
12657TIP3   OH259461   6.281   2.964   5.974  0.2908 -0.1362 -0.2790
12657TIP3    H159462   6.352   2.995   6.030 -0.2477 -1.1020  0.9618
12657TIP3    H259463   6.202   2.981   6.024 -0.2749 -0.1180 -1.1738
12658TIP3   OH259464   0.975   3.069  16.103  0.1972  0.1636 -0.7025
12658TIP3    H159465   0.954   3.089  16.194  0.1582 -1.0709 -0.4329
12658TIP3    H259466   1.061   3.110  16.088  2.0071 -2.7666  1.0388
12659TIP3   OH259467   6.083   0.315  11.730 -0.3411  0.2212 -0.0664
12659TIP3    H159468   6.156   0.378  11.730  1.0373 -1.3398 -0.3146
12659TIP3    H259469   6.068   0.297  11.637 -1.7584  1.3218 -0.0637
12660TIP3   OH259470   1.070   4.283   5.735  0.2474 -0.1540  0.1676
12660TIP3    H159471   1.030   4.198   5.716  1.1533 -0.5126 -0.1670
12660TIP3    H259472   1.132   4.296   5.664  0.3410  0.6412  0.3985
12661TIP3   OH259473   5.183   5.426   1.335 -0.1765  0.4124 -0.1432
12661TIP3    H159474   5.182   5.486   1.410  1.4597  1.3695 -0.8502
12661TIP3    H259475   5.123   5.466   1.273 -0.3661  0.4430  0.0605
12662TIP3   OH259476   1.177   4.878   1.152  0.2218 -0.4848  0.3787
12662TIP3    H159477   1.144   4.934   1.222  0.5517  0.9272 -0.5699
12662TIP3    H259478   1.113   4.887   1.081  1.1126 -0.0338 -0.3835
12663TIP3   OH259479   0.211   5.512  15.003 -0.1802  0.0527 -0.5802
12663TIP3    H159480   0.179   5.442  15.060  0.1536  0.5338  0.2167
12663TIP3    H259481   0.171   5.592  15.038 -0.2799  0.3095 -1.2640
12664TIP3   OH259482   5.843   0.083  13.577 -0.8095 -0.4093  0.1909
12664TIP3    H159483   5.897   0.031  13.519 -0.2870 -0.3827  0.6470
12664TIP3    H259484   5.894   0.163  13.593 -0.0431 -1.2592  2.2487
12665TIP3   OH259485   2.860   5.052   5.945 -0.4528  0.1758 -0.1606
12665TIP3    H159486   2.815   5.070   5.862 -1.2802  1.3710  0.5268
12665TIP3    H259487   2.855   5.134   5.993  0.4643 -0.3629  0.8751
12666TIP3   OH259488   5.257   0.621   3.687 -0.5847 -0.0860 -0.5339
12666TIP3    H159489   5.254   0.717   3.686 -1.1494 -0.0585  1.2598
12666TIP3    H259490   5.349   0.601   3.707 -0.1970  0.0456 -2.1246
12667TIP3   OH259491   5.135   4.904  14.047  0.3005 -0.7265 -0.6493
12667TIP3    H159492   5.045   4.873  14.035  0.0416 -0.0465 -0.4989
12667TIP3    H259493   5.126   4.997  14.067  1.0048 -0.7820 -0.0284
12668TIP3   OH259494   3.583   0.189  16.184  0.0498  0.0376  0.3453
12668TIP3    H159495   3.612   0.113  16.234  0.8935  0.0439 -0.1227
12668TIP3    H259496   3.590   0.263  16.244  2.1041  0.2255 -0.0902
12669TIP3   OH259497   2.304   3.552   3.690  0.4910 -0.4534  0.6320
12669TIP3    H159498   2.257   3.520   3.612 -0.4303  0.6185  0.7355
12669TIP3    H259499   2.381   3.495   3.696  0.2942 -0.9024 -0.7536
12670TIP3   OH259500   2.324   4.047  16.082 -0.2025  0.3206  0.1326
12670TIP3    H159501   2.352   4.029  16.172  0.3648  0.5603  0.0101
12670TIP3    H259502   2.374   3.984  16.029 -1.2799 -0.5016  0.0716
12671TIP3   OH259503   0.281   6.689   2.318  0.0575 -0.0398  0.4689
12671TIP3    H159504   0.325   6.755   2.264  0.7195  0.8174  2.0226
12671TIP3    H259505   0.192   6.686   2.284  0.5995  0.1012 -1.0121
12672TIP3   OH259506   2.965   5.955  12.633 -0.1139  0.4856 -0.2326
12672TIP3    H159507   3.001   5.875  12.670  0.5357  0.4350 -0.9571
12672TIP3    H259508   3.042   6.008  12.612 -0.5016  0.8071 -0.8360
12673TIP3   OH259509   6.472   4.567   0.651 -0.1370 -0.7352  0.1651
12673TIP3    H159510   6.400   4.530   0.601 -0.4655  0.0480  0.0494
12673TIP3    H259511   6.542   4.579   0.587 -0.1979 -0.7044  0.1043
12674TIP3   OH259512   6.144   6.642   1.411 -0.1816 -0.0469  0.4490
12674TIP3    H159513   6.230   6.649   1.371 -0.4060  1.3647  0.1969
12674TIP3    H259514   6.137   6.718   1.468 -0.6012 -1.0468  1.7640
12675TIP3   OH259515   6.619   0.064   3.021 -0.0370  0.1062  0.5069
12675TIP3    H159516   6.661  -0.021   3.013 -1.3081 -0.6984  2.0238
12675TIP3    H259517   6.528   0.044   3.041 -0.0761  1.8046  2.1856
12676TIP3   OH259518   6.703   4.851   3.675 -0.3380 -0.3198 -0.6032
12676TIP3    H159519   6.794   4.861   3.704 -0.6863  1.7659 -0.1435
12676TIP3    H259520   6.704   4.879   3.583 -0.3321 -1.2967 -0.9064
12677TIP3   OH259521   0.155   3.718   3.346 -0.9076  0.6487 -0.0038
12677TIP3    H159522   0.233   3.736   3.294  0.0161 -1.3607  0.6335
12677TIP3    H259523   0.093   3.785   3.320  0.8584  1.9783 -0.8993
12678TIP3   OH259524   3.673   6.118  12.531  1.0619 -0.4415 -0.1326
12678TIP3    H159525   3.662   6.162  12.447 -0.1660 -2.6219 -1.1600
12678TIP3    H259526   3.709   6.033  12.509  0.1170 -1.2924  1.4847
12679TIP3   OH259527   6.433   4.347  10.946 -0.0495 -0.2111 -0.2918
12679TIP3    H159528   6.375   4.362  11.020  1.4323 -0.4249  0.9283
12679TIP3    H259529   6.453   4.435  10.913 -2.0884 -0.1744 -1.5721
12680TIP3   OH259530   1.401   5.856   0.511 -0.1055 -0.6959  0.0297
12680TIP3    H159531   1.357   5.940   0.496  0.1680 -0.3635  1.0572
12680TIP3    H259532   1.339   5.790   0.478 -0.4692 -0.1179 -0.4534
12681TIP3   OH259533   3.468   6.299  14.415  0.0929 -0.2125  0.7932
12681TIP3    H159534   3.505   6.279  14.501  0.3647 -0.9049  0.5163
12681TIP3    H259535   3.517   6.244  14.354  0.6873  1.1452  0.0461
12682TIP3   OH259536   6.745   6.041  14.722 -0.2507 -0.9067 -0.3246
12682TIP3    H159537   6.720   6.124  14.681  2.7030 -0.7092 -1.8399
12682TIP3    H259538   6.800   6.066  14.796 -2.8908 -1.4087  1.8865
12683TIP3   OH259539   1.363   1.769  13.024  0.1523  0.2688  0.1613
12683TIP3    H159540   1.419   1.841  12.997 -1.5407  1.5749  0.0122
12683TIP3    H259541   1.301   1.758  12.952  1.0427 -2.0636 -0.2884
12684TIP3   OH259542   6.100   3.179   3.491  0.2239  0.0340 -0.2663
12684TIP3    H159543   6.038   3.238   3.533  0.1552  0.0963 -0.4549
12684TIP3    H259544   6.051   3.138   3.420  0.2969 -0.1835 -0.1937
12685TIP3   OH259545   3.631   1.146   1.969  0.1321  0.2076  0.2314
12685TIP3    H159546   3.694   1.075   1.966  0.3727  0.4670 -1.5453
12685TIP3    H259547   3.566   1.124   1.902  1.9966  3.2269 -2.7711
12686TIP3   OH259548   1.673   1.103   6.300 -0.5977  0.2339 -0.5018
12686TIP3    H159549   1.714   1.189   6.295 -1.7229  0.7530 -1.1891
12686TIP3    H259550   1.606   1.112   6.368 -1.2177  0.1363 -1.0875
12687TIP3   OH259551   0.074   3.584   4.177  0.5485  0.1355  0.2303
12687TIP3    H159552  -0.018   3.582   4.151  0.3430 -1.7282  1.0011
12687TIP3    H259553   0.090   3.674   4.203 -1.3157  0.2728  0.9803
12688TIP3   OH259554   3.295   0.625  15.956 -0.3804  0.5051  0.4072
12688TIP3    H159555   3.282   0.719  15.938  0.9460  0.7115  0.4818
12688TIP3    H259556   3.327   0.622  16.046  0.4987  0.0625  0.0880
12689TIP3   OH259557   0.865   4.363   2.877  0.2671  0.8536  0.0689
12689TIP3    H159558   0.835   4.452   2.854 -0.1735  1.1137  1.5528
12689TIP3    H259559   0.819   4.344   2.959  0.3463 -0.7640 -0.2634
12690TIP3   OH259560   2.224   3.996   0.900  0.0146  0.4987  0.1188
12690TIP3    H159561   2.213   3.920   0.842  1.3263  0.5317 -0.2055
12690TIP3    H259562   2.232   3.958   0.988  0.3051  0.2837  0.0006
12691TIP3   OH259563   5.050   3.122  12.264 -0.0988 -0.2343  0.4563
12691TIP3    H159564   4.984   3.190  12.281 -0.3372 -0.1211 -0.8694
12691TIP3    H259565   5.134   3.167  12.277 -0.2416  0.5510 -1.1923
12692TIP3   OH259566   1.902   1.801  16.431  0.3275 -0.0366 -0.3800
12692TIP3    H159567   1.995   1.790  16.449  0.0915 -0.0265  0.8890
12692TIP3    H259568   1.876   1.877  16.482 -0.7637 -1.1451  0.7566
12693TIP3   OH259569   2.373   6.721  15.369  0.2920 -0.6715 -0.2261
12693TIP3    H159570   2.297   6.698  15.315 -0.7032  0.2624  0.7472
12693TIP3    H259571   2.448   6.685  15.322 -0.6484 -0.6741 -1.7488
12694TIP3   OH259572   1.918   0.580   4.306 -0.7382 -0.1929 -0.3176
12694TIP3    H159573   1.993   0.550   4.358 -1.1066  0.2038  0.4388
12694TIP3    H259574   1.935   0.673   4.292 -0.6384 -0.2980 -0.9235
12695TIP3   OH259575   5.638   5.224   3.394 -0.4902  0.0851 -0.6350
12695TIP3    H159576   5.638   5.171   3.474  0.6726  0.3262 -0.4566
12695TIP3    H259577   5.642   5.315   3.425 -0.4821  0.1956 -0.9550
12696TIP3   OH259578   6.055   6.060  14.946 -0.0990  0.2637  0.2642
12696TIP3    H159579   5.976   6.108  14.973 -0.6526  0.8872 -2.3445
12696TIP3    H259580   6.039   5.970  14.975 -1.7007  0.4231 -0.0864
12697TIP3   OH259581   2.837   6.452   1.407 -0.1850  0.0672 -0.2047
12697TIP3    H159582   2.872   6.524   1.460  0.5830 -1.1162  0.9155
12697TIP3    H259583   2.843   6.375   1.464 -1.1235 -0.8684 -1.3441
12698TIP3   OH259584   0.125   3.626   3.812 -0.1221  0.4207  0.3926
12698TIP3    H159585   0.135   3.538   3.849 -1.0019 -0.3417 -1.1204
12698TIP3    H259586   0.187   3.680   3.860  0.0063 -0.9132  1.7480
12699TIP3   OH259587   4.005   0.665  11.642  0.0463  0.0274 -0.6408
12699TIP3    H159588   4.077   0.660  11.578  0.4521 -1.7761 -0.0733
12699TIP3    H259589   3.956   0.743  11.616 -0.2657 -1.0965 -3.6425
12700TIP3   OH259590   2.267   1.024   5.085  0.5924  0.1048  0.7426
12700TIP3    H159591   2.229   1.041   5.171  0.6258  0.8724  0.6049
12700TIP3    H259592   2.361   1.028   5.099  0.6099 -0.5365  0.8248
12701TIP3   OH259593   6.336   3.354  16.880 -0.5649 -0.1319  0.4352
12701TIP3    H159594   6.391   3.292  16.929 -1.4268  0.4998  2.2668
12701TIP3    H259595   6.397   3.398  16.820  0.6771 -0.4147  1.4555
12702TIP3   OH259596   6.581   4.876   1.967  0.2808  0.5118 -0.0459
12702TIP3    H159597   6.532   4.958   1.967  0.3671  0.5674 -1.2853
12702TIP3    H259598   6.663   4.897   2.012 -0.2533  0.7492  0.8448
12703TIP3   OH259599   6.782   6.546  13.587 -0.1822  0.2021  0.7775
12703TIP3    H159600   6.756   6.634  13.616  0.1913  0.1478  1.2968
12703TIP3    H259601   6.709   6.515  13.534  1.0061  2.0599 -2.0093
12704TIP3   OH259602   6.310   2.605  14.073 -0.0052 -0.0266 -0.2111
12704TIP3    H159603   6.383   2.546  14.057 -0.5041 -0.7822  0.2774
12704TIP3    H259604   6.264   2.567  14.147 -0.2560  1.0515  0.1985
12705TIP3   OH259605   3.977   0.298   3.315 -0.1425  0.3321 -0.4872
12705TIP3    H159606   3.959   0.267   3.226 -0.1554  0.2113 -0.4427
12705TIP3    H259607   4.069   0.326   3.313 -0.1029  0.1983 -0.4997
12706TIP3   OH259608   2.035   1.189  13.275  0.4746 -0.8803 -0.2759
12706TIP3    H159609   1.955   1.228  13.309  0.4149 -1.2569  0.0059
12706TIP3    H259610   2.044   1.106  13.321 -0.4113 -2.1132 -2.2425
12707TIP3   OH259611   3.989   2.228   0.490 -0.5123  0.3850  0.3933
12707TIP3    H159612   4.075   2.242   0.451 -0.9968  1.5775 -0.2701
12707TIP3    H259613   3.935   2.195   0.419 -1.0084  1.1311  0.4132
12708TIP3   OH259614   0.163   4.235   4.136  0.0981 -0.7734 -0.0795
12708TIP3    H159615   0.109   4.229   4.215 -1.7626  0.1666 -1.2406
12708TIP3    H259616   0.251   4.253   4.169 -0.9431  1.3188  1.7544
12709TIP3   OH259617   6.642   1.960  13.448 -0.4171  0.5249 -0.2159
12709TIP3    H159618   6.604   1.919  13.371 -0.4529 -0.7301  0.4678
12709TIP3    H259619   6.727   1.994  13.418 -0.0844 -0.6550 -0.6064
12710TIP3   OH259620   5.276   3.460   1.682  0.1690  0.9296  0.7548
12710TIP3    H159621   5.300   3.420   1.765 -1.2867  1.5209  1.4868
12710TIP3    H259622   5.352   3.447   1.625 -0.1629 -2.6349  1.0404
12711TIP3   OH259623   6.027   0.643   5.691 -0.0695 -0.2554 -0.3532
12711TIP3    H159624   5.956   0.580   5.703 -0.4834  0.2779 -0.0267
12711TIP3    H259625   6.086   0.628   5.765  0.0625 -0.5670 -0.5207
12712TIP3   OH259626   2.204   2.693  15.255  0.5615 -0.2396 -0.1019
12712TIP3    H159627   2.266   2.736  15.314  0.2234  0.1236 -0.0030
12712TIP3    H259628   2.175   2.615  15.303 -1.0585  0.9922  0.9940
12713TIP3   OH259629   2.075   1.866   5.186  0.0131  0.3046  0.0289
12713TIP3    H159630   1.992   1.844   5.227  0.4453 -0.7399  0.3483
12713TIP3    H259631   2.123   1.914   5.254  1.3237 -2.7056  1.3298
12714TIP3   OH259632   5.608   4.636  11.591  0.1165  0.5688 -0.5005
12714TIP3    H159633   5.673   4.675  11.650  0.0734 -0.8043  0.4601
12714TIP3    H259634   5.549   4.708  11.570 -0.2097  0.9415  1.5897
12715TIP3   OH259635   1.522   3.088  15.352  0.1041 -0.0991 -0.5031
12715TIP3    H159636   1.605   3.099  15.399 -0.7228 -1.7382  1.4276
12715TIP3    H259637   1.455   3.111  15.416 -1.1019 -3.5697 -0.3941
12716TIP3   OH259638   4.253   3.370   6.398  0.0495  0.5916 -0.2850
12716TIP3    H159639   4.324   3.338   6.454 -2.0775  1.2417  2.8663
12716TIP3    H259640   4.179   3.313   6.417 -0.8231  1.0075 -2.2766
12717TIP3   OH259641   5.981   2.040  10.698 -0.3495 -0.3243  0.1414
12717TIP3    H159642   5.977   2.053  10.603  0.8621  1.3691  0.2962
12717TIP3    H259643   5.890   2.041  10.726 -0.6587  0.6801 -0.8385
12718TIP3   OH259644   1.660   3.031   4.851 -0.0187  0.0342  0.2606
12718TIP3    H159645   1.657   2.942   4.817 -0.7651  0.2670 -0.3004
12718TIP3    H259646   1.684   3.021   4.943  0.1527 -0.7238  0.1371
12719TIP3   OH259647   3.861   6.166   3.380  0.2452 -0.0142 -0.3657
12719TIP3    H159648   3.883   6.128   3.296  1.0223 -2.2414  0.8072
12719TIP3    H259649   3.912   6.116   3.444 -2.3294 -0.1654  1.6797
12720TIP3   OH259650   2.464   0.357   3.143 -0.4474 -0.4427 -0.3767
12720TIP3    H159651   2.381   0.388   3.179 -0.2653  1.1191 -1.2540
12720TIP3    H259652   2.521   0.344   3.220 -0.8495  0.4392  0.0687
12721TIP3   OH259653   3.487   1.388   3.815 -0.2290  1.0207  0.0023
12721TIP3    H159654   3.429   1.335   3.762  0.2803  0.6352 -0.1735
12721TIP3    H259655   3.567   1.397   3.762  0.6784 -0.2415  1.1144
12722TIP3   OH259656   2.919   4.776  17.288 -0.0282 -0.0726 -0.0941
12722TIP3    H159657   3.003   4.820  17.278 -0.5297  0.7748 -0.5702
12722TIP3    H259658   2.943   4.684  17.305  1.0103  0.3864  1.0361
12723TIP3   OH259659   2.078   0.826  13.509 -0.0581  0.0850 -0.0280
12723TIP3    H159660   2.026   0.874  13.573 -0.8342 -2.8767  1.6487
12723TIP3    H259661   2.167   0.862  13.518 -0.5896  1.0974  1.2711
12724TIP3   OH259662   2.946   4.915  11.444  0.4067 -0.2139  0.0208
12724TIP3    H159663   3.023   4.899  11.499 -0.1896 -1.5616  0.4670
12724TIP3    H259664   2.948   5.010  11.428  0.8423  0.1167  1.9438
12725TIP3   OH259665   2.430   6.718  11.424  0.3452 -0.0560 -0.3574
12725TIP3    H159666   2.441   6.690  11.515 -1.6424 -0.6117 -0.2637
12725TIP3    H259667   2.513   6.694  11.382  1.9872  1.7952  1.6641
12726TIP3   OH259668   3.784   5.700  14.755  0.0518  0.2642 -0.3835
12726TIP3    H159669   3.714   5.674  14.815  0.2939  0.1954 -0.1292
12726TIP3    H259670   3.766   5.652  14.675  0.0891 -0.1445 -0.1504
12727TIP3   OH259671   4.726   1.291   0.181 -0.3104 -0.4345 -0.5355
12727TIP3    H159672   4.638   1.274   0.216 -0.7790 -0.1082 -1.5503
12727TIP3    H259673   4.780   1.222   0.220 -1.2749 -1.4248 -0.9136
12728TIP3   OH259674   2.370   5.552   1.723  0.6235  0.2049  0.1738
12728TIP3    H159675   2.284   5.511   1.726  0.4312  0.5876 -0.0417
12728TIP3    H259676   2.399   5.553   1.814  0.0039  0.8978  0.3734
12729TIP3   OH259677   2.724   5.151   1.501  0.6635 -0.1518 -0.3988
12729TIP3    H159678   2.663   5.222   1.517  0.1037 -0.7290  0.0607
12729TIP3    H259679   2.808   5.183   1.535  0.1892 -0.1070  0.7319
12730TIP3   OH259680   3.774   5.731   2.437 -0.3300 -0.4128  0.4187
12730TIP3    H159681   3.729   5.792   2.496 -1.0874 -0.6324  0.0846
12730TIP3    H259682   3.767   5.772   2.351  2.2163  0.7150  0.7005
12731TIP3   OH259683   4.964   4.199  14.232 -0.4026  0.2216 -0.2737
12731TIP3    H159684   4.919   4.258  14.292 -1.3674 -1.3560  0.6050
12731TIP3    H259685   4.905   4.192  14.157 -0.1687  0.5703 -0.4899
12732TIP3   OH259686   4.523   2.233  14.609  0.2468  0.1082  0.3258
12732TIP3    H159687   4.457   2.291  14.647 -0.4471 -0.3839 -0.1123
12732TIP3    H259688   4.502   2.146  14.644  0.4173 -0.1163 -0.1246
12733TIP3   OH259689   2.314   2.068   0.144 -0.0380  0.1505  0.0284
12733TIP3    H159690   2.342   1.977   0.133 -1.6400 -0.4404  0.6283
12733TIP3    H259691   2.371   2.103   0.211 -0.4357 -0.9064  0.9431
12734TIP3   OH259692   6.497   4.106   2.371 -0.1654 -0.5323  0.3101
12734TIP3    H159693   6.578   4.076   2.329  0.4514 -0.3103  1.3307
12734TIP3    H259694   6.513   4.198   2.391 -0.2002 -0.8036  1.6394
12735TIP3   OH259695   4.574   3.276   2.913  0.1688  0.2241  0.4485
12735TIP3    H159696   4.501   3.284   2.852  0.3776  1.3652  0.3406
12735TIP3    H259697   4.538   3.226   2.987 -0.1599 -0.9065 -0.4662
12736TIP3   OH259698   0.653   5.812  11.835 -0.3107 -0.2229  0.0323
12736TIP3    H159699   0.748   5.811  11.846 -0.4548  0.0474  1.3735
12736TIP3    H259700   0.635   5.892  11.786  0.2236 -0.6971 -0.9413
12737TIP3   OH259701   6.747   6.492  16.777 -0.1064  0.1804 -0.0062
12737TIP3    H159702   6.724   6.439  16.702 -0.6815  0.7302 -0.2236
12737TIP3    H259703   6.792   6.432  16.837  2.3041  0.2436 -1.7181
12738TIP3   OH259704   4.472   6.049   2.794 -0.6496 -0.0619 -0.2833
12738TIP3    H159705   4.522   6.070   2.874  0.1499 -0.8531 -0.5689
12738TIP3    H259706   4.408   6.120   2.787 -0.2665  0.3949  0.6801
12739TIP3   OH259707   2.803   3.664  16.477  0.1504  0.5862 -0.4584
12739TIP3    H159708   2.763   3.577  16.480  0.5510  0.4211  0.2976
12739TIP3    H259709   2.870   3.662  16.545 -1.2470  2.1942  1.0233
12740TIP3   OH259710   0.381   5.338  15.493 -0.8144 -0.0810 -0.1965
12740TIP3    H159711   0.295   5.330  15.452 -0.1973  1.7301 -1.8930
12740TIP3    H259712   0.412   5.424  15.468  2.0590 -1.2054 -0.7109
12741TIP3   OH259713   3.925   5.918  11.183 -1.0703 -0.0538 -0.3484
12741TIP3    H159714   3.881   6.000  11.203  1.7057  1.2922  0.5034
12741TIP3    H259715   3.995   5.912  11.248  0.9716 -1.3281 -2.5784
12742TIP3   OH259716   2.526   4.056  13.374 -0.0816 -0.5283  0.6549
12742TIP3    H159717   2.526   4.139  13.327 -2.2612 -1.5262 -1.1965
12742TIP3    H259718   2.586   4.000  13.325 -0.6987 -0.8851  0.2964
12743TIP3   OH259719   3.012   0.205  16.168 -0.2588  0.4757 -1.1099
12743TIP3    H159720   3.103   0.180  16.155  0.8034  2.5619  1.8088
12743TIP3    H259721   2.972   0.197  16.081  2.3007 -1.9295 -2.1316
12744TIP3   OH259722   1.566   5.408  11.559 -0.4758  0.5757  0.1823
12744TIP3    H159723   1.627   5.480  11.539 -0.5248  0.8840  1.1277
12744TIP3    H259724   1.620   5.343  11.604 -0.7851  0.7372  0.7901
12745TIP3   OH259725   1.764   1.569   4.683 -0.2906  0.1134 -0.3235
12745TIP3    H159726   1.832   1.537   4.623 -0.7841 -1.0174 -0.2933
12745TIP3    H259727   1.697   1.501   4.681 -0.5461  0.3165  1.1208
12746TIP3   OH259728   0.527   2.059  10.790 -0.2781  0.3578  0.2698
12746TIP3    H159729   0.518   2.027  10.700 -0.9608  0.8261  0.1700
12746TIP3    H259730   0.480   1.995  10.843 -2.3653  1.6043 -0.0167
12747TIP3   OH259731   1.429   3.868  13.791 -0.2586  0.1076  0.5045
12747TIP3    H159732   1.443   3.848  13.699 -2.6278  2.2298 -0.4041
12747TIP3    H259733   1.362   3.805  13.819 -1.6407  1.2971 -0.0546
12748TIP3   OH259734   4.847   0.013  12.337  0.0553  0.0326  0.3197
12748TIP3    H159735   4.874  -0.070  12.375  0.2201 -0.6966 -1.3598
12748TIP3    H259736   4.919   0.073  12.357  0.5913 -0.5943  0.2879
12749TIP3   OH259737   2.357   2.297   2.393 -0.3607 -0.1529 -0.1772
12749TIP3    H159738   2.378   2.230   2.458  1.0442 -0.1927 -0.6471
12749TIP3    H259739   2.270   2.274   2.361 -0.6072 -0.7502  0.9242
12750TIP3   OH259740   1.403   4.961  13.033  0.4889 -0.4394  0.2200
12750TIP3    H159741   1.486   4.963  12.985  0.6086  1.3396  0.4917
12750TIP3    H259742   1.362   5.045  13.015 -0.5286 -0.6723  1.3793
12751TIP3   OH259743   6.278   6.658   3.999 -0.1291 -0.4409  0.2533
12751TIP3    H159744   6.296   6.595   4.069 -0.1467  0.1076  0.7497
12751TIP3    H259745   6.365   6.681   3.965 -0.1422 -1.0239 -0.1919
12752TIP3   OH259746   2.073   5.932   4.090 -0.4611  0.0809 -0.1215
12752TIP3    H159747   2.002   5.990   4.067 -2.0933 -1.9228 -0.2997
12752TIP3    H259748   2.075   5.933   4.186 -1.3773 -0.6114 -0.0937
12753TIP3   OH259749   6.674   0.339   0.576  0.0543 -0.3709 -0.4229
12753TIP3    H159750   6.700   0.318   0.486  0.9620 -0.2972 -0.1746
12753TIP3    H259751   6.748   0.387   0.613 -1.6268  2.4977 -0.6659
12754TIP3   OH259752   6.576   3.559  13.562 -0.2538 -0.0782  0.0428
12754TIP3    H159753   6.578   3.622  13.635  0.0548 -1.1940  1.0220
12754TIP3    H259754   6.632   3.598  13.495  2.5409 -0.7448  1.8911
12755TIP3   OH259755   4.226   4.303  15.839 -0.2402 -0.4290  0.1338
12755TIP3    H159756   4.242   4.318  15.932  1.4843  0.6974 -0.3197
12755TIP3    H259757   4.131   4.292  15.833 -0.1987 -2.2862  2.2578
12756TIP3   OH259758   6.579   1.764  11.708  0.2050 -0.0152 -0.3025
12756TIP3    H159759   6.504   1.811  11.745  0.9076 -0.0989  1.2842
12756TIP3    H259760   6.586   1.797  11.618 -2.1384 -0.5229 -0.6947
12757TIP3   OH259761   3.254   0.593   1.730 -0.0415 -0.2434  0.5150
12757TIP3    H159762   3.341   0.611   1.768 -0.9589  1.0129  2.0642
12757TIP3    H259763   3.233   0.505   1.762  0.9901 -0.8940 -0.5317
12758TIP3   OH259764   6.510   0.841   5.882  0.1227  0.5558  0.3097
12758TIP3    H159765   6.531   0.932   5.904  0.5446  0.9942 -1.7503
12758TIP3    H259766   6.442   0.848   5.815  1.6762 -0.5574 -1.4495
12759TIP3   OH259767   0.068   1.932  11.935  0.7243  0.0162  0.0664
12759TIP3    H159768   0.049   1.840  11.914 -1.8943  0.9911 -2.0327
12759TIP3    H259769  -0.017   1.971  11.950  1.6485  2.6296 -1.2270
12760TIP3   OH259770   3.687   1.752  15.330  0.2878  0.7398 -0.1165
12760TIP3    H159771   3.672   1.698  15.252 -0.1448 -2.8010  2.2722
12760TIP3    H259772   3.753   1.704  15.380  0.1722  2.6389  1.9208
12761TIP3   OH259773   6.580   6.166   2.122  0.6724  0.5201 -0.3679
12761TIP3    H159774   6.513   6.234   2.119  1.0824  1.0835  1.9907
12761TIP3    H259775   6.649   6.197   2.063  1.0976  2.4587  1.1085
12762TIP3   OH259776   5.810   1.582   2.458  0.1288 -0.0671  0.6855
12762TIP3    H159777   5.878   1.648   2.458  0.6801 -0.6302  0.1773
12762TIP3    H259778   5.855   1.500   2.480  0.0442 -0.8493 -1.8037
12763TIP3   OH259779   1.344   4.657   1.160 -0.4569  0.7957  0.2560
12763TIP3    H159780   1.392   4.665   1.242  1.9370 -0.2029 -0.9863
12763TIP3    H259781   1.293   4.738   1.153  2.9791  3.0551  0.4571
12764TIP3   OH259782   1.978   5.778  10.992 -0.3679  0.4973 -0.0210
12764TIP3    H159783   1.981   5.688  10.960 -0.4256  0.0517  1.2034
12764TIP3    H259784   1.918   5.775  11.066 -1.2781  1.7799 -0.6938
12765TIP3   OH259785   0.168   5.931   1.245  0.1906 -0.3809  0.8121
12765TIP3    H159786   0.178   6.007   1.304  0.9322 -0.9712  1.4631
12765TIP3    H259787   0.137   5.969   1.163 -0.5740  0.4998  1.4871
12766TIP3   OH259788   2.433   4.602   3.420 -0.4485 -0.0469  0.2619
12766TIP3    H159789   2.452   4.607   3.514  0.0958  2.3022  0.0480
12766TIP3    H259790   2.518   4.614   3.378 -1.1742  2.5089 -0.5682
12767TIP3   OH259791   4.328   2.224   3.740 -0.5685 -0.1714 -0.4838
12767TIP3    H159792   4.308   2.318   3.738 -0.9673 -0.2542 -0.3088
12767TIP3    H259793   4.295   2.194   3.824  3.9717  0.4969  1.6682
12768TIP3   OH259794   5.241   0.027  12.260  0.1252  0.3855  0.6768
12768TIP3    H159795   5.227   0.118  12.286 -0.4415 -0.0987  2.1266
12768TIP3    H259796   5.283  -0.013  12.336  0.7344 -0.4769 -0.1026
12769TIP3   OH259797   3.136   5.883  16.865  0.2595 -0.0928 -0.2820
12769TIP3    H159798   3.165   5.967  16.829  0.7922 -0.1125  0.1008
12769TIP3    H259799   3.051   5.903  16.906  0.2147  0.1790 -0.5076
12770TIP3   OH259800   1.128   2.867   3.357 -0.0219  0.0997  0.1130
12770TIP3    H159801   1.169   2.914   3.284 -0.6939 -1.7173 -1.4806
12770TIP3    H259802   1.112   2.779   3.323 -1.5230 -0.4138  2.0427
12771TIP3   OH259803   4.077   4.924  16.704  0.1995 -0.1051  0.0007
12771TIP3    H159804   4.022   4.922  16.782 -0.5096 -1.5237 -0.5178
12771TIP3    H259805   4.155   4.875  16.729  0.1602 -0.1908 -0.0487
12772TIP3   OH259806   4.793   4.832  10.446  0.4898  0.0897 -0.2367
12772TIP3    H159807   4.832   4.919  10.459  1.9224 -0.4019 -1.1631
12772TIP3    H259808   4.827   4.803  10.362 -2.1769 -0.2331 -1.2531
12773TIP3   OH259809   3.468   2.701   5.149 -0.2436  0.2617  0.2054
12773TIP3    H159810   3.457   2.755   5.227 -3.1618 -0.3728  0.2792
12773TIP3    H259811   3.492   2.615   5.183  0.0716  0.3849  0.2994
12774TIP3   OH259812   2.298   2.795   1.280 -0.1114  0.3284 -0.6655
12774TIP3    H159813   2.346   2.876   1.262  1.0646  0.0728  1.2188
12774TIP3    H259814   2.365   2.727   1.279 -0.4403 -0.0685  1.7685
12775TIP3   OH259815   6.704   0.186   7.014  0.3454 -0.3370 -0.0712
12775TIP3    H159816   6.779   0.238   7.041 -0.4147 -0.0191  1.4877
12775TIP3    H259817   6.720   0.099   7.051  0.4046 -0.5343 -0.5534
12776TIP3   OH259818   2.251   6.187  15.770  0.3699  0.2746  0.2228
12776TIP3    H159819   2.192   6.250  15.729  0.0332  0.9624  1.7232
12776TIP3    H259820   2.238   6.200  15.864  2.8269  0.3341  0.5864
12777TIP3   OH259821   4.954   6.737  14.203 -0.0405 -0.3374  0.1454
12777TIP3    H159822   4.918   6.757  14.289  1.3400 -1.1513  0.9340
12777TIP3    H259823   5.013   6.663  14.219  0.5350 -0.2297 -1.4322
12778TIP3   OH259824   2.639   5.799  14.381  0.5989  0.1804 -0.1425
12778TIP3    H159825   2.673   5.885  14.359  0.4667 -0.0506 -1.2764
12778TIP3    H259826   2.561   5.817  14.434 -1.1983  0.8328 -2.9091
12779TIP3   OH259827   4.869   5.954  15.265  0.7899 -0.4023 -0.1928
12779TIP3    H159828   4.814   5.879  15.288  0.2818  0.2985  0.9607
12779TIP3    H259829   4.877   5.951  15.170 -0.9674 -0.7207 -0.3372
12780TIP3   OH259830   5.398   3.791  15.812  0.5985  0.0235  0.7496
12780TIP3    H159831   5.407   3.728  15.740 -1.0693  0.4063  0.2038
12780TIP3    H259832   5.334   3.854  15.781  0.5168  0.6855  2.2443
12781TIP3   OH259833   1.841   5.461   0.327  0.4304  0.1544 -0.3656
12781TIP3    H159834   1.762   5.446   0.378  0.4799 -0.7638 -0.5546
12781TIP3    H259835   1.871   5.374   0.302  0.6754  0.5731 -1.5609
12782TIP3   OH259836   6.261   2.891  12.944  0.6535 -0.2282  0.4072
12782TIP3    H159837   6.351   2.863  12.928  0.8196  0.5200 -0.0230
12782TIP3    H259838   6.267   2.987  12.949 -0.3403 -0.0539 -1.2094
12783TIP3   OH259839   1.341   6.793  12.246 -0.3334 -1.0550 -0.0990
12783TIP3    H159840   1.353   6.715  12.192  0.7076 -1.0243  0.0681
12783TIP3    H259841   1.427   6.809  12.285 -0.5647  0.1019 -0.0260
12784TIP3   OH259842   3.835   0.140  15.351 -0.3600 -0.1658  0.0254
12784TIP3    H159843   3.744   0.118  15.336 -0.6786 -0.5659  2.2919
12784TIP3    H259844   3.865   0.076  15.416  0.6851  1.7388  1.4921
12785TIP3   OH259845   4.158   0.823  15.388 -0.1972  0.1693 -0.3520
12785TIP3    H159846   4.179   0.840  15.296 -1.9337  1.7733 -0.4829
12785TIP3    H259847   4.229   0.865  15.437  0.3341 -0.0450 -0.9321
12786TIP3   OH259848   4.722   5.160   1.847  0.2008  0.4920 -1.2269
12786TIP3    H159849   4.752   5.148   1.937 -0.6026  1.2426 -0.8419
12786TIP3    H259850   4.729   5.073   1.807 -0.5090 -0.0996 -0.0975
12787TIP3   OH259851   1.891   2.489   3.763 -0.0780  0.6020  0.5692
12787TIP3    H159852   1.801   2.522   3.756 -0.0011  0.5095 -1.0802
12787TIP3    H259853   1.896   2.449   3.849 -1.4094  1.2556  0.9549
12788TIP3   OH259854   5.302   2.116   4.914  0.2789 -0.5276  0.2985
12788TIP3    H159855   5.373   2.170   4.878 -1.0246  1.2726  0.3464
12788TIP3    H259856   5.331   2.095   5.003  0.5630  0.5575  0.4711
12789TIP3   OH259857   3.805   6.682  13.417 -0.2591  0.4186  0.1174
12789TIP3    H159858   3.824   6.737  13.493 -1.3454 -2.6112  2.7486
12789TIP3    H259859   3.890   6.665  13.377  0.5252  0.8998  1.5566
12790TIP3   OH259860   5.912   0.720  12.008  1.0023  0.3585  0.1518
12790TIP3    H159861   5.829   0.701  12.051 -0.2186  0.4147 -2.1173
12790TIP3    H259862   5.934   0.641  11.960  2.2968  0.3385  0.7392
12791TIP3   OH259863   0.759   1.196  12.687  0.0258  0.0204  0.2578
12791TIP3    H159864   0.707   1.251  12.746 -1.7080 -1.1030 -0.1935
12791TIP3    H259865   0.783   1.120  12.740 -1.2902 -0.8516 -0.3806
12792TIP3   OH259866   0.496   3.818   4.270 -0.2700  0.7893  0.7298
12792TIP3    H159867   0.532   3.799   4.357 -1.4607  3.1015  1.7860
12792TIP3    H259868   0.401   3.811   4.282 -0.4869  2.0565 -0.1137
12793TIP3   OH259869   3.085   0.886  17.073  0.2578  0.7463  0.6543
12793TIP3    H159870   3.143   0.840  17.134  0.7621  0.9760  0.3433
12793TIP3    H259871   3.092   0.838  16.991 -4.0224 -2.4886  1.9742
12794TIP3   OH259872   2.046   1.276  11.853 -0.2032  0.1613  0.0996
12794TIP3    H159873   2.090   1.248  11.772  0.8225  1.8739  0.0417
12794TIP3    H259874   1.953   1.259  11.837 -0.0301  0.6495 -1.5261
12795TIP3   OH259875   1.638   1.459  11.396 -0.5643  0.3531  0.4400
12795TIP3    H159876   1.731   1.444  11.379 -0.5007 -0.3380  1.3261
12795TIP3    H259877   1.608   1.514  11.324  0.0721 -1.0601 -0.9211
12796TIP3   OH259878   3.824   3.115   3.234 -0.3652  0.4115 -0.3371
12796TIP3    H159879   3.899   3.143   3.288 -0.2526  0.1226 -0.3443
12796TIP3    H259880   3.812   3.023   3.256 -0.7174  0.4567 -0.3398
12797TIP3   OH259881   5.195   4.045  16.132  0.3608 -0.2803  0.2027
12797TIP3    H159882   5.210   4.047  16.037 -1.5001  0.1647 -0.0971
12797TIP3    H259883   5.256   3.978  16.164  0.3894 -1.0660 -1.4305
12798TIP3   OH259884   0.826   1.871   6.124  0.1562 -0.1696  0.8576
12798TIP3    H159885   0.782   1.818   6.057 -0.3831 -0.9172  1.7919
12798TIP3    H259886   0.754   1.916   6.169  0.5695  0.8783  0.4836
12799TIP3   OH259887   4.330   4.860   0.611 -0.5343 -0.6838  0.1458
12799TIP3    H159888   4.389   4.815   0.551 -1.1027 -1.4399  0.1489
12799TIP3    H259889   4.319   4.948   0.573  2.5822  0.3302  1.4901
12800TIP3   OH259890   4.507   2.629   0.716  0.1781  0.2380 -0.3242
12800TIP3    H159891   4.598   2.614   0.694 -0.3094 -0.2004 -2.0480
12800TIP3    H259892   4.465   2.655   0.634 -1.4157 -0.3258  0.2824
12801TIP3   OH259893   0.480   5.268  12.541  0.0400  0.3987  0.2813
12801TIP3    H159894   0.389   5.276  12.571 -0.0245 -2.6228  1.0466
12801TIP3    H259895   0.479   5.304  12.452 -1.4677  2.1768  0.9843
12802TIP3   OH259896   0.090   6.670  11.492 -0.1585 -0.3933 -0.4446
12802TIP3    H159897   0.065   6.616  11.416 -1.3617 -1.1232  0.4511
12802TIP3    H259898   0.007   6.706  11.523  0.2958 -0.3561  0.7266
12803TIP3   OH259899   3.694   6.311   6.788 -0.0031  0.2290 -0.6425
12803TIP3    H159900   3.759   6.380   6.773  0.7484 -0.3858 -0.2553
12803TIP3    H259901   3.641   6.343   6.861  0.1934  0.5065 -0.6223
12804TIP3   OH259902   5.646   4.879   2.502  0.0519  0.8867 -0.3858
12804TIP3    H159903   5.616   4.925   2.580  0.5138  1.2054 -0.3928
12804TIP3    H259904   5.712   4.817   2.535 -0.1995  0.5904 -0.4420
12805TIP3   OH259905   5.419   3.488  15.146  0.0414 -0.0372 -0.3057
12805TIP3    H159906   5.390   3.515  15.233 -1.7821  1.6740 -1.4172
12805TIP3    H259907   5.470   3.561  15.114  0.4248 -0.5278 -0.8119
12806TIP3   OH259908   2.964   4.721   3.574 -0.1076  0.1899 -0.0030
12806TIP3    H159909   2.929   4.637   3.544  0.3046  0.4680 -1.3157
12806TIP3    H259910   2.890   4.781   3.568 -0.4778 -0.1397  1.2129
12807TIP3   OH259911   1.924   6.720  16.338 -0.3739  0.0847  0.0960
12807TIP3    H159912   1.932   6.625  16.342  0.9010  0.1697 -0.3745
12807TIP3    H259913   1.839   6.738  16.378 -0.8659 -1.2863 -0.3007
12808TIP3   OH259914   3.972   1.076  15.670  0.3874  0.3556 -0.3617
12808TIP3    H159915   4.045   1.016  15.690  0.3581  0.8727  1.3643
12808TIP3    H259916   4.015   1.155  15.636  0.5857  0.3690 -0.0813
12809TIP3   OH259917   2.486   1.778  11.143  0.3776 -0.3224 -0.2728
12809TIP3    H159918   2.543   1.836  11.194 -1.0973  0.7923  0.1262
12809TIP3    H259919   2.508   1.795  11.052  1.2404 -0.4817 -0.0978
12810TIP3   OH259920   3.488   2.909   2.694 -0.0585  0.7104  0.2088
12810TIP3    H159921   3.436   2.978   2.651  0.9662  1.6422  0.4608
12810TIP3    H259922   3.560   2.892   2.633  1.2871  1.8875  1.4626
12811TIP3   OH259923   1.384   2.704   0.661 -0.1486 -0.3580 -0.1351
12811TIP3    H159924   1.382   2.792   0.699 -0.5076 -1.0410  1.4754
12811TIP3    H259925   1.477   2.685   0.648 -0.0239 -0.1091  0.3925
12812TIP3   OH259926   2.520   2.838  14.154  0.0541  0.1073 -0.6108
12812TIP3    H159927   2.457   2.773  14.184 -0.5541  0.5727 -0.8610
12812TIP3    H259928   2.477   2.880  14.079  0.3414  0.9604 -0.3021
12813TIP3   OH259929   5.384   5.726   5.191  0.4610 -0.7563 -0.1787
12813TIP3    H159930   5.388   5.785   5.266  1.0192 -1.4418  0.3343
12813TIP3    H259931   5.371   5.639   5.229 -0.2612 -0.9853 -0.9197
12814TIP3   OH259932   3.370   3.356  14.665  0.3950 -0.2181  0.6252
12814TIP3    H159933   3.309   3.429  14.677 -0.8961 -0.8319 -1.8926
12814TIP3    H259934   3.450   3.397  14.633 -0.1054  0.1811 -0.1356
12815TIP3   OH259935   6.381   3.543  12.676  0.0214 -0.3225  0.0050
12815TIP3    H159936   6.430   3.469  12.711  2.3789  1.4590  0.6233
12815TIP3    H259937   6.401   3.543  12.583  1.5911  0.6800  0.3380
12816TIP3   OH259938   0.107   2.007   3.549 -0.6256 -0.5140 -0.2315
12816TIP3    H159939   0.065   2.078   3.597 -1.0010  0.0869 -1.4320
12816TIP3    H259940   0.185   2.047   3.509 -0.5125 -0.9219 -0.4274
12817TIP3   OH259941   3.439   3.895  11.241 -0.1920 -0.1201  0.5910
12817TIP3    H159942   3.428   3.990  11.238  1.4453  0.1091  1.0883
12817TIP3    H259943   3.376   3.861  11.177  0.9502  1.4758 -1.4396
12818TIP3   OH259944   3.602   6.481   3.549 -0.1102  0.5685 -0.2094
12818TIP3    H159945   3.623   6.451   3.460  1.9303  0.1024  0.3977
12818TIP3    H259946   3.646   6.566   3.556 -0.9125  0.9628  0.1080
12819TIP3   OH259947   3.172   0.345   1.265 -0.0278  0.0890  0.0356
12819TIP3    H159948   3.161   0.395   1.346  0.4429 -1.4889  1.1110
12819TIP3    H259949   3.091   0.359   1.216  0.2544  2.1724  0.1508
12820TIP3   OH259950   4.954   1.749   4.541  0.1599  0.4278  0.5242
12820TIP3    H159951   4.977   1.657   4.549 -0.2751  0.3945  1.3529
12820TIP3    H259952   4.959   1.766   4.447  0.1096 -0.4713  0.3540
12821TIP3   OH259953   1.604   5.740   5.784  0.0918 -0.3357 -0.1632
12821TIP3    H159954   1.615   5.835   5.790 -0.2445 -0.3632  1.2041
12821TIP3    H259955   1.529   5.728   5.726 -1.2585  0.3335  1.3870
12822TIP3   OH259956   6.641   2.025  16.004  0.4112 -0.8610  0.5118
12822TIP3    H159957   6.573   2.091  15.994  1.9594  0.8848  1.1516
12822TIP3    H259958   6.723   2.072  15.985  1.4592 -2.8815 -0.1821
12823TIP3   OH259959   0.522   1.050  14.313 -0.9015  0.3317 -0.4712
12823TIP3    H159960   0.492   1.134  14.348  0.1193  0.7478 -0.5910
12823TIP3    H259961   0.616   1.062  14.298 -0.8125 -0.7255 -0.7937
12824TIP3   OH259962   5.996   2.477   1.794 -0.1720  0.5444  0.2004
12824TIP3    H159963   5.922   2.439   1.746 -1.4633  1.4034  1.4810
12824TIP3    H259964   6.064   2.410   1.788 -1.2660 -0.5441 -0.4609
12825TIP3   OH259965   6.384   1.678  13.221 -0.4361 -0.1164  0.5993
12825TIP3    H159966   6.351   1.597  13.182 -0.8520  0.8159 -1.0008
12825TIP3    H259967   6.370   1.666  13.315 -1.8089 -1.3064  0.2637
12826TIP3   OH259968   5.949   1.861  13.462 -0.1669  0.2790 -0.4245
12826TIP3    H159969   5.941   1.890  13.371  0.4885 -0.2805 -0.6623
12826TIP3    H259970   5.883   1.912  13.509  0.1586  1.2710 -1.0390
12827TIP3   OH259971   5.844   2.706   1.214 -0.0179 -0.4205  0.0987
12827TIP3    H159972   5.904   2.631   1.223 -0.2498 -0.3033  3.1376
12827TIP3    H259973   5.760   2.667   1.190 -0.1581 -1.1802  1.7520
12828TIP3   OH259974   5.826   5.897   3.593 -0.0507 -0.0355  0.5146
12828TIP3    H159975   5.827   5.957   3.518  0.3610  0.5698  0.9991
12828TIP3    H259976   5.793   5.950   3.665 -1.7165 -0.9843  0.4660
12829TIP3   OH259977   1.178   6.816   4.978  0.1089 -0.2675 -0.4160
12829TIP3    H159978   1.236   6.741   4.989  1.2358  0.3893 -1.8037
12829TIP3    H259979   1.216   6.884   5.033  0.3715 -0.0088 -0.9107
12830TIP3   OH259980   6.650   3.847  12.440 -0.3239 -0.1400 -0.2841
12830TIP3    H159981   6.711   3.809  12.504 -1.7823  0.2478  1.3687
12830TIP3    H259982   6.571   3.865  12.490 -1.0561  1.3743 -1.9272
12831TIP3   OH259983   1.288   2.141  13.097  0.5707  0.0281 -0.1451
12831TIP3    H159984   1.195   2.131  13.076  0.6647 -4.1357  0.9500
12831TIP3    H259985   1.326   2.182  13.019 -1.9414  0.4646 -1.1950
12832TIP3   OH259986   4.119   2.228  15.324 -0.5419 -0.4536  0.6989
12832TIP3    H159987   4.043   2.276  15.357  0.1810  0.1135  1.5338
12832TIP3    H259988   4.091   2.136  15.326 -1.9539 -0.0839 -0.9898
12833TIP3   OH259989   1.040   1.110  11.790  0.3274 -0.0413 -0.1888
12833TIP3    H159990   1.059   1.189  11.740 -1.2996  0.6137  0.2120
12833TIP3    H259991   0.988   1.056  11.732 -0.8962  0.3821  0.4910
12834TIP3   OH259992   1.779   3.419  13.178 -0.0078  0.6332  0.5405
12834TIP3    H159993   1.847   3.482  13.155  0.1134  0.2572 -0.1171
12834TIP3    H259994   1.784   3.352  13.111 -0.3524  0.0811  1.0610
12835TIP3   OH259995   3.829   0.172  13.122  0.3060  0.1475 -0.1602
12835TIP3    H159996   3.865   0.122  13.049  2.1203  0.8354  0.2219
12835TIP3    H259997   3.878   0.141  13.198 -2.5668 -1.6245  1.0335
12836TIP3   OH259998   3.372   2.287   5.306  0.0583 -0.1738  0.2073
12836TIP3    H159999   3.375   2.240   5.390  0.1423 -0.2923  0.1377
12836TIP3    H260000   3.434   2.360   5.319  0.7306 -0.6926 -0.0524
12837TIP3   OH260001   6.770   0.196   6.076  0.2987  0.5481 -0.6275
12837TIP3    H160002   6.851   0.183   6.125 -0.2382 -1.9055 -0.2921
12837TIP3    H260003   6.701   0.186   6.142 -0.3747 -1.2167 -1.5488
12838TIP3   OH260004   1.424   1.578  13.225 -0.5334 -0.2198  0.0974
12838TIP3    H160005   1.418   1.635  13.149  0.8639  0.3120  0.3765
12838TIP3    H260006   1.515   1.584  13.253 -1.0257 -0.4101  1.8025
12839TIP3   OH260007   3.481   2.569  12.422 -0.7191  0.2120 -0.7091
12839TIP3    H160008   3.491   2.587  12.515 -0.8056 -0.4365 -0.5782
12839TIP3    H260009   3.568   2.542  12.393 -0.7692  0.0897 -0.7467
12840TIP3   OH260010   0.082   3.117  12.500  0.3905 -0.3539  0.0200
12840TIP3    H160011   0.144   3.054  12.536 -0.2937 -0.9193  0.2294
12840TIP3    H260012   0.130   3.160  12.430  1.7771  0.8711  1.6901
12841TIP3   OH260013   4.697   0.580   5.321 -0.1993  0.8710 -0.3062
12841TIP3    H160014   4.699   0.568   5.416  1.2629 -0.3341 -0.4774
12841TIP3    H260015   4.605   0.569   5.297 -1.0077  3.7155  1.2754
12842TIP3   OH260016   6.391   2.582  16.094  0.0475 -0.0869 -0.0067
12842TIP3    H160017   6.378   2.653  16.031  1.5481 -0.9716 -1.3413
12842TIP3    H260018   6.468   2.609  16.144 -0.8839  0.4062  1.1925
12843TIP3   OH260019   4.120   0.114  15.750 -0.4537  0.1598 -0.0505
12843TIP3    H160020   4.062   0.184  15.780 -0.1595  0.4872 -0.2288
12843TIP3    H260021   4.119   0.049  15.820  1.5698  1.6862  1.4446
12844TIP3   OH260022   5.672   0.168   4.576 -0.5433  0.0539 -0.2077
12844TIP3    H160023   5.639   0.200   4.659 -1.4585 -1.1093 -0.1038
12844TIP3    H260024   5.599   0.179   4.515 -0.1886  0.0584 -0.6368
12845TIP3   OH260025   0.042   6.323  11.767  0.1522  0.2438  0.0493
12845TIP3    H160026  -0.004   6.298  11.687  0.7790  0.7357 -0.4661
12845TIP3    H260027  -0.018   6.383  11.811 -1.1933 -1.8247  1.0999
12846TIP3   OH260028   1.676   2.417  16.324 -0.3417  0.6386  0.1040
12846TIP3    H160029   1.650   2.503  16.292  0.8505  1.1247  0.4183
12846TIP3    H260030   1.772   2.422  16.333 -0.4193 -0.1855  1.6484
12847TIP3   OH260031   1.807   4.351  12.090 -0.7254  0.0637 -0.2982
12847TIP3    H160032   1.734   4.297  12.121 -0.3015  0.4934  1.4712
12847TIP3    H260033   1.772   4.441  12.091 -0.6901  0.0937 -1.0521
12848TIP3   OH260034   2.297   2.013   1.847  0.1344 -0.5719 -0.5243
12848TIP3    H160035   2.239   1.964   1.906 -2.5518  2.9533 -0.0881
12848TIP3    H260036   2.357   2.058   1.906 -0.9911  1.0305 -0.5828
12849TIP3   OH260037   2.412   0.254  12.931  0.2356  0.7071 -0.2562
12849TIP3    H160038   2.459   0.302  12.999 -0.3385  0.2457  0.4748
12849TIP3    H260039   2.459   0.171  12.924 -0.5152  0.2250  0.5132
12850TIP3   OH260040   0.852   6.054  14.533  0.1916  0.4951 -0.0152
12850TIP3    H160041   0.845   5.960  14.549 -0.3275  0.5915  0.3305
12850TIP3    H260042   0.808   6.094  14.608 -1.8046  0.9503 -1.3836
12851TIP3   OH260043   0.498   3.409  14.932  0.2193  0.0561 -0.5659
12851TIP3    H160044   0.477   3.323  14.894  2.5777  0.1376 -2.1547
12851TIP3    H260045   0.520   3.463  14.857  1.4995  1.2622  0.6584
12852TIP3   OH260046   6.663   3.509   1.993 -0.5071  0.4198 -1.2542
12852TIP3    H160047   6.699   3.466   1.915  0.9112  1.1942 -1.0391
12852TIP3    H260048   6.621   3.438   2.041 -0.3550 -0.2804 -2.1307
12853TIP3   OH260049   5.631   6.744   6.685 -0.0295  0.2618  0.4555
12853TIP3    H160050   5.704   6.786   6.731 -1.1574 -0.6574  3.1813
12853TIP3    H260051   5.555   6.797   6.707 -0.7161 -0.6004  0.1686
12854TIP3   OH260052   1.202   2.089   3.039  0.1208  0.2519  0.2058
12854TIP3    H160053   1.158   2.046   3.112  1.2514 -0.1793  0.6439
12854TIP3    H260054   1.237   2.170   3.076  0.6536  0.0586  0.1195
12855TIP3   OH260055   3.670   5.172  15.686 -0.3070  0.0307  0.0456
12855TIP3    H160056   3.704   5.200  15.601 -2.6185 -0.0362 -0.9354
12855TIP3    H260057   3.646   5.081  15.675  2.1195 -0.8529  1.6687
12856TIP3   OH260058   5.805   5.942  16.786  0.0417  0.1580  0.1496
12856TIP3    H160059   5.846   5.995  16.718  0.0944 -1.3494 -1.0246
12856TIP3    H260060   5.787   6.004  16.857  3.4944  1.0576  0.3652
12857TIP3   OH260061   6.187   4.088  14.575  0.0303  0.6533 -0.1753
12857TIP3    H160062   6.114   4.101  14.635 -0.5108 -1.4614 -0.3465
12857TIP3    H260063   6.149   4.041  14.501  0.9775  2.0198 -1.5788
12858TIP3   OH260064   0.281   0.732   3.364  0.1752 -0.0530 -0.5597
12858TIP3    H160065   0.265   0.644   3.399  0.7069  0.1484  0.1777
12858TIP3    H260066   0.193   0.767   3.347 -0.0674 -0.3585  0.0486
12859TIP3   OH260067   3.315   3.720   1.767 -0.3218 -0.2767 -0.0176
12859TIP3    H160068   3.363   3.713   1.684  0.1172 -1.1952  0.2999
12859TIP3    H260069   3.377   3.687   1.832 -0.9670 -0.3442  0.5637
12860TIP3   OH260070   5.062   6.448   0.027  0.0243  0.1645 -0.5408
12860TIP3    H160071   5.092   6.538   0.036 -0.8121  0.3615  0.3563
12860TIP3    H260072   4.981   6.455  -0.024  0.5134 -0.1880 -1.3844
12861TIP3   OH260073   2.393   3.661  14.367  0.3483  0.9356 -0.1499
12861TIP3    H160074   2.345   3.584  14.338  0.8264  0.5699  0.0387
12861TIP3    H260075   2.485   3.637  14.361  0.5993  2.2826 -2.3451
12862TIP3   OH260076   0.094   0.827   2.379 -0.3074  0.4258 -0.2074
12862TIP3    H160077   0.118   0.787   2.295 -1.9193 -0.6522 -0.1671
12862TIP3    H260078   0.066   0.916   2.356  1.6197  0.9771 -0.5016
12863TIP3   OH260079   1.634   0.319  16.749 -0.1525 -0.3193 -0.3445
12863TIP3    H160080   1.601   0.266  16.822 -0.3933 -0.8496 -0.8334
12863TIP3    H260081   1.693   0.382  16.790  1.2201 -1.8569  0.1083
12864TIP3   OH260082   3.316   5.671  15.593 -0.5713 -0.3507 -0.6043
12864TIP3    H160083   3.331   5.651  15.500  0.8772  0.8013 -0.6531
12864TIP3    H260084   3.343   5.763  15.601 -3.2174  0.3583  0.4030
12865TIP3   OH260085   1.634   2.008   2.903 -0.3953 -0.2645 -0.1238
12865TIP3    H160086   1.558   1.983   2.955 -2.2333  1.7099 -1.7717
12865TIP3    H260087   1.641   2.103   2.915  0.9874 -0.2260 -1.0761
12866TIP3   OH260088   1.481   2.605  12.740  0.2628  0.8452  0.0614
12866TIP3    H160089   1.543   2.678  12.736 -0.2802  1.2712 -0.7213
12866TIP3    H260090   1.533   2.531  12.772  1.3626  1.0131 -1.2921
12867TIP3   OH260091   3.052   3.281   0.667  0.3276  0.3224  0.1643
12867TIP3    H160092   3.058   3.296   0.761  2.1118 -0.3795  0.1870
12867TIP3    H260093   3.122   3.335   0.630  0.6297 -0.5750 -0.6071
12868TIP3   OH260094   1.032   5.246   3.834 -0.2057  0.0732 -0.3005
12868TIP3    H160095   0.943   5.279   3.845 -0.6771 -1.4484  0.6582
12868TIP3    H260096   1.032   5.207   3.747 -0.2078  0.9045 -0.6720
12869TIP3   OH260097   1.698   1.808   3.263 -0.3709  0.7858 -0.0357
12869TIP3    H160098   1.651   1.890   3.249 -0.6745  0.3189 -1.8618
12869TIP3    H260099   1.788   1.827   3.235 -0.3359  0.6137 -0.0398
12870TIP3   OH260100   2.432   5.307   3.484 -0.2896 -0.2685 -0.3809
12870TIP3    H160101   2.510   5.251   3.492 -1.1417 -1.0889  2.8988
12870TIP3    H260102   2.359   5.251   3.509 -1.3919  1.7580  1.1318
12871TIP3   OH260103   1.794   2.929  13.660  0.3598  0.2515  0.4493
12871TIP3    H160104   1.811   2.924  13.754 -0.7175  0.8134  0.6768
12871TIP3    H260105   1.770   2.840  13.636  1.8309 -0.1685  0.4601
12872TIP3   OH260106   0.577   4.535   0.247 -0.6287  0.0258 -0.3676
12872TIP3    H160107   0.633   4.486   0.308 -1.9462  0.9852  1.6934
12872TIP3    H260108   0.523   4.468   0.205 -1.3948 -0.4764  1.3445
12873TIP3   OH260109   0.938   0.640  14.670 -0.0502 -0.0074  0.6538
12873TIP3    H160110   1.033   0.650  14.670 -0.2348  2.1651  2.3000
12873TIP3    H260111   0.917   0.616  14.761 -1.0872 -0.4067  0.3113
12874TIP3   OH260112   3.055   4.504   3.982  0.1872  0.0503 -0.2021
12874TIP3    H160113   3.052   4.597   4.005  0.3112  0.2623 -1.0177
12874TIP3    H260114   3.125   4.498   3.917 -0.6449 -0.3991 -1.0690
12875TIP3   OH260115   0.003   6.640  13.949  0.4646 -0.0753  0.7935
12875TIP3    H160116  -0.052   6.650  14.028  0.0536 -0.1899  0.5237
12875TIP3    H260117  -0.052   6.591  13.888  0.5025  0.6628  0.1584
12876TIP3   OH260118   1.531   5.075  15.233 -0.2769 -0.1533 -0.1284
12876TIP3    H160119   1.571   5.158  15.207  0.7372 -0.9842 -1.3162
12876TIP3    H260120   1.604   5.025  15.270 -0.8934 -0.5011  0.6198
12877TIP3   OH260121   1.562   2.394  12.467 -0.6667  0.5383  0.0451
12877TIP3    H160122   1.648   2.433  12.450  0.4196 -1.9426 -0.4062
12877TIP3    H260123   1.558   2.386  12.562  0.3722 -0.9773 -0.0278
12878TIP3   OH260124   0.837   1.271   2.745  0.2532 -0.7084 -0.6520
12878TIP3    H160125   0.894   1.310   2.678  1.5182 -0.0481  0.7680
12878TIP3    H260126   0.891   1.204   2.786  0.2336  0.3360  1.1184
12879TIP3   OH260127   3.268   4.215  11.609 -0.6320  0.0946  0.1033
12879TIP3    H160128   3.216   4.225  11.529  2.7307  0.0469 -2.2038
12879TIP3    H260129   3.265   4.301  11.651 -1.4131  0.4712 -0.7029
12880TIP3   OH260130   5.577   1.798   2.694 -0.3645 -0.4053  0.1716
12880TIP3    H160131   5.571   1.735   2.622 -1.0868  0.5898 -0.6439
12880TIP3    H260132   5.486   1.816   2.718 -0.1458 -0.0987  0.7823
12881TIP3   OH260133   5.149   2.094  12.920  0.0565 -0.8321  0.2689
12881TIP3    H160134   5.119   2.173  12.965  0.6312 -0.1379 -0.5570
12881TIP3    H260135   5.214   2.056  12.979 -0.7790 -1.1087  1.0187
12882TIP3   OH260136   6.148   2.771  12.460 -0.4112  0.6000  0.3900
12882TIP3    H160137   6.141   2.717  12.538  1.8614  1.0970  0.9848
12882TIP3    H260138   6.234   2.813  12.467 -0.1713  0.6771 -2.3573
12883TIP3   OH260139   1.979   2.488  12.182  0.7712  0.0595  0.4071
12883TIP3    H160140   2.035   2.412  12.202  0.7999 -0.0941 -0.2363
12883TIP3    H260141   2.005   2.513  12.094 -1.8388 -1.4865 -0.8442
12884TIP3   OH260142   4.105   5.233  15.768 -0.5811 -0.2381  0.6941
12884TIP3    H160143   4.099   5.313  15.714  0.7953 -1.0408 -0.6813
12884TIP3    H260144   4.068   5.164  15.712  2.2635 -1.3725  0.1423
12885TIP3   OH260145   1.139   1.409  16.208 -0.0842 -0.1127 -0.3834
12885TIP3    H160146   1.106   1.486  16.162 -1.4304 -0.9322 -0.7995
12885TIP3    H260147   1.063   1.351  16.217  0.4093 -0.4515  1.8762
12886TIP3   OH260148   0.447   0.612  13.448 -0.3427  0.7008 -0.2041
12886TIP3    H160149   0.498   0.603  13.529  0.3134  0.6874 -0.6172
12886TIP3    H260150   0.369   0.559  13.464  0.9630 -1.3779 -0.5272
12887TIP3   OH260151   3.155   2.465  16.586 -0.4800  0.0098  0.1404
12887TIP3    H160152   3.085   2.439  16.646 -0.7408  1.5824  0.5572
12887TIP3    H260153   3.220   2.395  16.592 -0.2760  0.3564  2.6570
12888TIP3   OH260154   1.525   5.308   1.548  0.3848 -0.1769  0.0245
12888TIP3    H160155   1.579   5.376   1.506  2.5387 -2.4273 -0.9662
12888TIP3    H260156   1.444   5.307   1.498  1.8128 -0.8815 -2.3269
12889TIP3   OH260157   2.833   4.505   2.190 -0.5599  0.2902  0.6414
12889TIP3    H160158   2.784   4.457   2.257 -1.0942  1.5539  1.1914
12889TIP3    H260159   2.825   4.597   2.217  0.7686  0.6507 -0.1588
12890TIP3   OH260160   4.176   6.776   2.207  0.3579  0.2519  0.3439
12890TIP3    H160161   4.198   6.867   2.188 -2.2908  1.2664  1.8579
12890TIP3    H260162   4.171   6.772   2.303  0.4302 -1.4911  0.2917
12891TIP3   OH260163   1.099   3.601  15.215 -0.0357 -0.7278  0.3693
12891TIP3    H160164   1.059   3.672  15.265 -0.7423 -0.7982 -0.0928
12891TIP3    H260165   1.053   3.522  15.244 -1.2011 -0.6377 -1.1628
12892TIP3   OH260166   3.679   2.602   2.868 -0.6094 -0.0761 -0.0569
12892TIP3    H160167   3.633   2.559   2.940 -0.9841 -0.0095 -0.2531
12892TIP3    H260168   3.610   2.620   2.803 -0.4884  0.9855  0.1035
12893TIP3   OH260169   4.950   3.878  15.599  0.5493  0.0155  0.0242
12893TIP3    H160170   4.898   3.838  15.530  1.0097 -1.0828  0.3023
12893TIP3    H260171   4.892   3.881  15.675 -0.0044  1.3613 -0.4521
12894TIP3   OH260172   3.899   1.041  14.623  0.0346  0.1947  0.4494
12894TIP3    H160173   3.878   0.951  14.646 -0.1259  0.7551  2.5877
12894TIP3    H260174   3.945   1.034  14.539  0.3996 -1.9085  0.7961
12895TIP3   OH260175   4.919   1.252  16.897  0.0741 -0.0510 -0.3284
12895TIP3    H160176   4.841   1.301  16.922 -0.2417 -0.2844 -0.8572
12895TIP3    H260177   4.955   1.220  16.980 -0.0814  0.5222 -0.0411
12896TIP3   OH260178   4.039   5.471  14.375  0.4265  0.3480 -0.3169
12896TIP3    H160179   4.044   5.409  14.448  1.6729  0.0942 -0.6105
12896TIP3    H260180   4.086   5.548  14.406 -0.4263  0.8519 -0.2561
12897TIP3   OH260181   5.128   4.977   0.242 -0.2732  0.1411  0.0734
12897TIP3    H160182   5.166   5.063   0.223  0.1337 -0.2206 -0.7824
12897TIP3    H260183   5.166   4.919   0.177  0.2295 -0.9042  1.2792
12898TIP3   OH260184   2.598   4.626  15.857 -0.4323 -0.3603  0.7298
12898TIP3    H160185   2.573   4.689  15.789 -1.4868 -1.1660  0.3392
12898TIP3    H260186   2.636   4.552  15.808  0.8511 -0.0031  1.1856
12899TIP3   OH260187   5.492   3.939   1.181  0.3752  0.1726  0.1092
12899TIP3    H160188   5.426   4.009   1.179  1.1966  0.9606 -0.0192
12899TIP3    H260189   5.541   3.950   1.099  0.2252 -0.8336 -0.1142
12900TIP3   OH260190   5.230   3.842   4.843  0.0614 -0.4500  0.3982
12900TIP3    H160191   5.293   3.771   4.832 -0.7852 -1.1496  0.0656
12900TIP3    H260192   5.223   3.854   4.938  0.8125 -0.2564  0.4329
12901TIP3   OH260193   1.193   3.093  11.568 -0.1178 -0.2652  0.1215
12901TIP3    H160194   1.198   3.176  11.614  1.6564 -1.3053  1.8586
12901TIP3    H260195   1.144   3.036  11.627 -1.6526 -0.3633 -1.2211
12902TIP3   OH260196   0.170   0.433  10.628 -0.0546 -0.1225  0.6091
12902TIP3    H160197   0.137   0.517  10.595 -2.2629 -1.0747  0.3519
12902TIP3    H260198   0.123   0.419  10.710  0.5313 -0.9657  0.7999
12903TIP3   OH260199   0.636   1.693  15.213  0.4836  0.6081 -0.7609
12903TIP3    H160200   0.597   1.732  15.135 -1.2140  0.2284 -0.1070
12903TIP3    H260201   0.628   1.599  15.199  1.0213  0.5303 -0.5450
12904TIP3   OH260202   6.182   5.297   4.352 -0.2794 -0.4604  0.3450
12904TIP3    H160203   6.164   5.322   4.443  1.4111 -0.3676  0.6748
12904TIP3    H260204   6.249   5.229   4.358 -0.5832 -0.8767 -0.8087
12905TIP3   OH260205   1.891   6.779  15.409 -0.3721  0.1791 -0.3826
12905TIP3    H160206   1.954   6.834  15.455  0.0737 -1.1449  0.6426
12905TIP3    H260207   1.913   6.788  15.316  2.7026 -1.8698  0.0903
12906TIP3   OH260208   1.056   2.045  17.240  0.1173  0.1219 -0.6048
12906TIP3    H160209   1.087   1.955  17.243  2.9350  1.0322 -0.3441
12906TIP3    H260210   0.989   2.051  17.307 -1.4133 -2.2089 -1.8622
12907TIP3   OH260211   6.810   3.463   0.788  0.5184  1.0828  0.0124
12907TIP3    H160212   6.741   3.452   0.853 -0.6467 -0.5818 -1.4732
12907TIP3    H260213   6.862   3.383   0.794  0.2053  0.7622 -1.2989
12908TIP3   OH260214   1.090   3.670   5.472  0.4457  0.0010 -0.0763
12908TIP3    H160215   1.161   3.715   5.426  0.4234 -1.1107 -1.2310
12908TIP3    H260216   1.010   3.703   5.430  0.3914 -0.4740 -0.3525
12909TIP3   OH260217   3.951   6.666  12.406 -0.0560 -0.0757  0.0144
12909TIP3    H160218   3.877   6.611  12.432 -0.3516 -0.5148 -1.6877
12909TIP3    H260219   3.915   6.754  12.402 -0.4849 -0.2839 -0.7747
12910TIP3   OH260220   4.073   3.750  14.113  0.0379 -0.0314  0.8571
12910TIP3    H160221   4.033   3.710  14.189  2.0287 -2.0195  0.8871
12910TIP3    H260222   4.165   3.760  14.135  0.5050  0.0825 -0.9958
12911TIP3   OH260223   3.283   5.211   2.040 -0.1431  0.0772  0.4258
12911TIP3    H160224   3.199   5.225   2.084 -0.1995  0.8734  0.0676
12911TIP3    H260225   3.310   5.298   2.012 -0.2303 -0.4674 -1.3643
12912TIP3   OH260226   5.817   4.124   3.474  0.4512 -0.0623  0.4781
12912TIP3    H160227   5.818   4.219   3.476  1.0418 -0.0740  0.7926
12912TIP3    H260228   5.847   4.101   3.386  1.9865  0.0200  0.9656
12913TIP3   OH260229   6.578   6.315   0.970 -0.2835 -0.0753  0.3145
12913TIP3    H160230   6.511   6.277   0.914  0.0473  0.7236 -0.6502
12913TIP3    H260231   6.653   6.327   0.913  0.1343  0.5532  0.9795
12914TIP3   OH260232   6.663   6.308  14.181  0.1929  0.1173 -0.1548
12914TIP3    H160233   6.688   6.386  14.230  1.9701 -0.3514 -0.2586
12914TIP3    H260234   6.621   6.251  14.245  0.4250  0.4618  0.3060
12915TIP3   OH260235   3.607   3.268  12.650 -0.4662  0.6210 -0.0161
12915TIP3    H160236   3.621   3.323  12.573  0.8806  1.3390  0.7236
12915TIP3    H260237   3.689   3.220  12.660 -0.4630  0.8711  1.2302
12916TIP3   OH260238   0.675   6.090  12.181 -0.0604 -0.1888  0.2778
12916TIP3    H160239   0.638   6.012  12.221 -2.1887  0.9895  0.6726
12916TIP3    H260240   0.764   6.065  12.156 -0.5548 -2.5602  0.8505
12917TIP3   OH260241   3.813   3.543  13.517  0.1250 -0.1572 -0.1675
12917TIP3    H160242   3.813   3.529  13.612 -3.5916  1.3065  0.1312
12917TIP3    H260243   3.779   3.461  13.481 -1.3140  0.3381  0.0234
12918TIP3   OH260244   1.296   6.280  13.141 -0.2284  0.7996  0.2163
12918TIP3    H160245   1.352   6.267  13.218 -0.0936 -0.6545 -0.1169
12918TIP3    H260246   1.319   6.208  13.082 -2.2811  0.3395 -0.0335
12919TIP3   OH260247   4.940   0.746   3.784  0.3997 -0.3622 -0.6839
12919TIP3    H160248   4.937   0.669   3.727  0.7065  0.1459 -1.3976
12919TIP3    H260249   4.972   0.713   3.868  0.9362 -0.9370 -1.1084
12920TIP3   OH260250   5.022   1.439  10.810  0.4167 -0.1118 -0.5398
12920TIP3    H160251   4.994   1.349  10.824  1.8201 -0.4579  0.2180
12920TIP3    H260252   5.117   1.435  10.818  0.5641  1.2580 -1.5612
12921TIP3   OH260253   6.161   1.398  12.601  0.5520 -0.7627 -0.1081
12921TIP3    H160254   6.250   1.420  12.631  0.3676  0.3373 -0.3546
12921TIP3    H260255   6.165   1.410  12.506  0.1128 -0.5916 -0.1056
12922TIP3   OH260256   2.723   6.150  12.441  0.2353  0.3934  0.0498
12922TIP3    H160257   2.712   6.101  12.522  1.2155 -0.5306 -0.3723
12922TIP3    H260258   2.669   6.228  12.453  0.3904  0.2763  1.5984
12923TIP3   OH260259   6.633   4.850   0.602  0.9130  0.4800  0.2224
12923TIP3    H160260   6.726   4.827   0.599  0.8885  0.2959  0.7565
12923TIP3    H260261   6.628   4.935   0.559  1.4010  0.7121  0.6185
12924TIP3   OH260262   3.503   2.356  13.483 -0.1855  0.2138  0.0250
12924TIP3    H160263   3.576   2.319  13.434 -0.3368 -1.7676  1.2770
12924TIP3    H260264   3.433   2.365  13.418  0.9257  1.4946 -1.0201
12925TIP3   OH260265   4.649   5.584   3.806 -0.2538  0.1730 -0.2703
12925TIP3    H160266   4.721   5.645   3.822 -1.1559  0.7114  1.8221
12925TIP3    H260267   4.570   5.634   3.824 -1.0713 -1.1610 -0.0890
12926TIP3   OH260268   3.825   4.465  15.350  0.4645  0.6267  0.8621
12926TIP3    H160269   3.897   4.426  15.398 -0.5503 -0.7739  1.2897
12926TIP3    H260270   3.840   4.441  15.258 -0.3317 -1.1349  1.1591
12927TIP3   OH260271   5.610   4.783  13.280  0.0027 -0.3592 -1.2238
12927TIP3    H160272   5.642   4.724  13.348 -1.5875  0.4800  0.2963
12927TIP3    H260273   5.649   4.750  13.199  2.7137 -0.7992  0.2017
12928TIP3   OH260274   5.283   6.266  11.486  0.2997 -0.1103  0.1795
12928TIP3    H160275   5.300   6.173  11.502  1.3970  0.0965  0.2736
12928TIP3    H260276   5.334   6.311  11.554 -3.0207  0.4688  2.4098
12929TIP3   OH260277   5.279   1.769   1.139  0.1123 -0.2982  0.1727
12929TIP3    H160278   5.188   1.768   1.169  0.8230 -0.7240  2.4311
12929TIP3    H260279   5.330   1.792   1.217  1.9439  0.0565 -1.0831
12930TIP3   OH260280   3.430   3.964  14.864 -0.7289 -0.0565  0.0745
12930TIP3    H160281   3.417   3.873  14.891  0.4189  0.1850  1.4801
12930TIP3    H260282   3.390   4.016  14.933 -1.1094  0.5254 -0.5694
12931TIP3   OH260283   0.727   3.632  12.067  0.0307  0.4898  0.1298
12931TIP3    H160284   0.711   3.660  11.977 -1.7223 -0.8197  0.0127
12931TIP3    H260285   0.701   3.708  12.120  0.2456  0.9510 -0.4175
12932TIP3   OH260286   0.320   5.736   3.946 -0.3448  0.0048  0.4651
12932TIP3    H160287   0.291   5.655   3.990  0.2420 -0.4786 -0.0287
12932TIP3    H260288   0.244   5.765   3.896 -0.3324 -0.6565  0.0520
12933TIP3   OH260289   1.754   6.369  17.245 -0.4864  0.2220 -0.1814
12933TIP3    H160290   1.725   6.298  17.302 -0.1360  0.3904  0.2087
12933TIP3    H260291   1.813   6.421  17.299  0.8455 -0.3282 -1.0575
12934TIP3   OH260292   2.629   3.136   6.202 -0.3551  0.2920  0.1378
12934TIP3    H160293   2.655   3.222   6.235  2.7987 -1.1398  1.5749
12934TIP3    H260294   2.605   3.086   6.280  0.2937 -0.9274 -0.4274
12935TIP3   OH260295   5.461   0.244   4.826 -0.3585  0.7289  0.3187
12935TIP3    H160296   5.477   0.336   4.809  0.9405  0.5671  0.5986
12935TIP3    H260297   5.366   0.237   4.835 -0.5256  1.8979 -0.4608
12936TIP3   OH260298   2.935   0.132   1.028  0.1511  0.0984  0.2658
12936TIP3    H160299   2.924   0.216   1.072  0.6932  0.6065 -0.5599
12936TIP3    H260300   2.989   0.151   0.951 -1.9519 -0.5240 -1.4174
12937TIP3   OH260301   5.954   5.625   2.304  0.1059  0.5678  0.3706
12937TIP3    H160302   5.914   5.538   2.294 -2.4538  1.7620 -0.2668
12937TIP3    H260303   6.034   5.620   2.252 -0.3723 -1.1911 -0.2513
12938TIP3   OH260304   1.922   1.457  11.405  0.0287 -0.1902 -0.0318
12938TIP3    H160305   1.957   1.452  11.316 -2.1004 -0.2709 -0.9025
12938TIP3    H260306   1.923   1.366  11.436  0.7659 -0.1637  0.0254
12939TIP3   OH260307   1.965   1.433   0.401  0.4157  0.1512  0.3430
12939TIP3    H160308   1.896   1.405   0.462 -1.0030 -0.4148 -1.4662
12939TIP3    H260309   2.043   1.385   0.429 -0.0530  0.3588  2.0688
12940TIP3   OH260310   5.363   3.740  10.712  0.4470 -0.1554 -0.3607
12940TIP3    H160311   5.293   3.729  10.647  0.3777 -0.6604 -0.2012
12940TIP3    H260312   5.377   3.835  10.716 -1.6121  0.1364  1.0479
12941TIP3   OH260313   1.743   2.885   5.081 -0.8607  0.6022 -0.8189
12941TIP3    H160314   1.776   2.887   5.171 -1.7106 -1.8310 -0.4125
12941TIP3    H260315   1.805   2.830   5.033 -1.9559 -0.4887 -1.0208
12942TIP3   OH260316   2.604   2.645  10.720 -0.5770 -0.2229  0.6666
12942TIP3    H160317   2.691   2.620  10.752 -0.6738 -0.5383  0.6864
12942TIP3    H260318   2.582   2.724  10.770  0.1394  0.4632 -0.0903
12943TIP3   OH260319   4.168   5.265   3.653 -0.7592 -0.0521 -0.3255
12943TIP3    H160320   4.081   5.248   3.687 -0.6388 -0.7447 -0.3552
12943TIP3    H260321   4.216   5.183   3.668 -0.3960  0.0007 -1.1766
12944TIP3   OH260322   5.033   0.032   2.552 -0.5536  0.5066 -0.7833
12944TIP3    H160323   5.075   0.002   2.632 -2.1666  1.0735  0.2968
12944TIP3    H260324   5.098   0.015   2.483  0.1971 -1.5333  0.3798
12945TIP3   OH260325   2.073   1.197  11.195  0.4785 -0.6882 -0.1641
12945TIP3    H160326   2.086   1.289  11.216  0.1521 -0.9271  1.1400
12945TIP3    H260327   1.979   1.188  11.181  0.2875 -1.1363  1.3311
12946TIP3   OH260328   4.278   5.796  11.816  0.7109 -0.1836  0.1694
12946TIP3    H160329   4.230   5.753  11.746  0.9023  0.9405 -0.6745
12946TIP3    H260330   4.247   5.887  11.814  1.2218  0.0204  1.0869
12947TIP3   OH260331   0.408   1.505   0.810 -0.1185 -0.0134  0.4534
12947TIP3    H160332   0.446   1.418   0.800  1.8386  0.5980  2.0718
12947TIP3    H260333   0.395   1.536   0.720  2.3617 -0.6555 -0.1772
12948TIP3   OH260334   0.181   3.411  11.895  0.0478 -0.2897 -0.1072
12948TIP3    H160335   0.235   3.391  11.971  1.2926 -0.3182 -0.9850
12948TIP3    H260336   0.243   3.420  11.823 -1.0958 -0.0587 -1.0837
12949TIP3   OH260337   3.781   2.437  14.778 -0.3259 -0.0720 -0.0665
12949TIP3    H160338   3.832   2.384  14.718  0.2738  0.0859  0.2989
12949TIP3    H260339   3.821   2.423  14.864 -0.4095  0.6475  0.0997
12950TIP3   OH260340   4.389   2.263  16.742  0.0330 -0.4068  0.3364
12950TIP3    H160341   4.378   2.310  16.659 -1.0902 -1.5596 -0.1841
12950TIP3    H260342   4.344   2.319  16.806 -0.1290 -0.0974 -0.0424
12951TIP3   OH260343   5.272   2.020  13.166  0.4327 -0.5182 -0.0873
12951TIP3    H160344   5.356   2.028  13.211  0.1111  0.9478  0.2783
12951TIP3    H260345   5.250   1.927  13.174  2.2968 -1.0393 -0.7102
12952TIP3   OH260346   5.370   0.565   1.165  0.0130  0.3668 -0.0661
12952TIP3    H160347   5.383   0.655   1.135  1.8743 -0.1744 -0.9464
12952TIP3    H260348   5.416   0.559   1.248 -0.4139  0.3256  0.1692
12953TIP3   OH260349   1.931   5.198   4.216  0.1223 -0.9641 -0.0894
12953TIP3    H160350   1.920   5.132   4.285 -2.7319 -0.9869 -0.4948
12953TIP3    H260351   1.847   5.198   4.169  0.9687  1.1576 -1.6966
12954TIP3   OH260352   1.706   5.484  15.750  0.0371  0.5707  0.0265
12954TIP3    H160353   1.645   5.499  15.821  0.0665 -1.9975  0.6420
12954TIP3    H260354   1.660   5.513  15.671 -2.4708 -2.3719  0.3222
12955TIP3   OH260355   6.269   6.237  16.425 -0.2763  0.3393  0.2103
12955TIP3    H160356   6.193   6.271  16.472 -0.3099  0.1035  0.3239
12955TIP3    H260357   6.337   6.303  16.440 -0.3751  0.4135  0.3364
12956TIP3   OH260358   2.270   4.491   5.548  0.3704 -0.1415 -0.3437
12956TIP3    H160359   2.247   4.477   5.456  1.4479 -0.2825 -0.5967
12956TIP3    H260360   2.359   4.526   5.546 -0.3861  1.9079  0.5477
12957TIP3   OH260361   2.066   1.353  14.972  0.3574 -0.5138 -0.2515
12957TIP3    H160362   2.070   1.259  14.951 -1.4547 -0.9629  1.2675
12957TIP3    H260363   2.091   1.357  15.064  0.4267  0.5127 -0.3166
12958TIP3   OH260364   2.829   4.129   0.403  0.2611  0.0749  0.1985
12958TIP3    H160365   2.817   4.153   0.495  2.3799  0.4474  0.4047
12958TIP3    H260366   2.764   4.180   0.356  1.8099  3.0214  1.0981
12959TIP3   OH260367   5.836   1.023   2.983  0.2580 -0.2018 -0.0789
12959TIP3    H160368   5.919   1.066   3.005  0.3079 -0.3994  0.1262
12959TIP3    H260369   5.830   0.951   3.045 -0.5429  0.3951  0.5525
12960TIP3   OH260370   3.559   5.132  12.014  0.2159  0.5487 -0.3866
12960TIP3    H160371   3.487   5.099  12.069 -0.0597  0.0993 -1.0069
12960TIP3    H260372   3.573   5.063  11.950  1.0633  0.7355 -0.4040
12961TIP3   OH260373   1.108   0.504   4.676 -0.4057  0.0923 -0.1136
12961TIP3    H160374   1.031   0.447   4.675  0.1883 -0.7562 -2.4217
12961TIP3    H260375   1.074   0.589   4.648 -0.6502 -0.0699 -0.3184
12962TIP3   OH260376   2.223   3.494  16.266 -0.1835  0.1422 -0.3580
12962TIP3    H160377   2.191   3.547  16.339  2.1332  0.1847  0.6916
12962TIP3    H260378   2.173   3.525  16.190 -1.6840  1.0346  0.9666
12963TIP3   OH260379   3.199   3.905  16.422  0.0292  0.3611  0.1732
12963TIP3    H160380   3.241   3.988  16.442 -0.1728  0.9056 -1.5783
12963TIP3    H260381   3.262   3.859  16.366 -0.9147  0.3892 -0.9208
12964TIP3   OH260382   4.572   6.061   0.646 -0.8872 -0.1836  0.3283
12964TIP3    H160383   4.504   6.041   0.710 -1.5342 -2.7294 -1.0612
12964TIP3    H260384   4.531   6.124   0.587 -0.5585  1.5516  1.9109
12965TIP3   OH260385   1.090   0.466   6.740  0.4700 -0.0897 -0.3006
12965TIP3    H160386   1.060   0.413   6.813  0.9467  0.4675  0.3031
12965TIP3    H260387   1.079   0.557   6.770 -1.9183  0.2209 -1.9216
12966TIP3   OH260388   2.739   5.245  11.928 -0.6671  0.1964  0.2306
12966TIP3    H160389   2.785   5.248  11.844 -0.5322 -0.2078  0.2899
12966TIP3    H260390   2.708   5.155  11.935  0.9488 -0.2870  1.4879
12967TIP3   OH260391   1.272   6.319   5.941  0.0888  0.0248  0.1931
12967TIP3    H160392   1.286   6.413   5.952  1.4160 -0.6268  4.8503
12967TIP3    H260393   1.356   6.286   5.910 -0.2933  0.2480 -1.1571
12968TIP3   OH260394   1.411   5.806   4.190  0.4621  0.0912  0.2126
12968TIP3    H160395   1.355   5.766   4.124 -0.0720  0.5446  0.3904
12968TIP3    H260396   1.435   5.733   4.247 -2.7239  0.4500  2.1336
12969TIP3   OH260397   1.120   6.807  13.164  0.2862 -0.1663 -0.1060
12969TIP3    H160398   1.086   6.896  13.165 -0.4439 -0.4586  3.0072
12969TIP3    H260399   1.050   6.755  13.125  0.3771  0.4439 -1.1184
12970TIP3   OH260400   5.768   0.658  12.247 -0.1578  0.6382 -0.3991
12970TIP3    H160401   5.836   0.592  12.234 -0.0373  0.7428 -0.2993
12970TIP3    H260402   5.744   0.650  12.339 -0.4202  0.4681 -0.4808
12971TIP3   OH260403   6.366   6.763   1.833  0.5519  0.1786 -0.2147
12971TIP3    H160404   6.447   6.730   1.871  0.3691  0.8191  0.7477
12971TIP3    H260405   6.353   6.849   1.873  0.0587  0.6288 -1.3080
12972TIP3   OH260406   5.531   6.262  13.548  0.7274  0.1388  0.2816
12972TIP3    H160407   5.482   6.180  13.559  0.6475  0.2603  0.8125
12972TIP3    H260408   5.613   6.236  13.506  1.4543 -0.4307  2.0421
12973TIP3   OH260409   0.600   5.052   4.055 -0.1613 -0.4845 -0.1420
12973TIP3    H160410   0.625   5.016   4.140 -1.3260 -1.8777 -0.3525
12973TIP3    H260411   0.515   5.093   4.071  0.7955  1.5286 -0.0867
12974TIP3   OH260412   3.864   3.360   5.001 -0.0016  0.5986 -0.0426
12974TIP3    H160413   3.934   3.425   4.992 -2.0201  2.7487 -0.7064
12974TIP3    H260414   3.843   3.361   5.095  1.7999 -1.1226  0.4150
12975TIP3   OH260415   3.877   4.931   5.282 -0.7034 -0.2519 -0.0922
12975TIP3    H160416   3.857   5.004   5.340  0.2828 -0.3580  0.3883
12975TIP3    H260417   3.913   4.863   5.339  1.4531  0.1125 -0.9720
12976TIP3   OH260418   0.529   0.224   4.041  0.5923  0.1754 -0.5570
12976TIP3    H160419   0.613   0.195   4.076  0.0105 -0.9721 -0.1001
12976TIP3    H260420   0.517   0.172   3.961  0.6628  0.8786 -1.0368
12977TIP3   OH260421   0.937   6.690   1.634  0.1026 -0.5055 -0.3173
12977TIP3    H160422   0.869   6.623   1.641  0.2376 -0.6564 -0.4441
12977TIP3    H260423   0.972   6.679   1.546 -0.2776  0.1165 -0.5510
12978TIP3   OH260424   3.194   3.626  16.537 -0.5227 -0.1081 -0.4613
12978TIP3    H160425   3.185   3.716  16.505  0.7719  0.0143 -0.4976
12978TIP3    H260426   3.285   3.603  16.519 -0.3556 -0.8061  1.1498
12979TIP3   OH260427   2.897   2.658   5.598  0.0258  0.5095  0.6411
12979TIP3    H160428   2.813   2.648   5.642 -0.4898  0.3700 -0.3656
12979TIP3    H260429   2.875   2.670   5.506  1.1160  0.3162  0.3454
12980TIP3   OH260430   5.193   1.149  14.415  0.4309  0.1210  0.1412
12980TIP3    H160431   5.243   1.227  14.437  1.2898  0.0026 -1.3584
12980TIP3    H260432   5.248   1.101  14.353 -1.5319 -0.0092 -1.5667
12981TIP3   OH260433   6.416   3.622   5.665 -0.2546  0.0168 -0.1039
12981TIP3    H160434   6.353   3.685   5.632 -0.7498  1.4309  3.2842
12981TIP3    H260435   6.363   3.545   5.688 -0.3287  0.1160  0.0586
12982TIP3   OH260436   1.288   5.560   1.048  0.4411  0.0994  0.7079
12982TIP3    H160437   1.252   5.610   1.121  1.2842  1.5556  0.1474
12982TIP3    H260438   1.382   5.556   1.067  0.5565 -0.1533  0.0774
12983TIP3   OH260439   2.103   2.497   5.759  0.0745  0.3198  0.1245
12983TIP3    H160440   2.071   2.436   5.825 -0.8279  1.0295  0.3479
12983TIP3    H260441   2.078   2.584   5.791  0.9822  0.7825 -0.3906
12984TIP3   OH260442   4.157   3.788   2.725 -0.0088  0.1054  0.2983
12984TIP3    H160443   4.134   3.872   2.764 -0.1361  1.2060 -2.0583
12984TIP3    H260444   4.092   3.775   2.656  1.0255 -1.1175 -0.4677
12985TIP3   OH260445   5.737   1.899  12.225 -0.7108 -0.0675  1.0139
12985TIP3    H160446   5.796   1.840  12.178 -0.5720  1.6867 -1.0882
12985TIP3    H260447   5.711   1.850  12.304  2.2877 -1.4621  1.1892
12986TIP3   OH260448   2.551   5.713   0.063 -0.3454 -0.4333 -0.1507
12986TIP3    H160449   2.584   5.631   0.026 -0.0806 -0.2174 -0.3953
12986TIP3    H260450   2.578   5.711   0.155  1.5339  0.3616 -0.6656
12987TIP3   OH260451   4.618   4.026  13.763 -0.1065  0.5721 -0.3474
12987TIP3    H160452   4.616   3.932  13.781  1.0349  0.8223  1.1331
12987TIP3    H260453   4.687   4.060  13.820 -0.9204  2.4052 -0.4355
12988TIP3   OH260454   5.696   5.491  12.580  0.3654  0.3444  0.1966
12988TIP3    H160455   5.711   5.579  12.614  2.7484  1.5255 -3.6176
12988TIP3    H260456   5.736   5.433  12.645 -1.3104  2.0068  2.8091
12989TIP3   OH260457   3.671   3.119  13.650 -0.8931  0.2124  0.2384
12989TIP3    H160458   3.732   3.046  13.643 -1.5800 -0.4450  1.1058
12989TIP3    H260459   3.703   3.171  13.724 -1.4064 -0.1548  0.7213
12990TIP3   OH260460   3.163   0.154  13.260 -0.0337 -0.2430  0.0652
12990TIP3    H160461   3.089   0.153  13.199  0.3871  0.2698 -0.4573
12990TIP3    H260462   3.204   0.068  13.248  0.7991  0.3212 -1.3116
12991TIP3   OH260463   4.346   1.482  11.646  0.4269 -0.0138 -0.4601
12991TIP3    H160464   4.258   1.450  11.665  0.2800 -0.5346 -1.8925
12991TIP3    H260465   4.372   1.432  11.569  2.2731 -0.3891  0.3950
12992TIP3   OH260466   4.927   1.216   1.871  0.2291 -0.0983  0.6180
12992TIP3    H160467   4.883   1.291   1.912  0.9394  1.2046 -0.9850
12992TIP3    H260468   4.857   1.153   1.855 -0.6773  0.9852  0.2807
12993TIP3   OH260469   4.732   4.757  13.312  0.6274 -0.2784 -0.6184
12993TIP3    H160470   4.716   4.838  13.362  1.6338 -0.8033  0.5841
12993TIP3    H260471   4.821   4.767  13.279  0.5652 -0.6863 -0.9078
12994TIP3   OH260472   2.702   4.581   1.680  0.1101  0.2926 -0.6011
12994TIP3    H160473   2.767   4.511   1.686 -0.1884  0.1743  1.5220
12994TIP3    H260474   2.623   4.544   1.719  0.0617  1.9322  0.8876
12995TIP3   OH260475   5.143   2.019   0.503 -0.1543  0.3128  0.6202
12995TIP3    H160476   5.074   2.024   0.570 -1.2514  0.1223 -0.4696
12995TIP3    H260477   5.103   2.058   0.425 -0.1525 -2.7015 -0.9503
12996TIP3   OH260478   4.324   3.201  12.973  0.7949  0.3201  0.0680
12996TIP3    H160479   4.411   3.166  12.954  0.2693 -0.9978  0.0306
12996TIP3    H260480   4.288   3.141  13.039  0.3059  1.4414  0.8370
12997TIP3   OH260481   2.963   0.350   2.097 -0.2252  0.2822  0.5471
12997TIP3    H160482   3.034   0.365   2.160  0.0562 -2.4529  0.9330
12997TIP3    H260483   3.008   0.325   2.016 -0.6834  0.9871  0.0701
12998TIP3   OH260484   0.347   2.022   3.230 -0.4247 -0.1342  0.2607
12998TIP3    H160485   0.386   2.055   3.311  0.1930 -0.0130 -0.0799
12998TIP3    H260486   0.253   2.033   3.242 -0.4721 -1.8562  1.7408
12999TIP3   OH260487   3.837   6.600  15.318 -0.1118  0.0308  0.1748
12999TIP3    H160488   3.817   6.506  15.316 -1.2845  0.1628  2.6654
12999TIP3    H260489   3.756   6.642  15.291  0.9970  0.3319 -2.8471
13000TIP3   OH260490   5.411   5.162  15.423  0.4236 -0.1208  0.2414
13000TIP3    H160491   5.395   5.071  15.449  1.1294 -0.2267  0.2923
13000TIP3    H260492   5.484   5.190  15.477  0.4581  0.3615 -0.0525
13001TIP3   OH260493   1.872   0.275   0.258  0.1982 -0.1423 -0.3332
13001TIP3    H160494   1.852   0.195   0.308 -1.0811 -0.7901 -1.8542
13001TIP3    H260495   1.838   0.346   0.313  0.5233 -0.6926  0.6046
13002TIP3   OH260496   4.278   1.432   3.022 -0.0278  0.9611  0.1409
13002TIP3    H160497   4.357   1.445   3.074 -1.1824  1.5254  1.7909
13002TIP3    H260498   4.280   1.340   2.998  0.6643  0.7532  0.9513
13003TIP3   OH260499   1.631   6.123  12.535  0.2649 -0.1337  0.1885
13003TIP3    H160500   1.541   6.104  12.561  0.5372 -1.4861  0.1396
13003TIP3    H260501   1.628   6.123  12.439  0.5212 -1.1140  0.1847
13004TIP3   OH260502   3.911   3.930  10.666 -0.3474 -1.0633  0.2233
13004TIP3    H160503   3.971   3.914  10.594  0.8471 -1.9450  1.3752
13004TIP3    H260504   3.913   3.849  10.718 -4.0607 -1.8891 -0.7583
13005TIP3   OH260505   1.173   1.717   2.536  0.2994 -0.1941 -0.3067
13005TIP3    H160506   1.189   1.629   2.501 -1.0779 -0.1424 -1.0982
13005TIP3    H260507   1.239   1.772   2.495  0.7620 -0.7315 -0.2969
13006TIP3   OH260508   6.564   1.434  14.674 -0.2755  0.9234 -0.2728
13006TIP3    H160509   6.543   1.527  14.669 -0.2686  0.9276 -0.2297
13006TIP3    H260510   6.624   1.427  14.748 -0.1813  0.9020 -0.3508
13007TIP3   OH260511   1.754   0.660  15.908  0.2419 -0.1515 -0.4180
13007TIP3    H160512   1.818   0.612  15.960 -1.0710 -0.5054  0.9432
13007TIP3    H260513   1.689   0.595  15.884 -1.7083  0.9077  1.6811
13008TIP3   OH260514   5.334   4.219   4.017  0.1278  0.4159 -0.3833
13008TIP3    H160515   5.402   4.155   3.997 -0.5443 -0.4960  0.1850
13008TIP3    H260516   5.289   4.183   4.094 -0.4206  1.4436 -0.2159
13009TIP3   OH260517   4.262   0.421   6.046 -0.1183  0.0233  0.0262
13009TIP3    H160518   4.338   0.473   6.070  0.0650 -0.8265  1.3448
13009TIP3    H260519   4.220   0.470   5.976 -0.1521  2.1062  1.4797
13010TIP3   OH260520   6.496   1.380  11.658 -0.3057  0.1839 -0.1431
13010TIP3    H160521   6.559   1.363  11.728  1.4851  3.0313 -1.0081
13010TIP3    H260522   6.515   1.314  11.592 -0.1832 -0.7913  0.8490
13011TIP3   OH260523   0.973   6.477  11.784 -0.0818  0.3735 -0.0089
13011TIP3    H160524   0.907   6.496  11.717 -0.8914  0.3655  0.7787
13011TIP3    H260525   0.950   6.389  11.816  0.4621  0.2681  0.0921
13012TIP3   OH260526   2.915   3.174   4.560 -0.3161  0.4142 -0.9915
13012TIP3    H160527   2.864   3.216   4.490  2.2111  2.5316 -1.6619
13012TIP3    H260528   2.933   3.086   4.527 -0.8801  0.7029 -2.1003
13013TIP3   OH260529   3.845   0.881   5.648 -0.0599 -0.0523  0.3725
13013TIP3    H160530   3.769   0.837   5.608  1.2237  0.8870 -3.3181
13013TIP3    H260531   3.898   0.809   5.682 -0.5748 -1.0031 -0.7958
13014TIP3   OH260532   1.407   2.697  11.496 -0.3568  0.5796  0.2754
13014TIP3    H160533   1.391   2.719  11.404  1.3515  0.9758  0.0525
13014TIP3    H260534   1.368   2.611  11.508  1.0924 -0.3266 -1.3444
13015TIP3   OH260535   4.926   4.461   0.029 -0.7350  0.2067 -0.1969
13015TIP3    H160536   4.941   4.465   0.123  2.9911 -0.2224 -0.6821
13015TIP3    H260537   4.859   4.394   0.017 -0.9317 -0.0226  2.1286
13016TIP3   OH260538   5.299   0.042   0.103 -0.0953 -0.0682  0.1421
13016TIP3    H160539   5.338   0.036   0.190  1.0428 -0.7737 -0.4057
13016TIP3    H260540   5.290   0.136   0.087 -1.5116  0.0537  1.5420
13017TIP3   OH260541   5.591   6.622   1.503 -1.0571  0.4836  0.0162
13017TIP3    H160542   5.686   6.609   1.497 -1.1373 -0.0731 -0.0808
13017TIP3    H260543   5.555   6.569   1.432 -1.4537  0.5262  0.1862
13018TIP3   OH260544   0.405   1.024   5.963  0.0555 -0.5284  1.3861
13018TIP3    H160545   0.436   1.020   6.054  0.2720 -0.0638  1.3334
13018TIP3    H260546   0.323   1.074   5.968  0.7505  0.6524  1.1483
13019TIP3   OH260547   6.812   0.507   3.247  0.4116  0.1245  0.1246
13019TIP3    H160548   6.878   0.461   3.299 -0.8406 -0.9896  0.7622
13019TIP3    H260549   6.813   0.596   3.281  1.1697 -0.0278  0.5196
13020TIP3   OH260550   4.593   3.586  14.412  0.1267 -0.0523 -0.2650
13020TIP3    H160551   4.571   3.608  14.321 -0.3546 -0.4183 -0.2424
13020TIP3    H260552   4.687   3.603  14.419  0.1452  0.0926 -0.7967
13021TIP3   OH260553   6.069   1.440  14.286 -0.0906 -0.1670  0.1514
13021TIP3    H160554   6.002   1.394  14.335 -1.0026 -0.6166 -1.4931
13021TIP3    H260555   6.064   1.403  14.197  1.8176  0.3091 -0.1858
13022TIP3   OH260556   3.861   0.879  11.496 -0.0157  0.2440 -0.1701
13022TIP3    H160557   3.768   0.861  11.479 -0.0951 -0.3502  0.8572
13022TIP3    H260558   3.898   0.895  11.409 -0.9693 -0.0449 -0.6421
13023TIP3   OH260559   4.196   2.220  12.554  0.8293 -0.0087  0.3989
13023TIP3    H160560   4.125   2.220  12.489  0.3700 -0.2559  0.8994
13023TIP3    H260561   4.190   2.135  12.596  2.3181 -0.5837 -0.5207
13024TIP3   OH260562   3.256   2.334   3.389  0.6606  0.2013 -0.3900
13024TIP3    H160563   3.200   2.276   3.338  0.3799  0.4380 -0.3496
13024TIP3    H260564   3.340   2.332   3.343  0.6205 -0.1461 -0.4530
13025TIP3   OH260565   5.198   4.129   1.255  0.6365  0.1096  0.0059
13025TIP3    H160566   5.185   4.079   1.336 -1.1737  0.1930 -0.2145
13025TIP3    H260567   5.219   4.217   1.285  0.9074 -0.0793  0.3810
13026TIP3   OH260568   4.511   4.475  12.057  0.1495  0.5698  0.2242
13026TIP3    H160569   4.496   4.448  12.147  0.2384 -1.7953 -0.4389
13026TIP3    H260570   4.605   4.491  12.052  0.1492  0.6765  0.5394
13027TIP3   OH260571   4.641   4.178  14.117 -0.2517  0.2433 -0.1566
13027TIP3    H160572   4.654   4.083  14.124 -1.9947  0.0943  1.7295
13027TIP3    H260573   4.683   4.202  14.035  3.1737 -1.6387  0.9291
13028TIP3   OH260574   2.501   3.866  15.936  0.2944  0.4923 -0.5183
13028TIP3    H160575   2.596   3.857  15.952 -0.0675 -1.2173  0.8436
13028TIP3    H260576   2.477   3.786  15.890 -1.2788 -1.2967  3.1958
13029TIP3   OH260577   6.371   3.915  11.074  0.4617  0.2306 -0.5065
13029TIP3    H160578   6.278   3.938  11.072  0.0170 -1.4984 -2.2863
13029TIP3    H260579   6.402   3.937  10.986  0.6963 -3.0205 -1.2942
13030TIP3   OH260580   4.080   6.095   1.033 -0.2826  0.3659  0.6357
13030TIP3    H160581   3.984   6.098   1.023 -0.1266  1.4669 -0.7393
13030TIP3    H260582   4.110   6.175   0.989  1.0691  1.5005  3.5463
13031TIP3   OH260583   0.378   0.991   1.333  0.5777 -0.2622  0.3885
13031TIP3    H160584   0.445   0.933   1.370 -0.0407 -0.9061  0.4970
13031TIP3    H260585   0.342   1.037   1.408 -1.3627 -2.2798  0.7414
13032TIP3   OH260586   4.264   5.323  13.439  0.0484  0.0402 -0.1151
13032TIP3    H160587   4.193   5.267  13.408 -0.6264  1.2707 -0.8231
13032TIP3    H260588   4.303   5.359  13.360 -0.2765  1.4776  0.3725
13033TIP3   OH260589   5.851   5.687   4.331  0.1266  0.2077 -0.0079
13033TIP3    H160590   5.872   5.729   4.247 -0.4983 -0.1721 -0.3576
13033TIP3    H260591   5.928   5.634   4.351  0.0184 -0.2072 -0.6707
13034TIP3   OH260592   1.365   4.892  14.901 -0.1211  0.2252  0.4099
13034TIP3    H160593   1.330   4.946  14.971 -0.4679 -1.5347  1.6283
13034TIP3    H260594   1.458   4.884  14.920 -0.2625 -0.4664  0.8197
13035TIP3   OH260595   0.173   4.749   3.635 -0.1370  0.4013  0.0329
13035TIP3    H160596   0.267   4.734   3.625 -0.6252 -1.7277 -1.9014
13035TIP3    H260597   0.139   4.667   3.672 -1.1816  1.2752  1.0282
13036TIP3   OH260598   0.334   5.201  16.728 -0.7773  0.4033  0.5022
13036TIP3    H160599   0.378   5.227  16.809  0.0229 -1.7270  0.7898
13036TIP3    H260600   0.265   5.140  16.757 -0.1721 -0.7426 -0.4432
13037TIP3   OH260601   2.753   6.818  12.678  0.7485  0.0181 -0.1493
13037TIP3    H160602   2.720   6.775  12.757  0.8415 -0.7440 -0.5170
13037TIP3    H260603   2.674   6.848  12.633  0.5468 -1.4939 -0.8541
13038TIP3   OH260604   1.497   6.378   0.951  0.9585 -0.0841  0.0113
13038TIP3    H160605   1.551   6.311   0.907  0.7129  0.5573 -1.2886
13038TIP3    H260606   1.444   6.328   1.013  0.5579 -1.1425 -1.1544
13039TIP3   OH260607   1.608   2.660   1.488  0.3630 -0.4719 -0.7889
13039TIP3    H160608   1.526   2.692   1.452  0.2843  0.7856  0.5103
13039TIP3    H260609   1.608   2.566   1.467  0.2116  0.1445 -3.8415
13040TIP3   OH260610   3.347   1.412  14.047  0.6539 -0.2694  0.0899
13040TIP3    H160611   3.388   1.343  13.995 -1.1441 -1.0674 -0.2975
13040TIP3    H260612   3.387   1.493  14.015 -0.8725 -0.6737 -3.0712
13041TIP3   OH260613   3.849   5.357   2.868 -0.0446  0.2558  0.7528
13041TIP3    H160614   3.851   5.270   2.827  0.8729 -0.4251  2.2208
13041TIP3    H260615   3.756   5.382   2.866 -0.0254  0.2807 -1.7727
13042TIP3   OH260616   6.138   0.610   0.713 -0.2776 -0.3988  0.3222
13042TIP3    H160617   6.171   0.666   0.784 -0.3907 -0.0535  0.1066
13042TIP3    H260618   6.164   0.522   0.738  2.3689  0.0308 -0.6852
13043TIP3   OH260619   6.503   3.623  17.232  0.7284  0.0076 -0.6047
13043TIP3    H160620   6.501   3.575  17.315 -0.7826 -0.4710 -0.8895
13043TIP3    H260621   6.581   3.591  17.188 -0.3020 -2.3352 -0.8315
13044TIP3   OH260622   0.730   1.441   2.934 -0.0732  0.2414 -0.2390
13044TIP3    H160623   0.708   1.514   2.876 -0.2932 -0.9251 -1.6434
13044TIP3    H260624   0.787   1.385   2.882 -0.2920 -0.8450  0.6648
13045TIP3   OH260625   5.938   1.233   4.497  0.2264  0.0605 -0.1030
13045TIP3    H160626   5.926   1.293   4.424 -0.6066  0.5052  0.3904
13045TIP3    H260627   5.863   1.250   4.555  0.8679 -0.2881  0.8462
13046TIP3   OH260628   0.892   1.967  13.372  0.6733 -0.4017  0.4784
13046TIP3    H160629   0.941   1.927  13.443 -2.0046 -2.0633  1.4584
13046TIP3    H260630   0.895   1.902  13.302  0.8479  0.0054  0.1036
13047TIP3   OH260631   3.612   6.288   0.695  0.1668  0.4620 -0.4309
13047TIP3    H160632   3.534   6.295   0.749  1.1171 -0.8516  1.1661
13047TIP3    H260633   3.599   6.208   0.644  0.2211  0.5439 -0.5729
13048TIP3   OH260634   5.027   3.231   0.298  0.4242  0.2776 -0.1101
13048TIP3    H160635   5.104   3.180   0.272  1.2790  1.5422 -0.1385
13048TIP3    H260636   4.976   3.240   0.218  0.2103 -0.6416 -0.0728
13049TIP3   OH260637   2.366   0.934  12.863  0.3407 -0.1078 -0.0849
13049TIP3    H160638   2.382   0.848  12.824  0.6926 -0.8682  1.7032
13049TIP3    H260639   2.334   0.915  12.951  0.1406  1.5936  0.2242
13050TIP3   OH260640   3.591   0.973  14.020 -0.1257  0.2282 -0.4033
13050TIP3    H160641   3.685   0.984  14.001 -0.4134  1.0668 -1.3963
13050TIP3    H260642   3.583   0.881  14.048  0.9873  0.1434 -0.3322
13051TIP3   OH260643   6.777   0.378   2.247  0.2297  0.0895  0.1460
13051TIP3    H160644   6.701   0.332   2.283 -0.5049  0.2372 -1.1864
13051TIP3    H260645   6.740   0.458   2.208  1.2633  0.9305  0.8564
13052TIP3   OH260646   3.633   3.301   5.846 -0.1153  0.2953  0.3687
13052TIP3    H160647   3.681   3.232   5.892 -0.3309  0.3559  0.6876
13052TIP3    H260648   3.547   3.263   5.829 -0.0359  0.2738  0.0167
13053TIP3   OH260649   5.879   6.659   5.049  0.3375  0.0994 -0.6029
13053TIP3    H160650   5.948   6.620   4.995  0.6765 -1.1010  0.6789
13053TIP3    H260651   5.835   6.721   4.991  1.5875 -0.1637 -1.8484
13054TIP3   OH260652   0.479   4.817  16.241  0.1514 -0.0174 -0.0222
13054TIP3    H160653   0.486   4.723  16.253 -1.2339 -0.4718 -2.3949
13054TIP3    H260654   0.406   4.843  16.297 -1.6125 -0.9245 -1.8415
13055TIP3   OH260655   2.018   5.962   6.672  0.0111  0.4890  0.9527
13055TIP3    H160656   1.967   5.948   6.752  1.4643 -1.6822  1.5518
13055TIP3    H260657   2.081   6.030   6.695 -0.6745  1.0683  1.1287
13056TIP3   OH260658   6.342   2.484   1.640 -0.1375  0.2764  0.2227
13056TIP3    H160659   6.351   2.511   1.731 -2.3793  0.8872  0.2757
13056TIP3    H260660   6.404   2.539   1.593 -0.5675  1.5310  1.0911
13057TIP3   OH260661   0.442   5.412   4.463  0.2486 -0.1196  0.5361
13057TIP3    H160662   0.502   5.342   4.439  0.5853 -0.1059  1.3173
13057TIP3    H260663   0.367   5.400   4.405  1.8031  1.0380 -1.7908
13058TIP3   OH260664   5.629   2.972   0.772 -0.5863 -0.5215 -0.1090
13058TIP3    H160665   5.676   2.949   0.852  0.6548 -0.1987 -0.7235
13058TIP3    H260666   5.671   2.918   0.704 -2.1584 -1.3900 -0.4121
13059TIP3   OH260667   2.078   2.791   5.514 -0.3081 -0.0658  0.2470
13059TIP3    H160668   2.091   2.886   5.518  0.6332 -0.2164  0.8109
13059TIP3    H260669   2.039   2.769   5.598  0.7168 -0.3760  0.6328
13060TIP3   OH260670   6.057   4.562   4.555  0.2063  0.3328  0.5395
13060TIP3    H160671   6.110   4.626   4.506  0.6899 -0.7539 -0.3848
13060TIP3    H260672   6.034   4.496   4.490 -2.1557  0.6871  0.9796
13061TIP3   OH260673   3.276   1.919   2.906  0.0011 -0.1344 -0.1137
13061TIP3    H160674   3.295   1.983   2.837  0.4567  1.4208  1.4137
13061TIP3    H260675   3.337   1.846   2.888  0.8819  0.7280 -0.7090
13062TIP3   OH260676   6.079   4.606  15.937  0.1177  0.0848 -0.9466
13062TIP3    H160677   6.083   4.685  15.884 -1.5004  0.0674 -1.0944
13062TIP3    H260678   6.168   4.570  15.932  0.8511  1.8541 -0.9022
13063TIP3   OH260679   0.061   2.678   5.664  0.2778  0.6278 -0.9556
13063TIP3    H160680  -0.007   2.666   5.730  1.0931  1.0035 -0.0330
13063TIP3    H260681   0.033   2.753   5.612 -0.9602 -0.4032 -1.7968
13064TIP3   OH260682   2.926   0.903  14.183 -0.0878 -0.5577 -0.0104
13064TIP3    H160683   2.894   0.834  14.124 -0.6618 -0.9673  0.7750
13064TIP3    H260684   2.896   0.985  14.142 -0.5522 -0.8434 -0.2508
13065TIP3   OH260685   0.010   4.269  14.967 -0.0821  0.3915  0.5776
13065TIP3    H160686  -0.006   4.191  15.020  1.3947 -0.1347  0.2654
13065TIP3    H260687  -0.048   4.258  14.891  0.2437 -0.4923  0.4471
13066TIP3   OH260688   2.873   5.193  11.360  0.4539  0.3725  0.0494
13066TIP3    H160689   2.859   5.213  11.268  1.6569  1.3390  0.0537
13066TIP3    H260690   2.786   5.187  11.398 -0.0073  1.6229 -0.8144
13067TIP3   OH260691   1.609   3.256   3.387  0.6172  0.0952  0.6386
13067TIP3    H160692   1.516   3.249   3.408  0.6692  0.3502  0.9674
13067TIP3    H260693   1.628   3.179   3.334 -0.2514  1.0903 -1.1792
13068TIP3   OH260694   2.481   2.150   3.300 -0.4098 -0.2592  0.5416
13068TIP3    H160695   2.428   2.165   3.379  1.7481  0.3268  1.9120
13068TIP3    H260696   2.571   2.146   3.332  0.2107 -3.7006 -1.4170
13069TIP3   OH260697   4.623   6.488   0.111 -0.0990 -0.1685 -0.1459
13069TIP3    H160698   4.684   6.415   0.097  0.5032  0.3420 -0.2363
13069TIP3    H260699   4.630   6.541   0.032 -0.4965  0.0128 -0.0615
13070TIP3   OH260700   3.817   0.233   1.759 -0.1552 -0.3210 -0.6906
13070TIP3    H160701   3.811   0.206   1.668 -0.6805 -0.1039 -0.7239
13070TIP3    H260702   3.754   0.177   1.805 -1.2124  0.7760 -0.7501
13071TIP3   OH260703   2.581   3.952  15.657 -0.5621 -0.0371  0.5677
13071TIP3    H160704   2.638   3.878  15.639 -0.9173 -0.6585  1.9931
13071TIP3    H260705   2.521   3.922  15.725 -1.4726  1.1731  0.3380
13072TIP3   OH260706   2.432   1.958  16.532  0.2162 -0.3369 -0.3511
13072TIP3    H160707   2.435   1.957  16.436 -2.3532 -0.5446 -0.4723
13072TIP3    H260708   2.498   2.022  16.557  2.0484 -1.4477 -2.1850
13073TIP3   OH260709   5.228   0.452  11.208 -0.7229 -0.0418 -0.2061
13073TIP3    H160710   5.215   0.484  11.119 -1.3935  1.3709  0.3830
13073TIP3    H260711   5.165   0.381  11.217 -1.2349  0.3492 -0.6048
13074TIP3   OH260712   3.778   5.279  16.810 -0.2368 -0.2961 -0.3391
13074TIP3    H160713   3.852   5.253  16.755  0.0652  0.2121 -0.1811
13074TIP3    H260714   3.818   5.319  16.887 -0.6732  0.0800 -0.3009
13075TIP3   OH260715   3.357   3.258   5.823 -0.0121 -0.2144  0.4064
13075TIP3    H160716   3.315   3.190   5.876 -0.4047 -0.2864  0.0088
13075TIP3    H260717   3.324   3.341   5.860  0.6560 -0.2269  1.0499
13076TIP3   OH260718   4.381   4.579  16.251  0.5104 -0.5393 -0.3883
13076TIP3    H160719   4.414   4.600  16.338 -0.1323 -0.9604 -0.0361
13076TIP3    H260720   4.292   4.614  16.251 -0.9460 -3.9869  0.5448
13077TIP3   OH260721   3.211   3.375   0.269 -0.1195  0.3047 -0.0808
13077TIP3    H160722   3.121   3.407   0.267  0.0051  0.7119  0.6566
13077TIP3    H260723   3.265   3.454   0.263  0.1892  0.0733 -0.3741
13078TIP3   OH260724   5.052   6.202   4.508  0.1600  0.1296  0.7386
13078TIP3    H160725   4.977   6.262   4.505 -0.5538 -0.8076 -0.9301
13078TIP3    H260726   5.012   6.116   4.523  0.8342 -0.4660 -0.7988
13079TIP3   OH260727   5.899   5.935  10.444  0.2916 -0.3460  0.1730
13079TIP3    H160728   5.845   5.946  10.366  0.8396  2.0445  0.1026
13079TIP3    H260729   5.978   5.892  10.413 -0.1339 -0.8078 -0.2885
13080TIP3   OH260730   4.064   4.712  15.492  0.3200 -0.0528 -0.2696
13080TIP3    H160731   4.081   4.620  15.472 -0.6786 -0.1671 -0.5988
13080TIP3    H260732   3.982   4.711  15.541 -0.4000  0.7923 -1.4660
13081TIP3   OH260733   4.130   5.253  11.659 -0.0703 -0.1829  0.1631
13081TIP3    H160734   4.194   5.267  11.729 -1.3882 -0.3442  1.4233
13081TIP3    H260735   4.170   5.187  11.603  0.9709 -0.1146  0.8053
13082TIP3   OH260736   4.033   5.915   4.553  0.6523  0.2682 -0.2231
13082TIP3    H160737   3.946   5.910   4.514  0.0510  3.5509  0.5534
13082TIP3    H260738   4.086   5.962   4.488  1.2870  0.1770  0.2229
13083TIP3   OH260739   4.396   2.775   3.490 -0.1229  0.1436  0.2428
13083TIP3    H160740   4.395   2.832   3.413  1.1726 -0.8002 -0.4821
13083TIP3    H260741   4.313   2.728   3.486 -0.4624  0.7561 -0.0727
13084TIP3   OH260742   4.055   3.242  12.941 -0.0370  0.1676 -0.1706
13084TIP3    H160743   4.150   3.243  12.944 -0.0262 -0.1417 -0.3700
13084TIP3    H260744   4.028   3.231  13.032  0.1492 -1.6437 -0.3155
13085TIP3   OH260745   1.238   5.344  17.251 -0.0377  0.2362 -0.9561
13085TIP3    H160746   1.199   5.401  17.317  1.8255  1.2931 -0.7393
13085TIP3    H260747   1.306   5.397  17.210  1.4391 -1.6759 -1.0665
13086TIP3   OH260748   6.051   3.250  12.049  0.3014 -0.1390 -0.5641
13086TIP3    H160749   6.135   3.260  12.093  0.0319  0.7819 -0.2553
13086TIP3    H260750   6.006   3.181  12.098 -0.1728  1.1770  0.8788
13087TIP3   OH260751   5.273   5.136   5.653 -0.1302 -0.3296 -0.0413
13087TIP3    H160752   5.231   5.056   5.622  0.5505 -0.9104  0.5194
13087TIP3    H260753   5.352   5.144   5.599 -0.6586  0.4475 -0.7021
13088TIP3   OH260754   2.460   6.119   2.047  0.0525  0.1795 -0.5759
13088TIP3    H160755   2.477   6.212   2.030  1.1070  0.1800  0.3994
13088TIP3    H260756   2.415   6.119   2.132  0.4310 -0.2197 -0.3743
13089TIP3   OH260757   5.124   5.858   5.092  0.1756  0.4856 -0.4479
13089TIP3    H160758   5.160   5.891   5.174 -0.8290  1.6923 -0.4735
13089TIP3    H260759   5.157   5.918   5.025  3.1413 -2.0133 -1.3200
13090TIP3   OH260760   3.291   1.186  15.713 -0.0889 -0.1975  0.3140
13090TIP3    H160761   3.378   1.209  15.747  0.4187 -1.5139 -0.0828
13090TIP3    H260762   3.240   1.266  15.725  0.6684  0.0402  2.2309
13091TIP3   OH260763   3.985   4.371   3.298 -0.0567  0.1955  0.3787
13091TIP3    H160764   3.920   4.302   3.312  0.7210 -0.8032 -0.7944
13091TIP3    H260765   4.008   4.364   3.205  1.6790  0.5804  0.7533
13092TIP3   OH260766   1.420   4.182   5.725 -0.4041  0.0092  0.1283
13092TIP3    H160767   1.429   4.245   5.797  1.8366 -1.9264  1.6261
13092TIP3    H260768   1.494   4.200   5.668 -1.8945  1.2015 -1.4803
13093TIP3   OH260769   4.033   4.533   3.536 -0.1030 -0.2958  0.5092
13093TIP3    H160770   3.996   4.476   3.469 -0.2358 -0.0084  0.3356
13093TIP3    H260771   4.024   4.621   3.500  1.9257 -0.3151 -0.0771
13094TIP3   OH260772   5.989   5.637  14.299 -0.2772  0.2826 -0.2385
13094TIP3    H160773   6.070   5.589  14.285 -1.6188 -1.7655 -1.1963
13094TIP3    H260774   5.994   5.667  14.389  3.3137  3.6609 -1.4039
13095TIP3   OH260775   5.948   4.932  17.232  0.2188 -0.0158 -0.2344
13095TIP3    H160776   5.895   4.907  17.156  2.2998  0.8813 -2.0216
13095TIP3    H260777   5.989   4.850  17.260 -1.1847 -0.5034  0.4713
13096TIP3   OH260778   0.924   3.885  13.311  0.0994  0.3931 -0.5466
13096TIP3    H160779   0.833   3.912  13.321  0.2514  1.1644 -1.1371
13096TIP3    H260780   0.939   3.821  13.381 -0.5207  1.2305  0.3606
13097TIP3   OH260781   3.275   5.662  12.325  0.0355  0.2694  0.5003
13097TIP3    H160782   3.210   5.717  12.281  0.5855 -0.5369 -1.3622
13097TIP3    H260783   3.334   5.725  12.367  0.5310  1.1199 -1.4132
13098TIP3   OH260784   0.019   0.182  16.204 -0.1177 -0.7542 -0.5671
13098TIP3    H160785   0.106   0.152  16.177 -0.6210 -2.4914 -0.3286
13098TIP3    H260786   0.017   0.166  16.298  0.6748  2.8400  0.1361
13099TIP3   OH260787   0.220   6.719  15.111  0.5159  0.7883  0.4457
13099TIP3    H160788   0.169   6.678  15.040  0.9745  0.4045  0.3301
13099TIP3    H260789   0.179   6.804  15.124 -1.0876 -0.1081  1.3752
13100TIP3   OH260790   4.518   4.252   1.226 -0.6465  0.6899 -0.1513
13100TIP3    H160791   4.430   4.240   1.263 -0.9826 -0.7125 -1.3736
13100TIP3    H260792   4.503   4.267   1.133  0.3359  1.8362 -0.1270
13101TIP3   OH260793   0.336   5.927  12.683  0.1622  0.8071 -0.1576
13101TIP3    H160794   0.295   5.844  12.708  0.4898  1.0365  1.1648
13101TIP3    H260795   0.351   5.972  12.766 -0.5590  2.4573 -0.9030
13102TIP3   OH260796   0.683   2.522  17.112  0.1183 -0.7329 -0.2395
13102TIP3    H160797   0.718   2.595  17.062  0.9263 -0.3654  0.8265
13102TIP3    H260798   0.754   2.499  17.173 -1.6119  0.3056  2.2618
13103TIP3   OH260799   6.349   2.650   4.149 -1.2743  0.0152  0.2779
13103TIP3    H160800   6.258   2.662   4.122 -0.9268  1.6959 -0.2003
13103TIP3    H260801   6.346   2.655   4.245 -1.6761  0.1927  0.2572
13104TIP3   OH260802   6.542   5.270   6.732  0.0255  0.2131  0.5539
13104TIP3    H160803   6.549   5.198   6.670 -1.1135 -0.2241  0.9198
13104TIP3    H260804   6.632   5.301   6.744  0.7544 -2.1717  1.6139
13105TIP3   OH260805   3.617   6.055  16.542 -0.0119  0.0962 -0.0534
13105TIP3    H160806   3.575   6.034  16.625 -2.4201 -1.1461 -1.5408
13105TIP3    H260807   3.669   5.977  16.521 -0.2902 -0.0333 -0.2575
13106TIP3   OH260808   5.791   4.784   6.283  0.1503  0.3945  0.2652
13106TIP3    H160809   5.871   4.819   6.321  0.7599 -0.7885  0.0884
13106TIP3    H260810   5.726   4.854   6.294  1.2072  1.3624  0.3920
13107TIP3   OH260811   4.309   5.794   4.374  0.0419 -0.3920  0.3717
13107TIP3    H160812   4.224   5.790   4.417 -0.4234  1.9042 -0.2322
13107TIP3    H260813   4.319   5.709   4.331 -2.5819 -0.1842 -0.7089
13108TIP3   OH260814   4.475   6.815   0.973 -0.1647  0.2642  0.2928
13108TIP3    H160815   4.381   6.830   0.970 -0.0830  0.6704 -0.4119
13108TIP3    H260816   4.485   6.730   1.016 -0.9031 -0.2457 -0.5312
13109TIP3   OH260817   4.581   3.565  15.766  0.0107  0.3548  0.0746
13109TIP3    H160818   4.554   3.607  15.684 -1.8496  0.4413  0.7025
13109TIP3    H260819   4.657   3.616  15.795  0.1183  0.8957 -1.1286
13110TIP3   OH260820   0.830   4.903   6.551 -0.0523 -0.1910  0.1037
13110TIP3    H160821   0.769   4.842   6.592 -1.6970  1.1564 -0.2992
13110TIP3    H260822   0.914   4.856   6.551 -1.0594 -2.0478  0.7035
13111TIP3   OH260823   6.066   2.832   2.899  0.1347 -0.2823  0.5146
13111TIP3    H160824   6.105   2.778   2.969  0.7385 -1.0462 -0.3894
13111TIP3    H260825   6.015   2.770   2.848  0.7206  0.0246 -0.4566
13112TIP3   OH260826   5.784   2.227   2.552  0.3034 -0.0484 -0.5547
13112TIP3    H160827   5.840   2.233   2.630 -0.2056  2.1002 -0.3338
13112TIP3    H260828   5.704   2.185   2.584 -0.2491  1.6252  0.2962
13113TIP3   OH260829   1.637   0.830   3.702  0.2553  0.1409  0.2894
13113TIP3    H160830   1.622   0.757   3.762 -0.8743  0.2017  0.0848
13113TIP3    H260831   1.722   0.810   3.661 -0.6119 -1.6945 -0.6731
13114TIP3   OH260832   2.491   0.670   1.101 -0.5621 -0.0865  0.1620
13114TIP3    H160833   2.454   0.661   1.189 -1.1801 -0.6769 -0.1535
13114TIP3    H260834   2.585   0.684   1.115 -0.7285  0.2783  0.9260
13115TIP3   OH260835   2.180   0.857  15.355  0.0371 -0.4597 -0.4487
13115TIP3    H160836   2.192   0.889  15.445  1.2421 -1.5720 -0.1894
13115TIP3    H260837   2.255   0.799  15.341 -0.6657 -1.0373 -1.8437
13116TIP3   OH260838   3.956   5.758  15.349  0.1573  0.3225 -0.2571
13116TIP3    H160839   4.035   5.705  15.340  0.8929  0.9842  2.0977
13116TIP3    H260840   3.976   5.838  15.300  0.8503  0.3751  0.0983
13117TIP3   OH260841   6.191   3.702   6.284  0.0850 -0.2727 -0.2020
13117TIP3    H160842   6.232   3.632   6.233 -3.4851 -1.9820 -0.8628
13117TIP3    H260843   6.218   3.684   6.374 -1.2053 -2.8597 -0.2785
13118TIP3   OH260844   3.551   2.436   4.357 -0.1201 -0.2238 -0.5051
13118TIP3    H160845   3.497   2.498   4.307 -1.4646 -0.7665  0.2270
13118TIP3    H260846   3.492   2.362   4.373  1.1737 -1.2739 -0.5425
13119TIP3   OH260847   4.528   5.112  11.985 -0.3356 -0.4756 -0.3293
13119TIP3    H160848   4.589   5.039  11.980 -2.0311 -1.9750  0.3629
13119TIP3    H260849   4.580   5.185  12.018  1.0724 -1.7179  0.2273
13120TIP3   OH260850   0.916   5.774  16.741  0.2736  0.1763 -0.0392
13120TIP3    H160851   0.945   5.796  16.652 -0.5174  1.7563  0.0670
13120TIP3    H260852   0.898   5.680  16.738  2.2433 -0.1822 -0.9812
13121TIP3   OH260853   2.421   4.760  17.204 -0.4299 -0.2621  0.6168
13121TIP3    H160854   2.510   4.788  17.226 -0.7842  0.7788  0.7591
13121TIP3    H260855   2.369   4.785  17.280 -1.0759  0.3207 -0.0101
13122TIP3   OH260856   1.578   6.404   5.884 -0.3940  0.2892 -0.1254
13122TIP3    H160857   1.551   6.387   5.974  1.1364 -0.3127  0.2369
13122TIP3    H260858   1.646   6.471   5.891  2.3542 -2.3261 -0.4550
13123TIP3   OH260859   4.534   4.059  11.757  1.3045 -0.0197  0.3791
13123TIP3    H160860   4.452   4.086  11.716  0.5333 -1.6050  0.8279
13123TIP3    H260861   4.599   4.119  11.721 -0.2312  2.0453  0.9326
13124TIP3   OH260862   0.495   6.196  15.422  0.7928 -0.1453 -0.5550
13124TIP3    H160863   0.551   6.273  15.433 -0.9499  1.0638  0.0781
13124TIP3    H260864   0.446   6.190  15.504  0.7318 -1.7925 -0.6920
13125TIP3   OH260865   1.178   2.844  16.483 -0.1861 -0.1917 -0.0587
13125TIP3    H160866   1.167   2.917  16.422  0.8480  0.3916  0.4263
13125TIP3    H260867   1.250   2.793  16.446 -2.1793 -2.0700 -1.4291
13126TIP3   OH260868   0.614   5.336   3.015  0.4774  0.0533 -0.5112
13126TIP3    H160869   0.549   5.403   2.995  1.1161  0.2810 -1.8879
13126TIP3    H260870   0.604   5.271   2.945  1.2692 -0.2460 -0.3497
13127TIP3   OH260871   0.342   4.969   3.141  0.1085 -0.2920 -0.0305
13127TIP3    H160872   0.315   4.917   3.217 -0.1446 -0.9962 -0.5966
13127TIP3    H260873   0.296   4.929   3.067  0.2538  0.4687 -0.5383
13128TIP3   OH260874   3.780   3.335  17.136  0.1442 -0.1224 -0.7709
13128TIP3    H160875   3.744   3.273  17.198  3.4785  0.2483  1.6856
13128TIP3    H260876   3.722   3.411  17.141  0.0564 -0.3128  1.4912
13129TIP3   OH260877   6.179   3.906   1.453  0.2027  0.3464  0.6231
13129TIP3    H160878   6.214   3.844   1.389 -0.1013  2.3850 -1.6052
13129TIP3    H260879   6.243   3.906   1.524 -0.0165 -2.7994  0.8671
13130TIP3   OH260880   6.062   3.411   2.100  0.2185  0.0876  0.0448
13130TIP3    H160881   6.033   3.481   2.040  0.4300  0.3130  0.2044
13130TIP3    H260882   5.995   3.343   2.090 -0.3666  0.5972  0.3942
13131TIP3   OH260883   4.966   4.964   3.315 -0.0259  0.1018 -0.3589
13131TIP3    H160884   5.001   4.906   3.383 -0.5833 -2.8455 -2.5159
13131TIP3    H260885   4.883   4.994   3.351  0.7060  0.3467  1.1869
13132TIP3   OH260886   2.962   3.715   2.259 -0.6393 -0.3933  0.0580
13132TIP3    H160887   2.875   3.702   2.220 -0.3606 -0.2960 -0.6119
13132TIP3    H260888   3.022   3.669   2.200 -0.1538  0.1482  0.1192
13133TIP3   OH260889   0.355   4.856  14.627 -0.2223  0.8507  0.2928
13133TIP3    H160890   0.414   4.781  14.622 -1.0456  0.2867 -0.9872
13133TIP3    H260891   0.392   4.919  14.566  0.0052  1.1802  0.7619
13134TIP3   OH260892   6.532   4.155   5.067  0.0223 -0.6100 -0.0879
13134TIP3    H160893   6.475   4.108   5.128  0.4556  0.7595  1.3875
13134TIP3    H260894   6.480   4.163   4.987 -0.2643 -3.0986 -0.2144
13135TIP3   OH260895   3.883   4.097   5.421 -0.2387  0.1498 -0.2351
13135TIP3    H160896   3.893   4.181   5.466  1.9470  0.2920 -0.8955
13135TIP3    H260897   3.819   4.113   5.353 -1.6397  0.6297  1.1703
13136TIP3   OH260898   0.291   1.971  16.715 -0.0530  0.2310  0.1194
13136TIP3    H160899   0.387   1.971  16.714 -0.0494  0.9843 -0.6295
13136TIP3    H260900   0.267   1.898  16.658  0.0826 -0.0090  0.3733
13137TIP3   OH260901   6.318   0.325  12.625 -0.0778  0.0690 -0.1381
13137TIP3    H160902   6.277   0.338  12.710  2.2734 -1.7714  1.3512
13137TIP3    H260903   6.390   0.388  12.623 -1.2739  1.4264 -1.5975
13138TIP3   OH260904   6.818   1.115  11.342 -0.1001 -0.1658 -0.2629
13138TIP3    H160905   6.854   1.195  11.305  1.4043 -0.5024  0.4261
13138TIP3    H260906   6.866   1.103  11.424  1.7280 -3.2483 -1.6799
13139TIP3   OH260907   1.867   1.698  11.603 -0.0242 -0.1991 -0.0411
13139TIP3    H160908   1.819   1.686  11.521 -0.7496 -1.3594  0.5352
13139TIP3    H260909   1.810   1.660  11.669 -0.0718  1.9928  1.2087
13140TIP3   OH260910   2.123   4.381   6.048  0.0948 -0.2423 -0.0447
13140TIP3    H160911   2.149   4.443   6.117  1.2701 -0.0863 -0.6325
13140TIP3    H260912   2.045   4.338   6.084 -1.8385  2.8516 -0.3425
13141TIP3   OH260913   6.158   0.794   2.556 -0.0382 -0.5325 -1.0278
13141TIP3    H160914   6.070   0.762   2.574 -0.7483  1.0604 -1.5317
13141TIP3    H260915   6.144   0.875   2.506  1.7232 -0.6927 -1.8247
13142TIP3   OH260916   2.563   6.780   4.776  0.1742 -0.5829  0.2679
13142TIP3    H160917   2.608   6.793   4.859  0.9192 -0.1520 -0.1928
13142TIP3    H260918   2.633   6.766   4.712 -0.3850 -0.8758 -0.2933
13143TIP3   OH260919   6.475   2.246  15.962 -0.3044  0.5416  0.3024
13143TIP3    H160920   6.550   2.304  15.953  1.3313 -1.5282  0.0564
13143TIP3    H260921   6.469   2.200  15.878 -0.6630 -0.6540  0.9647
13144TIP3   OH260922   3.615   0.645   0.073  0.3723 -0.1563 -0.4634
13144TIP3    H160923   3.556   0.585   0.027 -1.0024 -1.7536  3.2076
13144TIP3    H260924   3.701   0.605   0.064  0.1635 -0.3684 -1.7142
13145TIP3   OH260925   1.583   2.755  14.441  0.5167  0.4153 -0.5184
13145TIP3    H160926   1.620   2.671  14.415  0.6882  0.5810 -0.8126
13145TIP3    H260927   1.657   2.816  14.437  0.8719  0.1725  1.7266
13146TIP3   OH260928   4.147   2.591   2.678  0.1627 -0.6365 -0.2593
13146TIP3    H160929   4.226   2.589   2.731 -0.9206 -1.4886  1.3545
13146TIP3    H260930   4.082   2.635   2.732 -0.7344 -0.7631 -1.2017
13147TIP3   OH260931   2.132   1.388  17.132  0.0839 -0.2971  0.3228
13147TIP3    H160932   2.167   1.405  17.044 -1.5457  1.8723  0.0361
13147TIP3    H260933   2.051   1.439  17.135  0.2256 -0.1681  3.1669
13148TIP3   OH260934   1.947   1.107   3.500 -0.0182  0.2673 -0.7818
13148TIP3    H160935   1.964   1.195   3.467 -0.9427  0.9562  0.5532
13148TIP3    H260936   1.871   1.076   3.449  0.3735  0.1876 -1.3240
13149TIP3   OH260937   1.849   4.158  16.044  0.2092 -0.3788 -0.4227
13149TIP3    H160938   1.873   4.231  16.102  1.2208 -2.5036  1.9557
13149TIP3    H260939   1.933   4.126  16.010 -0.2349 -0.3466 -1.5585
13150TIP3   OH260940   5.492   2.421  17.014  0.3663 -0.4791 -0.1766
13150TIP3    H160941   5.567   2.479  16.999  0.0923 -0.0444  0.1131
13150TIP3    H260942   5.429   2.446  16.947  0.3309 -0.5851 -0.1815
13151TIP3   OH260943   5.902   4.362   3.096  0.2713  0.3408 -0.3303
13151TIP3    H160944   5.920   4.283   3.146 -0.1217  0.8754  0.6834
13151TIP3    H260945   5.988   4.393   3.067  0.5054  0.0392  0.0377
13152TIP3   OH260946   4.659   3.058  15.567  0.3198 -0.1435 -0.2017
13152TIP3    H160947   4.619   2.971  15.562 -0.0870  0.0617 -0.5526
13152TIP3    H260948   4.599   3.108  15.621  0.5059 -0.0539 -0.0791
13153TIP3   OH260949   0.771   3.693   0.505  1.1901 -0.0803 -0.4371
13153TIP3    H160950   0.857   3.654   0.521  1.9719  1.0635 -1.6310
13153TIP3    H260951   0.720   3.674   0.584  2.7998 -0.0889  0.6226
13154TIP3   OH260952   6.806   1.207   2.434 -0.1057  0.0890  0.0001
13154TIP3    H160953   6.881   1.224   2.376 -0.0757  0.5559  0.1707
13154TIP3    H260954   6.845   1.172   2.514 -0.1078 -0.1098 -0.0860
13155TIP3   OH260955   2.698   4.868   4.897 -0.0973  0.2043 -0.5581
13155TIP3    H160956   2.712   4.878   4.991 -0.7344 -1.0501 -0.3170
13155TIP3    H260957   2.786   4.860   4.860  0.0998 -2.1948  0.2944
13156TIP3   OH260958   5.413   5.277   5.864  0.2758 -0.3101 -0.7788
13156TIP3    H160959   5.482   5.326   5.909 -1.2127  1.5592 -0.4622
13156TIP3    H260960   5.458   5.205   5.821  2.2434  0.1259  0.5125
13157TIP3   OH260961   1.831   0.443   0.968  0.1870  0.0696  0.6822
13157TIP3    H160962   1.849   0.349   0.965 -0.0897  0.0276  0.2515
13157TIP3    H260963   1.849   0.474   0.879  2.1508  0.7872  1.3177
13158TIP3   OH260964   5.253   2.813  13.031 -0.8177 -0.2680 -0.5110
13158TIP3    H160965   5.276   2.720  13.024  2.0968  0.2946  0.7497
13158TIP3    H260966   5.334   2.859  13.008 -1.4496  1.9100  1.4466
13159TIP3   OH260967   0.518   2.869  16.904 -0.1207 -0.5590  0.2490
13159TIP3    H160968   0.577   2.805  16.864  0.2114  1.3115 -2.4069
13159TIP3    H260969   0.433   2.852  16.863 -0.6467 -1.0536  1.5479
13160TIP3   OH260970   0.494   1.272  17.084  0.2402  0.9144 -0.0367
13160TIP3    H160971   0.451   1.358  17.089  2.0089  1.8644 -0.5827
13160TIP3    H260972   0.587   1.292  17.088  0.7981 -0.7397 -3.1565
13161TIP3   OH260973   5.240   6.167  16.530 -0.0319  0.5312  0.2281
13161TIP3    H160974   5.255   6.081  16.568 -0.4191 -0.2391 -1.3044
13161TIP3    H260975   5.309   6.222  16.567  0.4410 -0.5302  0.9478
13162TIP3   OH260976   0.020   2.083  16.503 -0.1421  0.4910  0.0734
13162TIP3    H160977   0.108   2.118  16.517 -0.2268 -0.4061  3.5218
13162TIP3    H260978   0.032   1.988  16.503 -0.5126  0.3470 -4.5279
13163TIP3   OH260979   6.044   5.622   5.090 -0.5693  0.8523 -0.1230
13163TIP3    H160980   6.012   5.553   5.148 -1.9875  1.1785 -0.5000
13163TIP3    H260981   6.031   5.588   5.002  2.9632 -0.2626 -0.3142
13164TIP3   OH260982   3.537   0.272  11.054  0.1950  0.0683 -0.4505
13164TIP3    H160983   3.611   0.301  11.000 -0.2147  0.7709 -0.6407
13164TIP3    H260984   3.467   0.334  11.035  0.7955  1.8212  2.7048
13165TIP3   OH260985   3.943   3.769   4.199 -0.3020 -0.1649  0.1889
13165TIP3    H160986   3.935   3.853   4.155  1.5270 -0.3067 -0.4717
13165TIP3    H260987   3.858   3.755   4.241 -0.7552  1.7975 -0.0409
13166TIP3   OH260988   3.716   5.449  13.500  0.0248 -0.1547  0.1449
13166TIP3    H160989   3.632   5.489  13.523  0.8120  0.7830  1.4514
13166TIP3    H260990   3.763   5.518  13.452  0.1474 -0.6039 -0.3914
13167TIP3   OH260991   4.144   0.597   3.750 -0.2664  0.1020  0.3499
13167TIP3    H160992   4.078   0.538   3.787 -0.7330  0.7775  0.6196
13167TIP3    H260993   4.176   0.647   3.824 -0.3051  0.5963  0.0379
13168TIP3   OH260994   2.638   2.810  13.590 -0.5569 -0.5173 -0.6069
13168TIP3    H160995   2.663   2.899  13.568 -1.6580 -0.6487 -2.5987
13168TIP3    H260996   2.545   2.816  13.612  0.1919 -0.6333  2.8028
13169TIP3   OH260997   3.621   4.024   2.260 -0.2299  0.5041 -0.2450
13169TIP3    H160998   3.600   4.006   2.168 -0.8761  2.3595 -0.4876
13169TIP3    H260999   3.545   3.991   2.308 -0.8438  1.4137 -0.5712
13170TIP3   OH261000   3.613   6.118  16.906 -0.1614 -0.5992  0.5120
13170TIP3    H161001   3.542   6.128  16.969  0.8597  1.7447  1.3224
13170TIP3    H261002   3.626   6.023  16.900 -1.3752 -0.9169  2.5585
13171TIP3   OH261003   6.469   5.094  15.365 -0.3482  0.2306 -0.3997
13171TIP3    H161004   6.459   5.149  15.443 -1.3078 -0.3891 -0.0793
13171TIP3    H261005   6.433   5.009  15.391 -0.0726 -0.1681 -1.3126
13172TIP3   OH261006   5.123   1.368  12.744  0.4818  0.3416  0.1028
13172TIP3    H161007   5.208   1.337  12.713  0.6699  0.3511  0.6019
13172TIP3    H261008   5.066   1.363  12.667  0.5456 -1.1054  0.1425
13173TIP3   OH261009   3.494   3.758   1.513 -0.4667  0.2202  0.0827
13173TIP3    H161010   3.580   3.771   1.473 -0.1869 -1.2685  0.1742
13173TIP3    H261011   3.436   3.738   1.439 -0.2144 -1.2255  0.2503
13174TIP3   OH261012   2.500   2.730  11.207 -0.7954 -0.5434  0.0860
13174TIP3    H161013   2.575   2.764  11.158 -1.3815 -0.8144 -0.9973
13174TIP3    H261014   2.468   2.805  11.257  0.6552 -0.6073  1.1349
13175TIP3   OH261015   0.632   1.796  16.057 -0.3507  0.1365 -0.0767
13175TIP3    H161016   0.641   1.870  16.118 -0.7608 -0.7235  1.0521
13175TIP3    H261017   0.721   1.760  16.051 -0.5114 -0.4472  0.8945
13176TIP3   OH261018   6.422   1.916  17.244 -0.2879  0.4996  0.0428
13176TIP3    H161019   6.426   1.925  17.149  0.6236  1.8132  0.2080
13176TIP3    H261020   6.479   1.984  17.278 -1.5118  0.7990  1.5762
13177TIP3   OH261021   0.348   4.028  14.713  0.1902  0.2875 -0.6093
13177TIP3    H161022   0.364   4.116  14.747 -0.5877  0.3758 -0.4657
13177TIP3    H261023   0.374   3.970  14.784 -0.6181  0.4475 -0.1678
13178TIP3   OH261024   2.533   2.077  12.432 -0.3307 -0.1817  0.2372
13178TIP3    H161025   2.483   2.073  12.513  0.7350  0.1320  0.9173
13178TIP3    H261026   2.473   2.118  12.369 -1.6190 -1.6169  0.5014
13179TIP3   OH261027   5.062   2.775  10.962 -0.0687  0.4397  0.3154
13179TIP3    H161028   5.122   2.731  11.022  1.2940 -0.4103 -1.6008
13179TIP3    H261029   5.006   2.828  11.018  1.1332 -0.3584  2.3237
13180TIP3   OH261030   4.114   3.503  11.390 -0.0190 -0.5156  0.0753
13180TIP3    H161031   4.079   3.582  11.433 -1.4193 -0.2738 -1.4487
13180TIP3    H261032   4.044   3.476  11.330  1.2247 -1.8193 -0.8044
13181TIP3   OH261033   2.755   4.293   1.936  0.3277 -0.2230 -0.3781
13181TIP3    H161034   2.839   4.322   1.901  0.6294  0.1627  0.6480
13181TIP3    H261035   2.763   4.198   1.940  0.2898 -0.2731 -1.3432
13182TIP3   OH261036   1.201   3.901  13.171  0.2690 -0.1894  0.7202
13182TIP3    H161037   1.129   3.916  13.233  1.4465 -0.5228  2.1991
13182TIP3    H261038   1.264   3.848  13.220  0.3384 -2.1662 -1.4237
13183TIP3   OH261039   6.362   5.707   2.723 -0.4546  0.0574 -0.6804
13183TIP3    H161040   6.375   5.660   2.640 -1.1685 -2.2939  0.5154
13183TIP3    H261041   6.289   5.766   2.705 -0.9727 -0.8315 -1.5736
13184TIP3   OH261042   4.413   3.726  11.170 -0.0997  0.1454  0.1615
13184TIP3    H161043   4.492   3.749  11.219  0.7961  0.1980 -1.2546
13184TIP3    H261044   4.358   3.804  11.176  0.6192  0.6893 -0.1102
13185TIP3   OH261045   3.346   1.604   2.074  0.4416 -0.1181 -0.5320
13185TIP3    H161046   3.308   1.524   2.112  2.3642 -0.1499  1.4117
13185TIP3    H261047   3.278   1.670   2.086 -0.6412 -1.1423 -0.9202
13186TIP3   OH261048   4.129   0.939   5.913 -0.3953 -0.2903 -0.0087
13186TIP3    H161049   4.182   0.861   5.899 -0.3289 -0.7230  2.4960
13186TIP3    H261050   4.187   1.001   5.956 -1.0172  0.4133 -0.1706
13187TIP3   OH261051   3.809   0.236   3.712  0.2773  0.3371 -0.2076
13187TIP3    H161052   3.754   0.195   3.779 -1.1642 -1.1885 -2.2359
13187TIP3    H261053   3.834   0.164   3.654  2.4506  1.4319 -0.6834
13188TIP3   OH261054   1.905   2.185  16.245 -0.0390 -0.3535  0.2901
13188TIP3    H161055   1.946   2.165  16.161  0.5550  2.8452 -0.2453
13188TIP3    H261056   1.813   2.159  16.234 -0.6220  2.5699 -2.3789
13189TIP3   OH261057   3.563   0.887   5.357  0.4891  0.5348 -0.5738
13189TIP3    H161058   3.567   0.847   5.444  1.4196 -0.9234 -1.2689
13189TIP3    H261059   3.558   0.981   5.374  0.1411  0.2373  1.0591
13190TIP3   OH261060   6.664   3.686   3.966 -0.5223  0.2572  0.0326
13190TIP3    H161061   6.754   3.655   3.957 -0.4115 -0.2195  2.5043
13190TIP3    H261062   6.620   3.654   3.886  0.9447 -1.4982 -0.1144
13191TIP3   OH261063   5.010   5.410   2.098 -0.5928 -0.0460 -0.5399
13191TIP3    H161064   5.079   5.349   2.121  0.4859  1.5091  0.4772
13191TIP3    H261065   4.938   5.388   2.158 -0.5787 -0.9380 -0.8442
13192TIP3   OH261066   2.019   5.695   4.479  0.4037 -0.2220 -0.3200
13192TIP3    H161067   1.935   5.665   4.444 -0.6065  1.6726  0.4104
13192TIP3    H261068   2.041   5.630   4.545 -1.1352 -0.0881  0.3604
13193TIP3   OH261069   2.885   4.082   4.663  0.1554 -0.0201  0.3380
13193TIP3    H161070   2.954   4.148   4.668  0.9531 -0.8555  0.2774
13193TIP3    H261071   2.877   4.048   4.752  1.6044 -1.7407 -0.1634
13194TIP3   OH261072   3.981   3.477   4.496 -0.1562  0.0695  0.3888
13194TIP3    H161073   3.900   3.461   4.545  0.0436 -0.0435  0.6821
13194TIP3    H261074   4.025   3.547   4.544 -0.5907  0.8642 -0.3784
13195TIP3   OH261075   5.075   3.542  14.197  0.8157  0.6050 -0.2631
13195TIP3    H161076   5.022   3.585  14.264  1.5759  0.2238  0.5907
13195TIP3    H261077   5.080   3.451  14.226  1.4365  0.5135 -0.6602
13196TIP3   OH261078   6.073   6.677  15.007 -0.2543  0.4851 -1.1552
13196TIP3    H161079   5.986   6.715  14.998 -0.5739 -0.4350 -2.0672
13196TIP3    H261080   6.092   6.638  14.922 -0.3584 -2.2560  0.0011
13197TIP3   OH261081   5.197   1.346  13.936  0.2797 -0.1380  0.1575
13197TIP3    H161082   5.117   1.295  13.951 -1.2336  1.7631 -1.2094
13197TIP3    H261083   5.213   1.338  13.842 -0.0191  1.9530 -0.0862
13198TIP3   OH261084   5.753   5.704  12.718  0.0624 -0.1066  0.6042
13198TIP3    H161085   5.750   5.800  12.720 -0.7464 -0.1042 -0.3947
13198TIP3    H261086   5.807   5.680  12.794  1.6047  1.1801 -0.0661
13199TIP3   OH261087   0.779   4.172  15.794 -0.1724 -0.0274 -0.1662
13199TIP3    H161088   0.868   4.198  15.818 -0.1913  0.3601 -0.5198
13199TIP3    H261089   0.789   4.126  15.711 -0.6597  2.6787 -1.7753
13200TIP3   OH261090   3.034   6.437  11.238 -0.1321  0.1040  0.0964
13200TIP3    H161091   3.042   6.475  11.151  0.6787  0.5071  0.3481
13200TIP3    H261092   2.942   6.409  11.243 -0.4763  1.0933 -0.4630
13201TIP3   OH261093   0.730   1.538  14.295  0.2113  0.3468 -0.5707
13201TIP3    H161094   0.662   1.470  14.298  0.0842  0.5055  0.0512
13201TIP3    H261095   0.792   1.506  14.229  0.1247 -0.3527 -0.3245
13202TIP3   OH261096   5.322   6.025   1.042  0.5127  0.8677 -0.8304
13202TIP3    H161097   5.337   6.072   1.124  1.3124  0.1725 -0.5704
13202TIP3    H261098   5.231   5.997   1.046  0.5053  0.9660 -0.2540
13203TIP3   OH261099   4.623   2.583   6.046 -0.3901  0.0625  0.1757
13203TIP3    H161100   4.673   2.657   6.080  1.6989 -1.5646  0.7442
13203TIP3    H261101   4.604   2.529   6.123 -0.9021 -0.5889 -0.4029
13204TIP3   OH261102   4.380   0.679  13.448  0.0903 -0.2090 -0.1883
13204TIP3    H161103   4.444   0.682  13.520 -0.0612  2.3604 -0.1151
13204TIP3    H261104   4.296   0.700  13.490  0.2400  2.8881 -1.3362
13205TIP3   OH261105   3.142   1.391  17.254 -0.0022  0.1752  0.6254
13205TIP3    H161106   3.229   1.363  17.283 -0.0252  0.3489  0.8619
13205TIP3    H261107   3.099   1.422  17.334 -0.8249 -1.3352  0.7916
13206TIP3   OH261108   6.413   1.168   0.190 -0.0193 -0.1927  0.4680
13206TIP3    H161109   6.400   1.117   0.270  1.9557 -1.7981 -0.1921
13206TIP3    H261110   6.376   1.113   0.121 -0.6739  0.6750  0.1151
13207TIP3   OH261111   4.284   0.353  12.075  0.1152  0.2810 -0.0563
13207TIP3    H161112   4.264   0.389  12.162  1.8266  0.8900  0.0966
13207TIP3    H261113   4.341   0.278  12.093 -0.4539 -0.2856 -0.5981
13208TIP3   OH261114   2.808   1.810  14.639 -0.1102 -0.7135  0.2338
13208TIP3    H161115   2.901   1.790  14.640 -0.1335 -0.8968 -0.9615
13208TIP3    H261116   2.784   1.819  14.731  0.8782 -1.6104  0.5786
13209TIP3   OH261117   5.181   4.198  14.502  0.2302 -0.7892 -0.4073
13209TIP3    H161118   5.125   4.180  14.426  0.9099 -3.1514 -0.3910
13209TIP3    H261119   5.232   4.275  14.476 -0.5759 -0.6856 -1.7648
13210TIP3   OH261120   5.857   5.891   2.522 -0.3422 -0.3599  0.4508
13210TIP3    H161121   5.827   5.932   2.603 -0.1226 -0.8878  0.8046
13210TIP3    H261122   5.891   5.805   2.550 -0.6334 -0.7077 -0.2521
13211TIP3   OH261123   5.211   0.776   4.570 -0.2517 -0.1733  0.0914
13211TIP3    H161124   5.132   0.810   4.613 -0.8504  0.3932 -1.4345
13211TIP3    H261125   5.218   0.827   4.490  1.2628 -0.7410 -0.1451
13212TIP3   OH261126   1.140   4.908   5.929  0.0403  0.1635  0.3925
13212TIP3    H161127   1.076   4.858   5.878  0.7146  0.1705 -0.4728
13212TIP3    H261128   1.218   4.910   5.874  0.7588  0.2334  1.4022
13213TIP3   OH261129   1.601   0.735  11.622 -0.3518  0.5493  0.4669
13213TIP3    H161130   1.546   0.665  11.659  0.5189  0.1031  0.9308
13213TIP3    H261131   1.544   0.779  11.559 -1.5133  0.6056  1.5182
13214TIP3   OH261132   2.646   0.526   3.889  0.2683  0.2631  0.0581
13214TIP3    H161133   2.631   0.616   3.916 -0.6958 -0.0691  0.6954
13214TIP3    H261134   2.621   0.474   3.966 -0.5583 -0.6062 -0.7833
13215TIP3   OH261135   4.845   3.819  15.314 -1.2554  0.9922 -0.2756
13215TIP3    H161136   4.861   3.884  15.245 -1.4864  0.5845 -0.7114
13215TIP3    H261137   4.922   3.763  15.314 -1.6135  0.4945 -0.7565
13216TIP3   OH261138   4.486   3.828   5.467  0.1086  0.1045 -0.0813
13216TIP3    H161139   4.438   3.868   5.394 -2.2546  2.1344  2.4817
13216TIP3    H261140   4.555   3.890   5.488 -0.9858  0.9072  1.2188
13217TIP3   OH261141   1.509   5.208   0.881  0.1773  0.0050  0.5151
13217TIP3    H161142   1.513   5.130   0.937 -0.0672 -1.8204 -1.9542
13217TIP3    H261143   1.416   5.234   0.883  0.2138  0.0887  1.1419
13218TIP3   OH261144   6.746   3.606   4.512 -0.2044  0.4302  0.0932
13218TIP3    H161145   6.756   3.621   4.418 -2.7732  1.6248 -0.0271
13218TIP3    H261146   6.762   3.691   4.552  2.3986 -0.3942  0.9218
13219TIP3   OH261147   1.041   3.957  15.217 -0.0904  0.4429  0.4355
13219TIP3    H161148   0.953   3.953  15.255  0.2700  2.1048  1.5010
13219TIP3    H261149   1.030   3.930  15.126 -1.3856 -1.1914  1.0460
13220TIP3   OH261150   2.953   1.089  11.710  0.8988 -0.0855  0.2625
13220TIP3    H161151   3.040   1.078  11.748  0.7507 -1.3649  0.2399
13220TIP3    H261152   2.893   1.085  11.784  0.6767 -1.7264  0.0163
13221TIP3   OH261153   5.908   5.656   3.030 -0.6984  0.3036  0.2548
13221TIP3    H161154   5.987   5.650   3.083 -0.7145 -0.9878  0.1384
13221TIP3    H261155   5.936   5.630   2.942 -1.1088  0.4995  0.0644
13222TIP3   OH261156   3.204   3.767  10.762  0.0154 -0.3836  0.0420
13222TIP3    H161157   3.264   3.810  10.701 -0.1990 -0.5934 -0.3185
13222TIP3    H261158   3.261   3.721  10.824  0.2437  0.2767  0.3287
13223TIP3   OH261159   3.377   1.436  12.761 -0.0825  0.2960  0.4774
13223TIP3    H161160   3.294   1.393  12.784  1.0768 -2.5766 -0.5415
13223TIP3    H261161   3.440   1.404  12.826  1.0189 -0.3644 -0.8868
13224TIP3   OH261162   2.259   4.193  11.980 -0.4943  0.2106  0.4394
13224TIP3    H161163   2.250   4.234  11.894 -1.3283  1.4050  1.0797
13224TIP3    H261164   2.295   4.106  11.962 -0.2129  0.6333 -1.0716
13225TIP3   OH261165   3.815   6.306  16.896 -0.4354  0.5767  0.3715
13225TIP3    H161166   3.741   6.248  16.916 -1.4680  0.9131 -2.1802
13225TIP3    H261167   3.887   6.247  16.876 -0.3834  0.2289  1.5500
13226TIP3   OH261168   3.308   1.764   3.183  0.1801 -0.2250  0.2042
13226TIP3    H161169   3.293   1.769   3.089 -1.9762 -0.4653  0.4994
13226TIP3    H261170   3.313   1.671   3.202 -1.5230 -0.2501  0.6091
13227TIP3   OH261171   6.640   6.450   3.184  0.4555 -0.4788 -0.0804
13227TIP3    H161172   6.567   6.475   3.127  0.4915  0.2149  0.1681
13227TIP3    H261173   6.598   6.410   3.260  0.4228 -1.6919 -0.7297
13228TIP3   OH261174   1.521   4.239   3.780  0.4224 -0.2919  0.7649
13228TIP3    H161175   1.455   4.262   3.715  1.2328 -2.8585 -1.0341
13228TIP3    H261176   1.585   4.309   3.776  1.5457 -1.4237 -2.7397
13229TIP3   OH261177   2.604   3.973   1.129  0.0111  0.2661  0.5613
13229TIP3    H161178   2.575   3.903   1.071  2.6488 -0.0892 -0.4161
13229TIP3    H261179   2.592   3.938   1.217  0.1564 -0.9334  0.1135
13230TIP3   OH261180   0.476   5.201  15.715  0.1309 -0.0236  0.2260
13230TIP3    H161181   0.430   5.225  15.634 -2.8230  0.9450  2.1225
13230TIP3    H261182   0.512   5.284  15.747  1.7558 -0.4948 -0.3176
13231TIP3   OH261183   2.249   1.937  12.295 -0.1800  0.2481  0.0569
13231TIP3    H161184   2.289   2.009  12.245 -0.1589  0.4158  0.3107
13231TIP3    H261185   2.320   1.874  12.307 -0.9407 -1.2454 -2.7601
13232TIP3   OH261186   6.021   4.968   2.650  0.2546 -0.1627  0.1777
13232TIP3    H161187   5.953   4.937   2.710  1.0570 -0.4340  0.9589
13232TIP3    H261188   6.031   5.061   2.671 -0.3890  0.0594 -0.4543
13233TIP3   OH261189   4.850   4.433   4.133  0.2157 -0.5344 -0.4834
13233TIP3    H161190   4.783   4.482   4.181  0.4276 -0.9616  0.2635
13233TIP3    H261191   4.821   4.342   4.138  1.7349 -0.9660  1.3846
13234TIP3   OH261192   6.273   6.169   4.979  0.0347 -0.2362 -0.2994
13234TIP3    H161193   6.320   6.252   4.986  2.1697 -1.3923 -0.3757
13234TIP3    H261194   6.232   6.172   4.893  0.4640  0.5564 -0.4850
13235TIP3   OH261195   1.622   3.784  15.961 -0.2807 -0.0716  0.3893
13235TIP3    H161196   1.717   3.776  15.963 -0.4646 -2.2459  2.3593
13235TIP3    H261197   1.605   3.872  15.994  0.9599 -0.5209  2.2739
13236TIP3   OH261198   3.773   6.413   5.558 -0.7158  0.2065  0.1263
13236TIP3    H161199   3.853   6.463   5.537 -0.2317 -0.3790  0.5858
13236TIP3    H261200   3.787   6.381   5.647 -0.6889 -1.4042 -0.4427
13237TIP3   OH261201   3.024   5.718   0.339  0.4886  0.3064 -0.3180
13237TIP3    H161202   3.014   5.731   0.433  1.4717 -1.3738  0.0410
13237TIP3    H261203   3.115   5.690   0.328  0.1600 -0.2877 -1.6737
13238TIP3   OH261204   0.830   5.645   1.718  0.4195  0.1143  0.5431
13238TIP3    H161205   0.920   5.640   1.751  0.4629 -1.1881  0.2400
13238TIP3    H261206   0.839   5.636   1.623  0.1242  1.8905  0.3281
13239TIP3   OH261207   2.487   5.152   1.884 -0.6065 -0.1498 -1.0315
13239TIP3    H161208   2.395   5.179   1.889 -1.2952 -2.5231 -0.4748
13239TIP3    H261209   2.485   5.057   1.891  1.8830 -0.2649 -1.3841
13240TIP3   OH261210   6.409   1.457  15.574  0.4506 -0.2048  0.0474
13240TIP3    H161211   6.319   1.431  15.553  0.3396  0.2624 -0.0737
13240TIP3    H261212   6.433   1.404  15.650 -1.0584  1.9251  2.0592
13241TIP3   OH261213   2.944   2.168   0.149  0.2904  0.3993  0.2190
13241TIP3    H161214   2.977   2.257   0.141  0.0394  0.5074  0.3774
13241TIP3    H261215   2.987   2.120   0.078  1.0465  0.4565  0.6270
13242TIP3   OH261216   6.690   2.650   1.912  0.2005 -0.2970 -0.3573
13242TIP3    H161217   6.784   2.659   1.929  0.6805 -1.5419 -2.2397
13242TIP3    H261218   6.678   2.684   1.824 -1.5660  2.1993  0.7976
13243TIP3   OH261219   6.360   3.112   1.439  0.0032 -0.0684 -1.3970
13243TIP3    H161220   6.265   3.119   1.427 -0.4852 -0.1105  1.9821
13243TIP3    H261221   6.389   3.055   1.368 -2.7650 -1.5893 -1.3619
13244TIP3   OH261222   5.625   1.021   1.072 -0.3714 -0.7653 -0.5037
13244TIP3    H161223   5.700   1.045   1.125 -1.1529 -1.5823  1.0185
13244TIP3    H261224   5.657   1.022   0.982  0.6066  2.0605 -0.1647
13245TIP3   OH261225   1.580   6.788   1.087  0.1694 -0.0162  0.3094
13245TIP3    H161226   1.617   6.729   1.021  1.5501  0.1064  0.9569
13245TIP3    H261227   1.655   6.817   1.138 -0.6036  1.6730  0.5123
13246TIP3   OH261228   1.194   6.194  15.595 -0.0741  0.0002  0.4697
13246TIP3    H161229   1.127   6.179  15.528  1.1983 -0.3150 -0.7456
13246TIP3    H261230   1.217   6.107  15.626 -0.5017  0.1330  1.1807
13247TIP3   OH261231   1.775   1.426  14.991 -0.1629  0.0140  0.1604
13247TIP3    H161232   1.721   1.359  14.949 -0.9005  0.6482  0.0989
13247TIP3    H261233   1.844   1.376  15.036  0.5110 -0.6803 -1.6001
13248TIP3   OH261234   4.197   0.491   5.749 -0.1419  0.2551  0.1296
13248TIP3    H161235   4.109   0.529   5.738 -0.0738  0.3842  0.0336
13248TIP3    H261236   4.195   0.410   5.699 -0.9070 -0.8364  1.8779
13249TIP3   OH261237   4.838   1.232   2.968  0.2105 -0.0197 -0.5483
13249TIP3    H161238   4.844   1.327   2.978 -0.4175  0.0710 -1.0169
13249TIP3    H261239   4.749   1.216   2.937  0.8248 -0.6262 -2.0818
13250TIP3   OH261240   0.845   4.958  11.019 -0.7631 -0.1138 -0.1714
13250TIP3    H161241   0.913   5.020  10.990 -2.0084  1.8106  0.8938
13250TIP3    H261242   0.893   4.881  11.047  0.9771  1.1225  0.3422
13251TIP3   OH261243   6.554   0.245   0.292 -0.1753 -0.2925  0.1976
13251TIP3    H161244   6.521   0.260   0.203 -1.2624  0.3005  0.6863
13251TIP3    H261245   6.477   0.217   0.342  0.4893 -0.9345  0.8854
13252TIP3   OH261246   1.994   3.506  11.767  0.0047 -0.2565  0.2889
13252TIP3    H161247   2.020   3.516  11.676  0.9322 -0.1158  0.5586
13252TIP3    H261248   1.898   3.508  11.766  0.0137 -0.3770 -0.6869
13253TIP3   OH261249   1.592   0.588   4.064 -0.2087  0.2527 -0.4826
13253TIP3    H161250   1.506   0.593   4.023 -1.0189  0.7298  1.1955
13253TIP3    H261251   1.592   0.503   4.108  0.4353 -0.0261 -1.0256
13254TIP3   OH261252   1.495   3.791  12.116  0.4547 -0.3496  0.0621
13254TIP3    H161253   1.401   3.784  12.128  0.3855  2.2688  1.1361
13254TIP3    H261254   1.515   3.722  12.052 -2.0967 -1.1674  0.0702
13255TIP3   OH261255   2.495   2.774   0.335  0.1317  0.2061  0.0488
13255TIP3    H161256   2.457   2.765   0.423 -1.1133  0.7644 -0.4092
13255TIP3    H261257   2.419   2.786   0.278  0.9701  0.4565 -1.0267
13256TIP3   OH261258   4.890   3.094   3.852  0.0812  0.0488  0.1581
13256TIP3    H161259   4.937   3.066   3.931  0.0312 -2.1990 -0.5568
13256TIP3    H261260   4.797   3.090   3.877  0.1517  2.0959  0.8223
13257TIP3   OH261261   0.956   3.139   0.322  0.1114 -0.0761 -0.0134
13257TIP3    H161262   0.916   3.224   0.301 -1.4706 -1.3172 -2.2216
13257TIP3    H261263   0.899   3.102   0.388 -1.0186 -0.7637 -1.3502
13258TIP3   OH261264   1.970   1.466  13.592  0.1191  0.3891  0.1844
13258TIP3    H161265   1.973   1.371  13.600  0.4678  0.4984  1.4824
13258TIP3    H261266   1.877   1.488  13.591  0.0208  0.1603  1.8279
13259TIP3   OH261267   1.856   0.611  16.595  0.4277  0.5301  0.0329
13259TIP3    H161268   1.877   0.605  16.689  0.7025 -0.7812 -0.1070
13259TIP3    H261269   1.899   0.692  16.567  1.3293  0.3287  0.7921
13260TIP3   OH261270   1.854   0.985  12.563  0.3390  0.3085  0.4469
13260TIP3    H161271   1.856   0.914  12.627  0.0457  0.4153  0.5737
13260TIP3    H261272   1.864   0.941  12.478 -2.8909 -0.2134  0.2704
13261TIP3   OH261273   4.872   5.920  12.335 -0.0986 -0.2235 -0.6037
13261TIP3    H161274   4.901   5.894  12.248  0.0500 -0.8275 -0.3737
13261TIP3    H261275   4.785   5.882  12.344  0.1503 -0.7141 -0.2392
13262TIP3   OH261276   6.129   1.437   5.119 -0.1782 -0.1486  0.0710
13262TIP3    H161277   6.153   1.501   5.052 -1.1554 -1.9389 -2.0713
13262TIP3    H261278   6.210   1.420   5.167  0.0655  2.7187  0.7423
13263TIP3   OH261279   6.118   4.835   4.457 -0.0531 -0.3568  0.6159
13263TIP3    H161280   6.054   4.816   4.525  0.8808 -1.4279  1.2111
13263TIP3    H261281   6.065   4.862   4.382 -1.1041  0.4478  1.6271
13264TIP3   OH261282   0.747   6.453  17.285  0.3570  0.0859 -0.0436
13264TIP3    H161283   0.799   6.483  17.210 -0.4975 -0.2194 -0.7728
13264TIP3    H261284   0.662   6.494  17.273  0.4564  0.6824  1.2113
13265TIP3   OH261285   1.135   3.422  14.198  0.2914  0.3227  0.0672
13265TIP3    H161286   1.204   3.427  14.264  1.9383 -2.7280 -1.2838
13265TIP3    H261287   1.149   3.498  14.142  2.1430  0.1196  0.2217
13266TIP3   OH261288   1.196   0.841  11.902  0.9611  0.4598  0.2606
13266TIP3    H161289   1.132   0.802  11.961  0.7067  2.8597  1.6427
13266TIP3    H261290   1.279   0.799  11.925  0.5343  0.0248  1.0337
13267TIP3   OH261291   2.621   4.380   4.333  0.4497 -0.3212  0.5328
13267TIP3    H161292   2.527   4.367   4.345  0.6200 -0.0789  2.2956
13267TIP3    H261293   2.628   4.468   4.294 -0.0529 -0.3403  0.3943
13268TIP3   OH261294   4.353   2.722   6.384  0.3072 -0.4364 -0.3105
13268TIP3    H161295   4.411   2.780   6.335 -1.8844  1.0947 -1.1575
13268TIP3    H261296   4.320   2.661   6.318  0.3030 -0.7857  0.0135
13269TIP3   OH261297   1.658   0.325   3.370 -0.1703 -0.4673  0.4958
13269TIP3    H161298   1.649   0.358   3.460 -0.5837  1.2865 -0.1744
13269TIP3    H261299   1.570   0.336   3.332 -0.3662 -2.5413  0.3094
13270TIP3   OH261300   2.547   2.560   3.673 -0.2484  0.3449  0.6732
13270TIP3    H161301   2.466   2.595   3.711 -0.0924  0.2584  1.0924
13270TIP3    H261302   2.553   2.471   3.708 -0.2994  0.1292  0.1396
13271TIP3   OH261303   1.877   2.431  15.496 -0.5754  0.3770 -0.7259
13271TIP3    H161304   1.910   2.491  15.564 -0.0296  0.6026 -1.1872
13271TIP3    H261305   1.855   2.351  15.543 -3.5702  1.7154  0.2973
13272TIP3   OH261306   1.022   2.572  15.989 -0.1539  0.0406  0.1370
13272TIP3    H161307   1.059   2.606  16.071  2.1295 -0.5886 -0.5933
13272TIP3    H261308   1.044   2.639  15.924 -1.6038  0.3476 -0.0411
13273TIP3   OH261309   6.720   3.326  13.180  0.4416  0.2078  0.0884
13273TIP3    H161310   6.673   3.267  13.122  0.5419 -0.6323  0.8587
13273TIP3    H261311   6.659   3.398  13.196 -0.5517 -0.8262  1.0107
13274TIP3   OH261312   2.399   1.178  13.501  0.0713  0.5496 -0.1837
13274TIP3    H161313   2.346   1.252  13.469  1.2544  1.2897 -0.4777
13274TIP3    H261314   2.485   1.191  13.461  0.4747 -0.6551  0.2630
13275TIP3   OH261315   0.014   6.290   4.412  0.2219  0.1184  0.4921
13275TIP3    H161316   0.007   6.347   4.489  0.9826 -0.0921  0.7265
13275TIP3    H261317   0.108   6.269   4.407  0.3334  0.9391 -1.0828
13276TIP3   OH261318   2.496   5.069  14.870  0.9016 -0.0052  0.2847
13276TIP3    H161319   2.516   4.976  14.872  2.3170  0.3226  2.9060
13276TIP3    H261320   2.425   5.080  14.933  1.4215  0.8248  0.7382
13277TIP3   OH261321   5.851   1.536  12.426  0.3649 -0.2524 -0.4958
13277TIP3    H161322   5.884   1.448  12.442  0.6452 -0.1765 -0.6568
13277TIP3    H261323   5.924   1.582  12.385  1.6204  1.2333  3.2068
13278TIP3   OH261324   6.689   0.120   4.209 -0.7404  0.3055 -0.2910
13278TIP3    H161325   6.764   0.174   4.185  1.1269 -1.4379  1.3398
13278TIP3    H261326   6.713   0.032   4.179 -1.6057 -0.4902  1.2872
13279TIP3   OH261327   2.962   5.457  11.294 -0.5021 -0.3106  0.0254
13279TIP3    H161328   2.867   5.448  11.284 -0.8060  1.2703  1.3505
13279TIP3    H261329   2.996   5.369  11.277 -2.0706 -0.5828 -1.8713
13280TIP3   OH261330   5.826   3.024  16.971  0.0593  0.0458  0.2940
13280TIP3    H161331   5.887   2.951  16.975  0.4885  0.1303 -3.2379
13280TIP3    H261332   5.865   3.092  17.027  0.8750 -1.4951  1.6306
13281TIP3   OH261333   6.739   0.195  13.205  1.1913 -0.3024 -0.1453
13281TIP3    H161334   6.728   0.180  13.111  2.1673 -0.2386 -0.2811
13281TIP3    H261335   6.754   0.289  13.213 -3.0607  0.4172  0.5224
13282TIP3   OH261336   4.265   5.805  15.150  1.1652  0.7216 -0.2312
13282TIP3    H161337   4.338   5.758  15.190 -0.2275 -2.0343 -0.7884
13282TIP3    H261338   4.269   5.782  15.058  1.5751  3.2819 -0.8731
13283TIP3   OH261339   2.985   2.966  16.173  0.2460  0.3897 -0.5808
13283TIP3    H161340   2.958   3.017  16.097  0.5838 -0.9496 -1.6189
13283TIP3    H261341   3.016   3.031  16.236 -0.6767  1.5577 -1.3248
13284TIP3   OH261342   4.043   0.329  12.477  0.1808  0.9078 -0.0399
13284TIP3    H161343   3.960   0.322  12.524 -0.5437 -1.3143 -1.5694
13284TIP3    H261344   4.099   0.263  12.516  0.5041  0.9257 -0.4666
13285TIP3   OH261345   4.465   4.193   5.488 -0.0929 -0.0518  0.1858
13285TIP3    H161346   4.418   4.207   5.570 -0.6424 -2.5425  0.3313
13285TIP3    H261347   4.535   4.132   5.510  1.7683  1.7423 -0.5571
13286TIP3   OH261348   5.341   3.678  13.867  0.0954 -0.1477  0.1237
13286TIP3    H161349   5.388   3.747  13.820  2.0712 -1.0107  0.7591
13286TIP3    H261350   5.265   3.659  13.812  0.9576  0.6859 -1.4093
13287TIP3   OH261351   3.589   0.109  16.885  0.6577 -0.2817  0.2156
13287TIP3    H161352   3.559   0.020  16.903 -1.0138  0.2520  0.2261
13287TIP3    H261353   3.664   0.122  16.942 -0.1053 -1.1271  1.4321
13288TIP3   OH261354   3.403   3.255   4.188  0.4305 -0.3074 -0.4902
13288TIP3    H161355   3.330   3.206   4.227  0.9457 -0.0235  0.8559
13288TIP3    H261356   3.364   3.337   4.161  0.3561  0.1045  0.8105
13289TIP3   OH261357   6.307   2.263   3.853 -0.2007 -0.1237  0.1894
13289TIP3    H161358   6.370   2.198   3.822 -0.5719 -0.8741  0.9572
13289TIP3    H261359   6.355   2.313   3.920  0.2003  0.6446 -0.6689
13290TIP3   OH261360   5.896   6.181   0.720  0.8311 -0.3873  0.2275
13290TIP3    H161361   5.852   6.121   0.780  0.3950  0.0759  0.3787
13290TIP3    H261362   5.914   6.129   0.642  1.3970 -0.9942  0.7561
13291TIP3   OH261363   6.290   4.140   5.281 -0.0706 -0.0889 -0.1248
13291TIP3    H161364   6.229   4.213   5.275 -0.3262 -0.1613  1.2358
13291TIP3    H261365   6.375   4.180   5.297  0.1811 -0.0025 -1.6492
13292TIP3   OH261366   4.615   1.573  13.285  0.6528  0.1265  0.3158
13292TIP3    H161367   4.545   1.613  13.233 -1.0079 -1.3573  1.3598
13292TIP3    H261368   4.690   1.571  13.225 -0.1416  1.8225 -0.7981
13293TIP3   OH261369   5.947   4.517   3.744  0.2622  0.0505 -0.2220
13293TIP3    H161370   5.877   4.541   3.805  1.0410  0.3162  0.5677
13293TIP3    H261371   6.022   4.571   3.770  0.4845  0.4577 -1.6598
13294TIP3   OH261372   0.498   1.265  13.516  0.2395  0.0962  0.5139
13294TIP3    H161373   0.455   1.181  13.500  2.6466 -0.9106 -0.9397
13294TIP3    H261374   0.463   1.323  13.449  1.2026 -0.7563 -0.7561
13295TIP3   OH261375   3.820   1.897  13.484  0.3734 -0.3116  0.0203
13295TIP3    H161376   3.760   1.853  13.424 -0.6850  0.9019  0.1889
13295TIP3    H261377   3.794   1.866  13.571 -0.5430  0.8618  0.1602
13296TIP3   OH261378   1.009   2.053  12.069  0.1884  0.2247 -0.1650
13296TIP3    H161379   1.042   2.077  11.982  1.3317 -0.8880 -0.0578
13296TIP3    H261380   1.088   2.036  12.120 -0.5279 -2.6622  0.0560
13297TIP3   OH261381   3.434   5.834   4.884  0.2640 -0.1729  0.0579
13297TIP3    H161382   3.374   5.762   4.902 -3.6931  2.6972 -0.8636
13297TIP3    H261383   3.432   5.887   4.964  1.3057  0.1514 -0.1203
13298TIP3   OH261384   6.132   1.571   2.062  0.0110 -0.2225 -0.3912
13298TIP3    H161385   6.067   1.513   2.023  0.6742 -0.1829 -1.5700
13298TIP3    H261386   6.204   1.572   2.000 -0.0708  2.0348 -0.5031
13299TIP3   OH261387   3.678   4.466   4.713 -0.8911 -0.5591  0.2375
13299TIP3    H161388   3.710   4.505   4.632 -1.9561 -0.8353 -0.3244
13299TIP3    H261389   3.669   4.373   4.693  0.4553 -0.9107  1.1917
13300TIP3   OH261390   2.883   3.917   4.452  0.2208  0.1066  0.0427
13300TIP3    H161391   2.913   3.966   4.375 -1.0229  0.6686 -0.0823
13300TIP3    H261392   2.872   3.983   4.520 -1.2479 -0.0187 -0.0638
13301TIP3   OH261393   3.642   3.769  11.108 -0.1207  0.5628 -0.1024
13301TIP3    H161394   3.676   3.714  11.179  0.0042 -0.0490 -0.6235
13301TIP3    H261395   3.563   3.808  11.144 -2.2981 -2.8690 -0.9311
13302TIP3   OH261396   5.497   1.572  14.947  0.1010 -0.0234  0.1208
13302TIP3    H161397   5.480   1.633  14.875  1.3401  0.9866  0.6525
13302TIP3    H261398   5.532   1.627  15.017  1.2937 -1.3370  0.5884
13303TIP3   OH261399   0.937   4.809   4.882  0.3008  0.3237 -0.2829
13303TIP3    H161400   1.002   4.869   4.844  0.2083  1.3624  1.1406
13303TIP3    H261401   0.875   4.792   4.810 -0.7706  3.5108 -0.2231
13304TIP3   OH261402   1.986   0.764   0.643  0.2630  0.1300 -0.5253
13304TIP3    H161403   1.942   0.701   0.700  1.5513 -1.1686 -0.9496
13304TIP3    H261404   2.065   0.789   0.691  0.3299  0.5682 -0.8551
13305TIP3   OH261405   5.584   5.996   0.277  0.2632 -0.0767  0.3451
13305TIP3    H161406   5.565   5.953   0.194  2.9435  0.9846 -0.8707
13305TIP3    H261407   5.537   6.079   0.273 -0.0240 -0.2494  0.1299
13306TIP3   OH261408   6.615   5.878   4.875  0.6555 -0.0207  0.2430
13306TIP3    H161409   6.528   5.862   4.840 -0.0228  1.5708  1.1297
13306TIP3    H261410   6.674   5.870   4.800 -0.1965 -1.6221 -0.2508
13307TIP3   OH261411   0.345   1.152  13.254  0.2939 -0.5924 -0.1271
13307TIP3    H161412   0.303   1.236  13.275  0.7849 -0.5136  0.5476
13307TIP3    H261413   0.351   1.106  13.338  0.4184 -1.1272 -0.4255
13308TIP3   OH261414   3.258   4.783  15.602  0.1465 -0.3976  0.0689
13308TIP3    H161415   3.295   4.767  15.689 -1.7997  0.6990  1.1327
13308TIP3    H261416   3.259   4.697  15.560  0.7638 -1.0255  1.3229
13309TIP3   OH261417   4.708   5.379   2.885 -0.3334  0.1937 -0.3081
13309TIP3    H161418   4.699   5.311   2.951 -0.9304  1.3964  0.8895
13309TIP3    H261419   4.619   5.413   2.873 -0.1382  0.3602 -1.3311
13310TIP3   OH261420   1.605   6.650  17.241 -0.2832  0.1398  0.4120
13310TIP3    H161421   1.633   6.600  17.164 -3.1518 -2.6095  1.0573
13310TIP3    H261422   1.663   6.620  17.311  1.2526  1.4433 -0.2590
13311TIP3   OH261423   2.156   0.879  13.925  0.6750 -0.2784 -0.0908
13311TIP3    H161424   2.176   0.845  14.012  1.6493 -1.3618 -0.7222
13311TIP3    H261425   2.131   0.802  13.874 -1.8114  0.5942 -0.2730
13312TIP3   OH261426   0.506   4.416   6.447  0.3619 -0.0856 -0.6448
13312TIP3    H161427   0.534   4.381   6.532  2.2509  1.0363 -0.7766
13312TIP3    H261428   0.461   4.497   6.469  0.9623  0.2681 -0.7326
13313TIP3   OH261429   2.979   6.009  16.454  0.7795  0.0596 -0.3983
13313TIP3    H161430   3.073   5.989  16.462  1.1395  2.0439  0.9209
13313TIP3    H261431   2.937   5.947  16.513  1.0822 -1.9258 -2.2182
13314TIP3   OH261432   3.065   0.723  16.215 -0.1876  0.1904  0.5218
13314TIP3    H161433   2.999   0.669  16.171  0.1530  0.2849 -0.1187
13314TIP3    H261434   3.016   0.796  16.252 -0.8227 -1.1319  2.3877
13315TIP3   OH261435   2.102   3.173  12.091  0.2536  0.3868 -0.2769
13315TIP3    H161436   2.052   3.232  12.147  2.9602  2.1649  0.3642
13315TIP3    H261437   2.100   3.213  12.005  1.7983  1.2779  0.0815
13316TIP3   OH261438   6.598   2.121  14.761 -0.0545  0.0649 -0.2813
13316TIP3    H161439   6.533   2.141  14.828  0.2096 -0.4262  0.1223
13316TIP3    H261440   6.615   2.205  14.718 -0.8059  0.2308 -0.2575
13317TIP3   OH261441   3.067   3.552   1.058  0.1662 -0.6362 -0.6721
13317TIP3    H161442   3.146   3.604   1.043 -0.5889  0.3394 -1.4097
13317TIP3    H261443   3.080   3.513   1.144  0.8111  0.7099 -0.1343
13318TIP3   OH261444   2.842   2.709   4.051 -0.1102  0.1375 -0.5903
13318TIP3    H161445   2.827   2.621   4.086 -0.5211  2.1977  5.0219
13318TIP3    H261446   2.937   2.717   4.045 -0.0265 -0.3529  0.0202
13319TIP3   OH261447   1.317   0.083   1.115 -0.1052  0.0849  0.5620
13319TIP3    H161448   1.252   0.017   1.091  0.1094  0.7722 -2.0909
13319TIP3    H261449   1.394   0.032   1.142 -0.2485 -0.7618 -0.5723
13320TIP3   OH261450   3.122   1.615   1.632  0.1970  0.6084  0.0329
13320TIP3    H161451   3.055   1.614   1.564  2.2287  1.4394 -2.0104
13320TIP3    H261452   3.079   1.656   1.707 -1.3536  1.8089 -1.4822
13321TIP3   OH261453   0.189   0.076   5.235  0.6688 -0.2595  0.0404
13321TIP3    H161454   0.281   0.086   5.260  0.6703  0.7299 -0.3618
13321TIP3    H261455   0.172  -0.018   5.245  1.4375 -0.2943  1.0765
13322TIP3   OH261456   3.658   4.857  14.226  0.5243 -0.1436 -0.1555
13322TIP3    H161457   3.702   4.777  14.198 -0.1804 -0.6511  0.1829
13322TIP3    H261458   3.569   4.849  14.193  0.4601  0.5261 -0.1635
13323TIP3   OH261459   6.004   5.736  14.562  0.4209  0.1791 -0.8093
13323TIP3    H161460   6.047   5.813  14.525 -0.5169  1.0342 -0.1518
13323TIP3    H261461   5.925   5.770  14.604  0.9891 -0.8547  1.1920
13324TIP3   OH261462   3.333   2.681  15.416 -0.1667 -0.3880 -0.4810
13324TIP3    H161463   3.334   2.594  15.377  0.8206  0.5933 -2.6953
13324TIP3    H261464   3.389   2.734  15.360 -1.3699  1.8885  0.3821
13325TIP3   OH261465   2.061   5.972  15.250  0.0156  0.5786  0.2133
13325TIP3    H161466   2.080   5.905  15.315  1.5509  1.5523  0.8102
13325TIP3    H261467   2.091   6.054  15.290 -0.1894  1.3772 -1.2018
13326TIP3   OH261468   5.217   0.679  15.973 -0.3410  0.2163 -0.2925
13326TIP3    H161469   5.133   0.721  15.955 -1.0142 -2.0330 -2.7347
13326TIP3    H261470   5.216   0.599  15.920  2.3718 -1.0538  1.4425
13327TIP3   OH261471   2.003   3.513   4.450  0.2886  0.1038 -0.0165
13327TIP3    H161472   1.980   3.451   4.380 -0.0451  1.2073 -0.9110
13327TIP3    H261473   2.036   3.459   4.521 -0.1542 -1.1102 -0.7255
13328TIP3   OH261474   0.225   2.510  16.866 -0.4969 -0.0902  0.1141
13328TIP3    H161475   0.310   2.501  16.909 -0.6518  1.3239  0.7457
13328TIP3    H261476   0.177   2.431  16.890  0.1054 -0.2044  0.9639
13329TIP3   OH261477   4.695   1.741   0.490  0.4999 -0.2597  0.1352
13329TIP3    H161478   4.655   1.687   0.559 -0.4894  1.9489  1.3439
13329TIP3    H261479   4.751   1.802   0.537 -0.2007  1.2908 -1.0120
13330TIP3   OH261480   2.043   5.789   6.267  0.1808  0.0474  0.4009
13330TIP3    H161481   1.996   5.846   6.328  0.7757  1.2115 -0.2125
13330TIP3    H261482   2.099   5.735   6.323  1.0621  1.4185  0.8654
13331TIP3   OH261483   6.621   4.471  15.598  0.0810  0.3685  0.3167
13331TIP3    H161484   6.643   4.408  15.667 -0.8464 -1.3113 -0.8883
13331TIP3    H261485   6.572   4.540  15.644  0.2537 -0.2721  1.4934
13332TIP3   OH261486   2.108   2.943   2.060  0.0450  0.0025 -0.3297
13332TIP3    H161487   2.076   2.939   2.150 -0.4911  2.9738 -0.3218
13332TIP3    H261488   2.028   2.949   2.007  0.4017  2.9153 -0.6289
13333TIP3   OH261489   5.848   5.083  12.283 -0.0070  0.2502 -0.4024
13333TIP3    H161490   5.761   5.106  12.314  0.1765  1.1692 -0.5473
13333TIP3    H261491   5.859   4.991  12.306 -1.5696 -0.2753 -1.7081
13334TIP3   OH261492   5.110   2.292   2.290 -0.4605 -0.0935  0.1541
13334TIP3    H161493   5.039   2.334   2.240 -0.7465 -0.9607 -0.1812
13334TIP3    H261494   5.071   2.213   2.325 -0.1505  0.3306  1.4773
13335TIP3   OH261495   0.775   1.549  13.021  0.6456  0.4443  0.2157
13335TIP3    H161496   0.802   1.604  12.948  0.4909 -0.1967 -0.3356
13335TIP3    H261497   0.849   1.489  13.034  0.1134 -0.3275 -0.3037
13336TIP3   OH261498   4.611   2.042  17.127  0.5666  0.5381  0.2834
13336TIP3    H161499   4.589   2.039  17.034  1.3391  1.9559  0.0272
13336TIP3    H261500   4.603   1.952  17.157 -2.5567  0.5252 -0.4889
13337TIP3   OH261501   3.328   5.972   6.331 -0.2388 -0.5431  0.7765
13337TIP3    H161502   3.422   5.955   6.330 -0.1306 -0.2735  3.0754
13337TIP3    H261503   3.313   6.015   6.415 -2.3194  0.0200  0.1334
13338TIP3   OH261504   2.490   3.616   5.536 -0.1133  0.5305  0.1973
13338TIP3    H161505   2.431   3.663   5.477 -0.8500  0.5970  0.9737
13338TIP3    H261506   2.487   3.525   5.505  0.2553  0.7371 -0.4585
13339TIP3   OH261507   0.086   6.623   5.255  0.1113 -0.3085  1.0042
13339TIP3    H161508  -0.002   6.654   5.277  1.0455  1.6275  2.2086
13339TIP3    H261509   0.104   6.554   5.319 -0.4193 -0.5256  0.9228
13340TIP3   OH261510   5.539   6.290   4.239  0.3719  0.1006  0.7616
13340TIP3    H161511   5.533   6.289   4.334 -1.1307 -0.4395  0.6785
13340TIP3    H261512   5.518   6.200   4.213 -0.3470  0.5135 -0.1242
13341TIP3   OH261513   6.229   0.145   3.402 -0.6935  0.3418  0.0731
13341TIP3    H161514   6.231   0.240   3.416 -0.6878  0.4186 -0.4411
13341TIP3    H261515   6.287   0.109   3.470 -0.5226  0.7218  0.1279
13342TIP3   OH261516   6.045   0.336   2.123  0.2272 -0.2008 -0.2576
13342TIP3    H161517   6.082   0.288   2.198 -0.5757 -1.2060 -0.4846
13342TIP3    H261518   5.952   0.343   2.143  0.2137  0.6104 -0.5958
13343TIP3   OH261519   0.610   4.245  12.750 -0.0885  0.0891 -0.0299
13343TIP3    H161520   0.659   4.205  12.822  1.3563 -1.8599 -2.0083
13343TIP3    H261521   0.654   4.329  12.735  0.9022 -0.4000  0.0608
13344TIP3   OH261522   4.793   3.436  15.343  0.6486  0.5673 -0.1015
13344TIP3    H161523   4.779   3.416  15.435  0.0412  0.1988 -0.2723
13344TIP3    H261524   4.705   3.441  15.306  0.8368  2.2143 -0.3509
13345TIP3   OH261525   3.899   2.920  17.134 -0.1121 -0.5151 -0.3852
13345TIP3    H161526   3.987   2.949  17.157 -1.1092  1.7040  0.7213
13345TIP3    H261527   3.906   2.891  17.043  1.7572 -0.3843 -0.2949
13346TIP3   OH261528   5.197   4.213  13.571 -0.3522 -0.6630  0.0872
13346TIP3    H161529   5.245   4.266  13.635 -0.9071 -0.3025  0.2145
13346TIP3    H261530   5.263   4.184  13.508 -0.3176  1.6499 -0.9781
13347TIP3   OH261531   3.826   4.177  13.514  0.5502 -0.5475  0.3772
13347TIP3    H161532   3.731   4.171  13.525  0.4940 -2.0817 -0.6797
13347TIP3    H261533   3.861   4.130  13.590  0.4920  0.8509  1.2753
13348TIP3   OH261534   1.106   6.225  16.383  0.2161 -0.4508 -0.2870
13348TIP3    H161535   1.118   6.317  16.361 -0.1511  0.0388  1.5000
13348TIP3    H261536   1.019   6.220  16.423 -0.6121 -1.9252 -2.2123
13349TIP3   OH261537   5.235   0.967   2.116 -0.2708 -0.3626  0.6025
13349TIP3    H161538   5.169   0.947   2.182 -0.1925 -0.7467  0.5669
13349TIP3    H261539   5.283   0.885   2.104  0.1183 -0.1259  0.5205
13350TIP3   OH261540   4.850   5.922   2.977  0.0415 -0.4837  0.2158
13350TIP3    H161541   4.830   5.895   3.067 -1.0890  0.7794  0.3583
13350TIP3    H261542   4.802   5.860   2.922 -0.9946  0.0394  0.5162
13351TIP3   OH261543   6.049   5.340  15.103  0.3984 -0.0774 -0.5509
13351TIP3    H161544   6.052   5.414  15.042 -0.4193 -0.3511 -0.9371
13351TIP3    H261545   5.956   5.325  15.116  0.5770 -0.2536  0.4976
13352TIP3   OH261546   1.758   3.274  11.475 -0.1473 -0.2144 -0.3627
13352TIP3    H161547   1.832   3.328  11.503 -2.4099  2.4040  0.8492
13352TIP3    H261548   1.764   3.195  11.529  1.5140  0.1380 -0.0046
13353TIP3   OH261549   2.934   6.225   3.340 -0.2413 -0.3173  0.0193
13353TIP3    H161550   2.977   6.273   3.269 -0.6493 -0.6925 -0.4817
13353TIP3    H261551   2.994   6.153   3.361 -0.7738 -1.0272 -0.8949
13354TIP3   OH261552   2.135   4.643  11.552 -0.3458 -0.0276 -0.0336
13354TIP3    H161553   2.134   4.698  11.473  1.4777  1.0576  0.6643
13354TIP3    H261554   2.218   4.596  11.547 -1.1915 -1.5791  0.1744
13355TIP3   OH261555   5.305   4.100  11.826 -0.0208  0.1025  0.4617
13355TIP3    H161556   5.376   4.043  11.857 -0.7053 -0.8197  0.3215
13355TIP3    H261557   5.350   4.171  11.781  0.8649 -0.0024  1.1601
13356TIP3   OH261558   1.060   3.528  16.023  0.2815 -0.2589 -0.0685
13356TIP3    H161559   1.059   3.432  16.024 -2.1878 -0.2719  0.0754
13356TIP3    H261560   1.065   3.550  15.930 -1.3068 -0.5801 -0.2559
13357TIP3   OH261561   2.633   5.235  16.150  0.6050 -0.5149  0.1905
13357TIP3    H161562   2.644   5.315  16.099  1.2831 -0.6427  0.1415
13357TIP3    H261563   2.635   5.265  16.241 -0.4371 -0.3094  0.1522
13358TIP3   OH261564   0.875   0.207  11.777 -0.2712 -0.2371 -0.3142
13358TIP3    H161565   0.955   0.247  11.811 -1.7572  1.8919  0.7877
13358TIP3    H261566   0.842   0.153  11.849 -1.3730  1.2481  0.3356
13359TIP3   OH261567   3.017   5.656  13.891 -0.3634 -0.1882 -0.0567
13359TIP3    H161568   2.930   5.694  13.902 -0.7307  0.0081 -3.0048
13359TIP3    H261569   3.020   5.632  13.798  2.8287  0.0979 -0.0664
13360TIP3   OH261570   3.668   0.899   0.002 -0.3136  0.4416  0.0398
13360TIP3    H161571   3.626   0.814   0.015  0.5552  0.1510  1.0997
13360TIP3    H261572   3.757   0.878  -0.026 -0.4907  1.0309 -1.0125
13361TIP3   OH261573   2.650   5.514  14.551  0.6751 -0.4909 -0.6243
13361TIP3    H161574   2.648   5.605  14.521 -1.0713 -0.5560 -0.7891
13361TIP3    H261575   2.623   5.519  14.643  0.5306 -0.8357 -0.6486
13362TIP3   OH261576   1.019   2.544  10.365  0.1819 -0.2518  0.5283
13362TIP3    H161577   1.038   2.522  10.456 -1.5958 -1.0141  0.7320
13362TIP3    H261578   0.965   2.471  10.334 -0.9295  1.0036 -0.5331
13363TIP3   OH261579   6.393   2.913  14.148  0.0875  0.5750 -0.1211
13363TIP3    H161580   6.404   2.918  14.244  1.9002  0.0158 -0.2749
13363TIP3    H261581   6.361   2.824  14.132  1.1848  0.1690 -0.1310
13364TIP3   OH261582   2.945   1.992  14.131  0.3968 -0.2610 -0.0091
13364TIP3    H161583   2.948   1.931  14.205 -0.4724 -1.6584 -1.0912
13364TIP3    H261584   2.895   2.067  14.164 -1.1233 -1.4360  0.4369
13365TIP3   OH261585   2.855   1.882   1.860 -0.4873  0.2026  0.5414
13365TIP3    H161586   2.783   1.832   1.822 -0.4244  0.0916  0.5697
13365TIP3    H261587   2.923   1.817   1.880 -0.4470  0.2848  0.6747
13366TIP3   OH261588   4.193   3.063  16.773  0.1461 -1.1573 -0.2773
13366TIP3    H161589   4.275   3.035  16.814  0.2488 -0.2208  0.1597
13366TIP3    H261590   4.195   3.024  16.685  1.5739 -0.2148 -0.6682
13367TIP3   OH261591   5.680   0.441   4.510  0.0674 -0.0895 -0.0431
13367TIP3    H161592   5.751   0.450   4.574  0.4881  0.8136 -0.6288
13367TIP3    H261593   5.681   0.348   4.486  0.8897 -0.1324  0.1464
13368TIP3   OH261594   5.189   4.000   3.467  0.2080 -0.0290  0.1246
13368TIP3    H161595   5.282   3.994   3.489  0.2707  0.3995 -0.0303
13368TIP3    H261596   5.187   4.050   3.386  0.1121 -3.0501 -1.8229
13369TIP3   OH261597   4.931   4.854   1.867 -0.1331 -0.0725  0.3717
13369TIP3    H161598   4.921   4.916   1.794  0.0523  0.4794  0.8097
13369TIP3    H261599   4.866   4.883   1.932  0.8484  0.4657  1.1270
13370TIP3   OH261600   0.025   3.680  11.476 -0.2718 -0.2573  0.2976
13370TIP3    H161601  -0.067   3.657  11.482 -0.1564 -0.6724  0.4620
13370TIP3    H261602   0.026   3.765  11.431 -0.6443 -0.9308 -1.0106
13371TIP3   OH261603   0.594   1.978  16.742 -0.2141 -0.0541  0.3541
13371TIP3    H161604   0.603   1.980  16.647  0.6104  1.9482  0.4620
13371TIP3    H261605   0.683   1.974  16.775 -0.5291 -2.0533  1.0522
13372TIP3   OH261606   4.479   2.841  15.493 -0.4578 -0.3517  0.3404
13372TIP3    H161607   4.477   2.809  15.403 -0.1082 -0.4229  0.3593
13372TIP3    H261608   4.420   2.783  15.541 -1.0510  0.0055  0.0491
13373TIP3   OH261609   5.538   0.510   1.500  0.7419 -0.1304 -0.0733
13373TIP3    H161610   5.466   0.573   1.508  0.2503 -0.4460 -1.8361
13373TIP3    H261611   5.616   0.560   1.521  0.1839  0.6391  0.1948
13374TIP3   OH261612   1.462   6.350   1.843  0.6919  0.1778  0.5775
13374TIP3    H161613   1.511   6.396   1.775  0.9010 -1.3767 -0.3443
13374TIP3    H261614   1.377   6.332   1.805  0.3187  0.5419  1.2321
13375TIP3   OH261615   6.287   3.788   1.236 -0.3521  0.2294 -0.0527
13375TIP3    H161616   6.330   3.717   1.188  2.0567  0.9679  0.9734
13375TIP3    H261617   6.211   3.810   1.182 -0.3862 -2.1940 -1.0746
13376TIP3   OH261618   5.067   6.078   3.346 -0.0294 -0.2082 -0.5538
13376TIP3    H161619   5.077   6.145   3.278  2.2060  0.6986  0.5991
13376TIP3    H261620   5.023   6.123   3.418 -0.6880 -0.6488 -0.6782
13377TIP3   OH261621   0.296   6.049  16.738 -0.0497 -0.1002  0.6410
13377TIP3    H161622   0.226   5.988  16.713  0.2140 -0.3540  0.5156
13377TIP3    H261623   0.321   6.022  16.826 -2.1300  1.8442  1.8872
13378TIP3   OH261624   1.994   6.799  15.701 -0.9117  0.1099  0.9230
13378TIP3    H161625   1.950   6.714  15.696  0.6527 -0.7964  1.8784
13378TIP3    H261626   2.079   6.784  15.660 -0.0335  0.7925  2.4469
13379TIP3   OH261627   1.301   2.111   0.270  0.3010 -0.0019  0.1503
13379TIP3    H161628   1.382   2.073   0.304  0.4972 -0.1363 -0.4581
13379TIP3    H261629   1.241   2.109   0.344  1.1493  1.0100  0.8869
13380TIP3   OH261630   0.410   2.988   3.519 -0.0789 -0.1607  0.0445
13380TIP3    H161631   0.412   3.067   3.573 -0.4113  0.9248 -1.4975
13380TIP3    H261632   0.318   2.961   3.518 -0.4088  0.9552 -1.5604
13381TIP3   OH261633   3.294   5.441  11.733 -0.2272  0.8014 -0.1265
13381TIP3    H161634   3.296   5.461  11.827  0.7707 -2.4559  0.6008
13381TIP3    H261635   3.211   5.395  11.720  0.3012 -0.0602 -0.5270
13382TIP3   OH261636   6.217   3.868   3.546 -0.0765 -0.0968 -0.2304
13382TIP3    H161637   6.144   3.926   3.567 -1.5455 -1.8661 -0.3170
13382TIP3    H261638   6.220   3.867   3.450  1.1338  1.2548 -0.2221
13383TIP3   OH261639   4.055   0.868   5.450  0.2850 -0.2582 -0.2400
13383TIP3    H161640   4.041   0.779   5.418  1.7772 -1.2158  1.6183
13383TIP3    H261641   3.978   0.887   5.503  0.4043 -0.8445  0.1489
13384TIP3   OH261642   2.759   0.725   1.118  0.6700 -0.1346 -0.3315
13384TIP3    H161643   2.796   0.741   1.204 -2.7399  3.4571  0.6340
13384TIP3    H261644   2.807   0.784   1.060  0.8734 -0.2804 -0.3118
13385TIP3   OH261645   5.558   3.630  13.032  0.0229 -0.5802 -0.1196
13385TIP3    H161646   5.653   3.633  13.028  0.0389  0.7867  0.7186
13385TIP3    H261647   5.529   3.702  12.976 -0.3937  1.1390  2.1920
13386TIP3   OH261648   1.709   3.014  11.721 -0.0936  0.1001 -0.4636
13386TIP3    H161649   1.717   2.968  11.804  1.1787 -0.4896 -0.8937
13386TIP3    H261650   1.667   3.097  11.742  0.4814  0.0701  0.7967
13387TIP3   OH261651   3.557   1.557  13.663  0.3429  0.3435 -0.1229
13387TIP3    H161652   3.528   1.499  13.593 -0.9781  0.1857  0.5342
13387TIP3    H261653   3.481   1.613  13.680  1.3628  1.8243 -0.2812
13388TIP3   OH261654   5.700   2.868  10.354  0.5449  0.6399  0.1174
13388TIP3    H161655   5.732   2.789  10.397 -0.0087  0.7035  0.6567
13388TIP3    H261656   5.761   2.882  10.281 -0.6339 -1.4961 -1.3310
13389TIP3   OH261657   6.592   4.231  13.763 -1.1861  0.1888  0.0929
13389TIP3    H161658   6.687   4.248  13.761 -1.5758  2.5437 -1.5281
13389TIP3    H261659   6.559   4.291  13.830 -1.3463 -1.8270  1.8394
13390TIP3   OH261660   0.065   3.415   4.831  0.6815 -0.2223 -0.2276
13390TIP3    H161661   0.059   3.504   4.865  2.6142  0.6642 -2.0959
13390TIP3    H261662  -0.020   3.400   4.789  0.6498  1.0609 -0.6524
13391TIP3   OH261663   4.454   4.002  14.332 -0.0717  0.3251 -0.2842
13391TIP3    H161664   4.426   3.955  14.410 -0.9161 -0.3750 -0.9996
13391TIP3    H261665   4.547   3.981  14.323  0.1259  0.7395  0.7569
13392TIP3   OH261666   0.428   2.731  17.153 -0.1452  0.3246 -0.2051
13392TIP3    H161667   0.471   2.772  17.078 -0.4252 -1.4262 -1.3493
13392TIP3    H261668   0.457   2.783  17.228  2.7876  0.1235 -1.1326
13393TIP3   OH261669   6.130   3.916   0.421 -0.1318 -0.2958 -0.3663
13393TIP3    H161670   6.154   3.980   0.354  0.7413 -1.5200 -1.2594
13393TIP3    H261671   6.035   3.924   0.429 -0.4414 -1.0045 -2.7213
13394TIP3   OH261672   2.521   3.939   4.760 -0.0281  0.9209  0.3593
13394TIP3    H161673   2.608   3.905   4.739  0.5516  1.4305  1.8562
13394TIP3    H261674   2.480   3.956   4.675  1.9457  2.2056 -0.3620
13395TIP3   OH261675   4.493   3.085  15.264  0.2877  0.8063 -0.1979
13395TIP3    H161676   4.442   3.017  15.308  0.4922 -0.3879 -1.7708
13395TIP3    H261677   4.584   3.062  15.282  0.3795  0.0998 -1.5636
13396TIP3   OH261678   4.677   2.597  15.590 -0.1502 -0.0252 -0.2379
13396TIP3    H161679   4.584   2.620  15.591 -0.7546 -2.2957 -0.9480
13396TIP3    H261680   4.709   2.619  15.677 -1.2351  1.1871 -0.1344
13397TIP3   OH261681   3.883   0.717   4.616  0.6388 -0.2643 -0.5196
13397TIP3    H161682   3.858   0.785   4.678 -1.1743  0.5541 -2.1022
13397TIP3    H261683   3.975   0.735   4.597  0.0940  2.0503 -1.2062
13398TIP3   OH261684   2.657   0.284  14.277 -0.0581 -0.0061 -0.0355
13398TIP3    H161685   2.604   0.313  14.351 -0.4643  0.7733 -0.6210
13398TIP3    H261686   2.647   0.353  14.211  0.0796 -0.8172 -0.9228
13399TIP3   OH261687   5.292   4.268  12.522  0.5071  0.4523 -0.3486
13399TIP3    H161688   5.253   4.226  12.599  1.1933  0.2829 -0.0956
13399TIP3    H261689   5.330   4.349  12.555 -1.4455  1.6537 -0.9608
13400TIP3   OH261690   3.285   5.955   2.786  0.1225 -0.2362 -0.0951
13400TIP3    H161691   3.231   5.922   2.857 -0.0914 -0.4439 -0.3550
13400TIP3    H261692   3.234   5.940   2.707  0.1427  0.4546 -0.2463
13401TIP3   OH261693   5.656   3.984   2.825  0.7081 -0.1429 -0.3603
13401TIP3    H161694   5.601   3.929   2.769 -1.6159  2.0663 -0.3044
13401TIP3    H261695   5.608   3.990   2.907 -0.1147  3.6124 -1.0473
13402TIP3   OH261696   0.900   3.500  11.423 -0.4816 -0.0388  0.1594
13402TIP3    H161697   0.898   3.423  11.366  0.4974  0.5713 -0.7379
13402TIP3    H261698   0.975   3.551  11.391 -2.0323  2.0542 -0.2693
13403TIP3   OH261699   4.636   4.434  16.182  0.2442  0.2535  0.2907
13403TIP3    H161700   4.546   4.457  16.205  0.1283  0.3618 -0.2812
13403TIP3    H261701   4.627   4.364  16.117  0.5685  0.7368 -0.2749
13404TIP3   OH261702   2.637   5.122   3.667  0.3270 -0.0463  0.1441
13404TIP3    H161703   2.547   5.108   3.695  0.6138 -2.7155 -0.1164
13404TIP3    H261704   2.669   5.192   3.724 -2.0156  1.2413 -0.0482
13405TIP3   OH261705   0.513   5.351   6.519 -0.1981 -0.2214  0.4764
13405TIP3    H161706   0.482   5.276   6.570  0.9706 -1.1574 -0.1569
13405TIP3    H261707   0.434   5.399   6.497 -0.9260 -1.0281  1.2672
13406TIP3   OH261708   1.995   3.954  16.457 -0.0241  0.3595  0.0215
13406TIP3    H161709   2.073   3.994  16.495 -0.5764  0.8625  0.6390
13406TIP3    H261710   2.029   3.894  16.390  0.9281 -0.0079  0.8174
13407TIP3   OH261711   2.376   0.813  17.204  0.4259  0.2264  0.0530
13407TIP3    H161712   2.423   0.783  17.126 -0.0313 -1.3537  0.3757
13407TIP3    H261713   2.384   0.741  17.266  0.2719  1.2318  1.2674
13408TIP3   OH261714   1.959   3.591   0.824  0.2185 -0.3770  0.1271
13408TIP3    H161715   1.947   3.667   0.881  0.4073 -0.3428  0.1245
13408TIP3    H261716   1.877   3.543   0.828  0.5442 -0.8564  1.1443
13409TIP3   OH261717   0.555   3.288   1.952  0.8013 -0.3549 -1.0792
13409TIP3    H161718   0.614   3.227   1.909  0.9043  0.0411 -1.5030
13409TIP3    H261719   0.561   3.368   1.900  1.5225  0.3904  0.1225
13410TIP3   OH261720   4.107   5.826   1.293 -0.1418  0.1965 -0.1722
13410TIP3    H161721   4.142   5.739   1.312  0.7764  0.5432 -0.2291
13410TIP3    H261722   4.043   5.842   1.362 -0.9672 -0.8862 -0.6824
13411TIP3   OH261723   6.650   4.771  11.301  0.0886  0.1761 -0.0362
13411TIP3    H161724   6.607   4.832  11.362 -0.5550 -0.5488  0.2527
13411TIP3    H261725   6.664   4.692  11.353 -2.4397 -1.2426 -1.3982
13412TIP3   OH261726   1.233   3.169   5.541 -0.0076  0.2751  0.0692
13412TIP3    H161727   1.161   3.110   5.564  1.1421 -1.0086  0.5059
13412TIP3    H261728   1.195   3.232   5.480 -2.1985  1.3968  2.5177
13413TIP3   OH261729   0.483   0.599   6.039 -0.1754 -0.1341  0.5256
13413TIP3    H161730   0.473   0.534   6.109  0.9994 -0.2690  0.5919
13413TIP3    H261731   0.544   0.663   6.075 -0.2472  0.2580 -0.0527
13414TIP3   OH261732   0.424   6.642   2.554  0.5296 -0.4877 -0.0254
13414TIP3    H161733   0.371   6.662   2.478 -0.1995 -2.0727  0.0361
13414TIP3    H261734   0.479   6.719   2.567 -0.3090  0.3349 -1.3212
13415TIP3   OH261735   5.995   1.392  13.190 -0.0376 -0.6017  0.4770
13415TIP3    H161736   5.935   1.439  13.248  1.9312  2.0607  0.4326
13415TIP3    H261737   5.944   1.379  13.110 -1.0906  0.2437  0.9876
13416TIP3   OH261738   3.954   4.463  14.761  0.2861  0.1532 -0.1522
13416TIP3    H161739   3.921   4.379  14.794 -0.0963  0.1603 -0.5172
13416TIP3    H261740   3.974   4.514  14.840 -3.9178  1.4956  0.1521
13417TIP3   OH261741   3.860   1.296  16.612 -0.1700  0.1092  0.0874
13417TIP3    H161742   3.859   1.319  16.705  0.1270  0.3373  0.0384
13417TIP3    H261743   3.775   1.327  16.579 -0.3659 -0.1692  0.3284
13418TIP3   OH261744   3.572   2.241  15.075  0.0822 -0.1585  0.3033
13418TIP3    H161745   3.539   2.323  15.111  0.4988 -0.2411  0.8889
13418TIP3    H261746   3.558   2.248  14.981  0.9124  0.9628  0.2485
13419TIP3   OH261747   1.777   4.567   5.166  0.4733 -0.7517 -0.6477
13419TIP3    H161748   1.702   4.624   5.186 -0.3868 -2.7529  2.2256
13419TIP3    H261749   1.852   4.626   5.162 -0.8710  0.9880 -1.1632
13420TIP3   OH261750   3.111   4.167  15.846  0.3880  0.0164 -0.0693
13420TIP3    H161751   3.110   4.121  15.930 -0.1763  1.2209  0.6013
13420TIP3    H261752   3.027   4.145  15.806 -0.3757  1.3665  0.7640
13421TIP3   OH261753   4.239   6.375  16.897  0.0999 -0.4068 -0.1156
13421TIP3    H161754   4.256   6.369  16.992  1.5269  0.2421 -0.3079
13421TIP3    H261755   4.171   6.441  16.889  1.0650  0.6570  0.3640
13422TIP3   OH261756   2.258   3.982  14.950  0.0644  0.1327  0.2019
13422TIP3    H161757   2.237   3.961  15.041 -0.6660 -1.2366 -0.2615
13422TIP3    H261758   2.173   4.003  14.910  0.3887  0.7873 -0.1557
13423TIP3   OH261759   6.439   6.063   5.186 -0.5220 -0.1782  0.0244
13423TIP3    H161760   6.388   6.095   5.111 -0.4564 -0.8823 -0.3228
13423TIP3    H261761   6.408   6.116   5.260  0.0029  1.0924 -0.6488
13424TIP3   OH261762   0.871   4.473   1.370 -0.6148  0.7322 -0.3505
13424TIP3    H161763   0.858   4.382   1.398  0.3124  0.6523 -0.1680
13424TIP3    H261764   0.791   4.518   1.396 -1.3410 -0.1623 -0.9972
13425TIP3   OH261765   3.246   4.178  10.979 -0.1493 -0.7530 -0.0053
13425TIP3    H161766   3.191   4.136  10.913 -0.4976  0.6789 -0.6474
13425TIP3    H261767   3.336   4.162  10.949 -0.2528 -1.6742  0.1627
13426TIP3   OH261768   3.093   5.217  11.137  0.0662 -0.2355 -0.2462
13426TIP3    H161769   3.011   5.179  11.106  1.1389 -0.3991 -2.9438
13426TIP3    H261770   3.113   5.287  11.075  1.6295  0.2828  0.7877
13427TIP3   OH261771   0.755   0.719  13.944 -0.3221  0.0954 -0.2680
13427TIP3    H161772   0.771   0.639  13.994  1.6452 -0.4345 -1.6864
13427TIP3    H261773   0.718   0.780  14.008  0.0635 -1.2782  1.3055
13428TIP3   OH261774   5.106   4.641  14.554 -0.3372 -0.3189 -0.1274
13428TIP3    H161775   5.180   4.581  14.565  0.1422  0.0951 -1.1286
13428TIP3    H261776   5.041   4.609  14.618  0.3899 -1.1504  0.2140
13429TIP3   OH261777   6.133   5.581   3.960  0.4021  1.0101  0.4620
13429TIP3    H161778   6.196   5.647   3.933  1.5075 -0.5073 -0.8335
13429TIP3    H261779   6.116   5.531   3.879 -0.4412 -0.2246  1.3829
13430TIP3   OH261780   0.277   3.249   3.309 -0.2411 -0.0058  0.3163
13430TIP3    H161781   0.258   3.156   3.300  2.0131 -0.5371  0.7621
13430TIP3    H261782   0.371   3.253   3.329 -0.6105  2.2577  1.8485
13431TIP3   OH261783   6.810   5.395  13.219  0.1206 -0.7480 -0.2695
13431TIP3    H161784   6.893   5.369  13.181  0.5905 -1.0783  0.9724
13431TIP3    H261785   6.822   5.385  13.314 -0.7844  0.7442  0.0244
13432TIP3   OH261786   5.096   0.767  16.925 -0.3539  0.2596  0.3302
13432TIP3    H161787   5.132   0.692  16.878 -0.5767  0.2496  0.1723
13432TIP3    H261788   5.091   0.837  16.859  1.5528  0.9758  0.9222
13433TIP3   OH261789   3.768   6.427  13.597  0.1122 -0.2152  0.0683
13433TIP3    H161790   3.776   6.523  13.595  0.2259 -0.2022  0.9168
13433TIP3    H261791   3.814   6.401  13.677 -1.5060 -0.8218  0.8135
13434TIP3   OH261792   1.034   0.694  12.349  0.6461  0.7699 -0.0629
13434TIP3    H161793   1.017   0.626  12.414  1.6425  1.0640  0.5217
13434TIP3    H261794   1.046   0.647  12.267  0.3270  0.3251  0.1436
13435TIP3   OH261795   4.869   5.927  17.155 -0.2574 -0.2109 -0.0212
13435TIP3    H161796   4.836   5.864  17.220 -1.3356  1.2083  0.8419
13435TIP3    H261797   4.916   5.992  17.207  0.2047  0.0922 -0.8247
13436TIP3   OH261798   3.887   2.757  11.191  0.3321 -0.9358 -0.3781
13436TIP3    H161799   3.936   2.696  11.246  1.1294  0.3339  0.3681
13436TIP3    H261800   3.901   2.726  11.102 -0.2617 -2.5291  0.0770
13437TIP3   OH261801   6.461   3.069  15.259  0.5078  0.0482 -0.3004
13437TIP3    H161802   6.444   3.136  15.325  0.2881 -0.7034  0.4214
13437TIP3    H261803   6.427   3.106  15.177  1.7961  1.4417 -0.2167
13438TIP3   OH261804   5.225   2.177   3.570 -0.1531  0.2261 -0.0136
13438TIP3    H161805   5.293   2.111   3.582 -0.2247  0.1232 -0.1763
13438TIP3    H261806   5.272   2.260   3.566 -0.1225  0.2693  1.0251
13439TIP3   OH261807   1.308   0.608  12.229  0.2555 -0.2130  0.1245
13439TIP3    H161808   1.213   0.616  12.215 -0.1166  0.1051  2.6962
13439TIP3    H261809   1.323   0.514  12.232 -0.3263 -0.2620  1.8645
13440TIP3   OH261810   0.560   5.265   4.794 -0.2549 -0.1886  0.1002
13440TIP3    H161811   0.602   5.193   4.747  2.9395  1.1454  0.7860
13440TIP3    H261812   0.530   5.226   4.876  1.4819 -0.7750  0.4872
13441TIP3   OH261813   0.194   3.604   2.928 -0.2388  0.3056  0.2995
13441TIP3    H161814   0.232   3.549   2.859 -0.3584 -0.5231  0.8874
13441TIP3    H261815   0.129   3.658   2.882  1.0138  1.1285 -0.5675
13442TIP3   OH261816   3.473   0.309   1.541  0.0893 -0.1739 -0.1667
13442TIP3    H161817   3.499   0.391   1.583 -0.9121 -0.4707  1.0827
13442TIP3    H261818   3.422   0.264   1.608  0.2019 -1.5871 -1.0265
13443TIP3   OH261819   1.996   1.955   3.832 -0.1417 -0.3618 -0.5888
13443TIP3    H161820   1.957   2.040   3.813 -1.3449 -0.5732  0.8327
13443TIP3    H261821   2.061   1.942   3.763  0.7660  2.1480 -0.2628
13444TIP3   OH261822   1.626   4.454  15.957 -0.2845 -0.2182 -0.3759
13444TIP3    H161823   1.543   4.470  15.912 -0.0563 -0.7264 -0.9848
13444TIP3    H261824   1.600   4.434  16.047 -0.8176 -0.2911 -0.5404
13445TIP3   OH261825   5.425   0.453   5.557  0.2279  0.0471  0.0012
13445TIP3    H161826   5.417   0.388   5.627  0.0835  0.2981  0.2229
13445TIP3    H261827   5.503   0.503   5.580  0.7150 -0.4808 -0.5340
13446TIP3   OH261828   4.382   4.465   1.515  0.0081 -0.6172 -0.3749
13446TIP3    H161829   4.334   4.479   1.433 -0.4018 -1.0470 -0.2115
13446TIP3    H261830   4.473   4.452   1.488 -0.2715 -1.6635 -0.8307
13447TIP3   OH261831   3.866   5.630   3.241  0.6153  0.5710 -0.2074
13447TIP3    H161832   3.919   5.656   3.317 -0.6938  0.1764  0.8738
13447TIP3    H261833   3.801   5.700   3.233 -0.0547 -0.0381 -0.1528
13448TIP3   OH261834   4.772   5.276  15.873 -0.1469  0.3779 -0.3560
13448TIP3    H161835   4.760   5.199  15.818 -0.8219  0.5958 -0.5105
13448TIP3    H261836   4.686   5.317  15.876  0.0424  0.7306  0.3167
13449TIP3   OH261837   5.366   1.996  11.640 -0.2774 -0.7007 -0.0278
13449TIP3    H161838   5.305   1.927  11.614 -0.2711 -0.8965  0.4568
13449TIP3    H261839   5.370   1.989  11.736 -1.3325  0.8572  0.1527
13450TIP3   OH261840   6.556   0.830   0.853 -0.3223  0.1719 -0.7433
13450TIP3    H161841   6.536   0.909   0.804  0.4719  0.2014 -1.0290
13450TIP3    H261842   6.625   0.787   0.803 -1.1155 -0.9732 -0.8746
13451TIP3   OH261843   6.197   3.599  10.444 -0.4518 -0.2173 -0.3893
13451TIP3    H161844   6.253   3.613  10.367 -1.0023  1.1638 -0.5606
13451TIP3    H261845   6.151   3.517  10.425  0.7172 -0.8137 -0.7252
13452TIP3   OH261846   3.635   6.207  15.015  0.1912 -0.2004 -0.5363
13452TIP3    H161847   3.626   6.216  15.110  0.1743 -1.2547 -0.4368
13452TIP3    H261848   3.603   6.119  14.995  0.0003  0.0831 -1.5478
13453TIP3   OH261849   0.842   0.341  12.129  0.2751 -0.3508  0.0373
13453TIP3    H161850   0.828   0.411  12.192  2.3016 -1.0206  1.2879
13453TIP3    H261851   0.772   0.352  12.064 -2.2309 -0.0048  2.6813
13454TIP3   OH261852   1.782   5.514   3.369 -0.3789 -0.0240 -0.1335
13454TIP3    H161853   1.746   5.580   3.309  0.4237  0.5694  0.0317
13454TIP3    H261854   1.742   5.534   3.453  1.8482  1.9175  0.5166
13455TIP3   OH261855   5.223   0.586  16.765 -0.0316 -0.2755 -0.1413
13455TIP3    H161856   5.204   0.527  16.692 -0.4126 -1.4590  0.9153
13455TIP3    H261857   5.318   0.594  16.765 -0.0539  0.0617 -1.0245
13456TIP3   OH261858   1.822   1.853   5.329 -1.0832 -0.6711 -0.0717
13456TIP3    H161859   1.888   1.818   5.388  0.7550 -0.9907 -2.2581
13456TIP3    H261860   1.773   1.776   5.299 -1.5079 -0.5933  0.4133
13457TIP3   OH261861   1.556   3.441   2.281 -0.0787  0.1946  0.2190
13457TIP3    H161862   1.500   3.376   2.239 -0.3614  0.4085  0.2640
13457TIP3    H261863   1.530   3.524   2.241  0.8776  0.1702 -0.4578
13458TIP3   OH261864   1.352   0.878   4.006  0.4153  0.2708 -0.3746
13458TIP3    H161865   1.443   0.901   3.985  0.7167 -0.5348  0.0035
13458TIP3    H261866   1.312   0.859   3.921  0.8035 -0.0689 -0.4852
13459TIP3   OH261867   0.986   5.156  11.704  0.3852  0.0155  0.8999
13459TIP3    H161868   1.033   5.072  11.706 -1.0224 -0.8010  0.4506
13459TIP3    H261869   1.039   5.211  11.646  0.8135 -0.8864  0.4089
13460TIP3   OH261870   4.973   2.535   1.490 -0.4410 -0.2791 -0.0469
13460TIP3    H161871   4.900   2.532   1.428 -0.6964  0.7078  0.1996
13460TIP3    H261872   4.932   2.525   1.576 -0.3662  0.9788  0.1403
13461TIP3   OH261873   3.240   2.890  15.599  0.3078  0.7869  0.1452
13461TIP3    H161874   3.261   2.823  15.535 -1.0903 -1.1052  1.6363
13461TIP3    H261875   3.215   2.966  15.546  2.3764  0.3468 -1.5538
13462TIP3   OH261876   6.026   5.525   5.967 -0.3211 -0.0443 -0.0315
13462TIP3    H161877   6.010   5.443   5.922 -0.3610 -0.3643  0.5644
13462TIP3    H261878   6.118   5.520   5.994 -0.3895 -0.0019  0.2164
13463TIP3   OH261879   6.200   5.605  13.940  0.3719 -0.3461  0.1744
13463TIP3    H161880   6.117   5.651  13.950  0.4398 -0.0809 -0.4792
13463TIP3    H261881   6.234   5.635  13.856 -0.7190 -3.3979 -1.4476
13464TIP3   OH261882   0.363   1.377   2.828 -0.1129 -0.2025  0.2868
13464TIP3    H161883   0.359   1.435   2.752 -0.7587  0.2337  0.6385
13464TIP3    H261884   0.452   1.343   2.829  0.1250  0.4080 -0.2115
13465TIP3   OH261885   6.154   3.653   0.337  0.0959 -0.5556  0.0433
13465TIP3    H161886   6.173   3.663   0.243  1.6251 -1.1094  0.2899
13465TIP3    H261887   6.160   3.742   0.372  1.4923 -0.6068 -0.0305
13466TIP3   OH261888   5.671   3.108  11.006 -0.5287 -0.3306 -0.4042
13466TIP3    H161889   5.681   3.126  10.912  0.5432  0.7267 -0.1069
13466TIP3    H261890   5.577   3.096  11.019 -0.7624  0.2725 -1.4909
13467TIP3   OH261891   4.900   1.594  15.242  1.2532 -0.2987 -0.0484
13467TIP3    H161892   4.915   1.505  15.275  0.5822 -0.8473 -1.1686
13467TIP3    H261893   4.821   1.586  15.188  0.8176  1.1198  0.3495
13468TIP3   OH261894   3.085   4.419  11.821  0.0499  0.3722  0.0052
13468TIP3    H161895   3.046   4.361  11.755  0.8929  0.8028 -0.8846
13468TIP3    H261896   3.011   4.471  11.853 -0.6021 -0.7478  0.3692
13469TIP3   OH261897   0.987   4.890  12.334  0.3340  1.0348  0.3130
13469TIP3    H161898   0.910   4.887  12.278  0.8759  0.4182 -0.4204
13469TIP3    H261899   0.968   4.826  12.403  0.5050  0.3099 -0.2994
13470TIP3   OH261900   4.875   0.986  11.131 -0.3034  0.1713 -0.4603
13470TIP3    H161901   4.890   1.007  11.039  0.6951 -0.1354 -0.3760
13470TIP3    H261902   4.962   0.988  11.171 -0.6070 -0.6307  0.2792
13471TIP3   OH261903   1.235   5.289   0.978  0.1873 -0.1140 -0.3175
13471TIP3    H161904   1.214   5.268   0.887  3.8474  0.8827 -1.4432
13471TIP3    H261905   1.236   5.384   0.981  3.7326 -0.1042 -0.1820
13472TIP3   OH261906   4.984   4.860   0.844  0.0204  0.9112 -0.8418
13472TIP3    H161907   5.068   4.816   0.831 -1.0556 -1.3198 -0.4361
13472TIP3    H261908   4.930   4.795   0.888 -2.1089  2.1083 -1.6389
13473TIP3   OH261909   6.042   0.721  13.712 -0.3061 -0.4903  0.3236
13473TIP3    H161910   6.072   0.808  13.684  0.9078 -0.5565  1.3590
13473TIP3    H261911   5.957   0.738  13.753  1.4248  0.7645  3.5884
13474TIP3   OH261912   2.742   2.289  13.910 -0.3387  0.1058 -0.8319
13474TIP3    H161913   2.696   2.213  13.874  1.0634 -0.1268 -2.1832
13474TIP3    H261914   2.835   2.266  13.901  0.0585  1.0909  0.6992
13475TIP3   OH261915   5.616   0.988   4.628 -0.2313  0.5451  0.1163
13475TIP3    H161916   5.620   0.932   4.705 -1.2233  0.4846  0.1242
13475TIP3    H261917   5.672   0.945   4.563  0.3273  0.4187  0.6784
13476TIP3   OH261918   5.662   1.543   0.689 -0.1679  0.3809 -0.0240
13476TIP3    H161919   5.753   1.555   0.661 -0.3488  0.8316 -0.4281
13476TIP3    H261920   5.668   1.520   0.782  0.2712  2.0953  0.3916
13477TIP3   OH261921   0.080   0.633  15.813  0.3494  0.0828  0.9817
13477TIP3    H161922   0.169   0.660  15.791 -0.3797  0.7968 -1.1477
13477TIP3    H261923   0.060   0.680  15.894  1.6963  0.3621  1.1588
13478TIP3   OH261924   0.832   6.046  10.904  0.0902 -0.0278 -0.3478
13478TIP3    H161925   0.833   6.050  10.809  0.8873 -0.4231 -0.3586
13478TIP3    H261926   0.829   6.137  10.932 -0.3799  0.0829 -0.7519
13479TIP3   OH261927   1.719   5.630  16.763  0.8302 -0.3558  0.1191
13479TIP3    H161928   1.675   5.701  16.716 -0.2531 -1.7075 -0.9293
13479TIP3    H261929   1.709   5.554  16.707  1.4306 -1.4999  1.5310
13480TIP3   OH261930   6.553   3.948  15.244  0.3076  0.7640 -0.3408
13480TIP3    H161931   6.632   3.893  15.247  0.1362  0.4250 -1.6751
13480TIP3    H261932   6.560   3.995  15.161 -0.7285  0.9770 -0.3123
13481TIP3   OH261933   3.773   0.308  10.911 -0.1928 -0.3507 -0.2643
13481TIP3    H161934   3.801   0.256  10.835 -0.0045  1.0653 -1.1823
13481TIP3    H261935   3.815   0.393  10.898 -1.3765  0.3785  0.6456
13482TIP3   OH261936   1.328   1.173   4.082  0.1444  0.6648 -0.1661
13482TIP3    H161937   1.340   1.094   4.030  1.6651 -0.1144  1.3283
13482TIP3    H261938   1.363   1.243   4.028 -1.1747  0.3245 -1.4826
13483TIP3   OH261939   5.045   2.183   5.289  0.3781  0.0459  0.1344
13483TIP3    H161940   4.992   2.262   5.281 -0.5757 -0.4065  1.7200
13483TIP3    H261941   4.992   2.115   5.246 -0.1305 -0.3064  1.2922
13484TIP3   OH261942   1.502   2.339   3.993  0.4674 -0.1995 -0.1096
13484TIP3    H161943   1.415   2.332   3.953 -0.1659 -1.1797  1.3678
13484TIP3    H261944   1.510   2.259   4.044  1.4254  0.8202  1.3563
13485TIP3   OH261945   5.738   1.558  13.877 -0.2226  0.6030 -0.1580
13485TIP3    H161946   5.729   1.620  13.949 -0.3377  0.3563  0.0398
13485TIP3    H261947   5.787   1.606  13.810 -0.7625  1.0776 -0.2096
13486TIP3   OH261948   4.271   6.287   4.276  0.4775  0.0912 -0.2838
13486TIP3    H161949   4.286   6.325   4.189  2.0972 -2.3348 -1.1069
13486TIP3    H261950   4.339   6.327   4.331  1.3237 -0.5614 -0.8373
13487TIP3   OH261951   4.480   5.315  13.630  0.0777  0.0559 -0.2249
13487TIP3    H161952   4.574   5.330  13.637  0.0160 -0.1884  1.3331
13487TIP3    H261953   4.467   5.285  13.540  1.6089 -0.6758 -0.2199
13488TIP3   OH261954   1.725   3.365  14.683  0.6962 -0.2065 -0.4888
13488TIP3    H161955   1.696   3.413  14.605  1.0502 -0.0967 -0.5539
13488TIP3    H261956   1.749   3.434  14.746 -0.5104 -0.2821  0.0714
13489TIP3   OH261957   4.812   3.547  17.230  0.0346  0.3946  0.3479
13489TIP3    H161958   4.818   3.486  17.156  1.2459  1.8215 -0.7591
13489TIP3    H261959   4.865   3.622  17.204  0.5050  0.9181  2.6925
13490TIP3   OH261960   5.944   1.182   1.825  0.0974 -0.3120 -0.0311
13490TIP3    H161961   5.943   1.243   1.899 -0.1771  1.3325 -1.3566
13490TIP3    H261962   6.030   1.141   1.829  0.9852  1.4629 -0.1176
13491TIP3   OH261963   0.927   4.768   0.032 -0.3475 -0.2492 -0.3712
13491TIP3    H161964   0.834   4.754   0.019 -0.0657 -1.4472 -1.2418
13491TIP3    H261965   0.960   4.685   0.068  0.2252  0.4754  0.8046
13492TIP3   OH261966   6.115   2.740   4.064  0.0690  0.0579 -0.0077
13492TIP3    H161967   6.056   2.768   3.994  0.2151 -0.1129 -0.1995
13492TIP3    H261968   6.071   2.768   4.145  0.2024  0.8157 -0.1929
13493TIP3   OH261969   0.664   1.926   3.820 -0.5858  0.1791  0.8791
13493TIP3    H161970   0.757   1.949   3.820 -0.1701 -1.3840  1.8469
13493TIP3    H261971   0.641   1.919   3.913 -1.7144  0.7313  0.6454
13494TIP3   OH261972   1.705   1.551  13.235  0.8129 -0.3960  0.3374
13494TIP3    H161973   1.720   1.509  13.150  0.0175 -0.3927  0.1853
13494TIP3    H261974   1.757   1.631  13.232 -0.8529  0.6886 -1.0131
13495TIP3   OH261975   0.933   1.489  14.081  0.6194  0.1666 -0.3285
13495TIP3    H161976   0.894   1.403  14.066  1.1607 -0.4516  1.5987
13495TIP3    H261977   1.026   1.476  14.062  0.5255  0.6231 -1.1193
13496TIP3   OH261978   0.438   4.049   2.284  0.2125  0.2284  0.1066
13496TIP3    H161979   0.425   4.000   2.203 -0.3633  1.2705 -0.4450
13496TIP3    H261980   0.495   4.122   2.259  1.0410 -0.1341  0.9100
13497TIP3   OH261981   2.020   1.290   1.468  0.0802 -0.2969  0.0148
13497TIP3    H161982   2.021   1.220   1.533 -1.7022 -0.5992 -0.2406
13497TIP3    H261983   2.024   1.245   1.384  1.5214  0.0528 -0.1182
13498TIP3   OH261984   6.317   0.677   3.656 -0.4310 -0.0602 -0.1226
13498TIP3    H161985   6.268   0.749   3.696  1.1023  0.3579  1.0193
13498TIP3    H261986   6.398   0.672   3.705 -0.0288 -1.8563 -0.9121
13499TIP3   OH261987   3.723   1.198  15.757  0.2783 -0.0279 -0.0594
13499TIP3    H161988   3.813   1.165  15.754 -0.3833 -2.0543  1.2248
13499TIP3    H261989   3.703   1.224  15.667  1.1790 -2.2481 -0.9275
13500TIP3   OH261990   5.082   1.944   1.564  0.6412  0.3100  0.7734
13500TIP3    H161991   5.171   1.917   1.585  0.4218 -1.0782 -0.0582
13500TIP3    H261992   5.078   1.942   1.468 -0.3059  0.2890  0.8071
13501TIP3   OH261993   1.465   3.455   4.738  0.1444  0.0079 -0.2437
13501TIP3    H161994   1.397   3.421   4.681  0.1106 -0.0110 -0.1909
13501TIP3    H261995   1.491   3.538   4.697  1.7615 -1.1239 -1.5889
13502TIP3   OH261996   1.245   1.955  15.900  0.1051  0.4292  0.7224
13502TIP3    H161997   1.187   1.911  15.963  1.8249 -2.2558  0.5161
13502TIP3    H261998   1.218   1.920  15.815  2.0317 -0.9555  0.6357
13503TIP3   OH261999   2.521   1.523   0.783 -0.2138  0.2612  0.5075
13503TIP3    H162000   2.592   1.508   0.720  0.6234 -1.8205  1.8960
13503TIP3    H262001   2.441   1.514   0.731  0.4685 -0.4493 -0.4553
13504TIP3   OH262002   5.508   5.488  15.617  0.4088 -0.2637  0.4888
13504TIP3    H162003   5.442   5.503  15.550  1.0822 -1.1725 -0.3934
13504TIP3    H262004   5.576   5.553  15.600  0.4260 -0.2778  0.5054
13505TIP3   OH262005   2.551   1.216  14.248  0.1050  0.4670 -0.1323
13505TIP3    H162006   2.632   1.265  14.265  0.9761 -0.9482 -0.1619
13505TIP3    H262007   2.508   1.210  14.334 -0.9416  2.8610 -0.4309
13506TIP3   OH262008   3.665   1.255   3.009  0.0897  0.1730  0.1587
13506TIP3    H162009   3.579   1.240   3.047 -0.1619  1.6130  0.1714
13506TIP3    H262010   3.714   1.174   3.028 -0.3693  0.4197  2.6064
13507TIP3   OH262011   6.731   3.708  13.391 -0.0686 -0.1293  0.2959
13507TIP3    H162012   6.814   3.681  13.352  0.0941 -0.3926  0.8187
13507TIP3    H262013   6.693   3.770  13.328 -0.0729 -0.9755 -0.5436
13508TIP3   OH262014   5.645   3.343  16.882  0.3692  0.1518  0.0646
13508TIP3    H162015   5.557   3.367  16.852 -1.0363 -4.5944 -0.0265
13508TIP3    H262016   5.697   3.341  16.801 -0.3944 -0.5624 -0.4306
13509TIP3   OH262017   3.868   5.834   5.515 -0.7924 -0.0391  0.4397
13509TIP3    H162018   3.942   5.866   5.566  0.9106 -1.6297 -0.9422
13509TIP3    H262019   3.791   5.849   5.570  0.4291  2.5059  1.5198
13510TIP3   OH262020   4.995   5.230   1.212  0.3798 -0.1059  0.5060
13510TIP3    H162021   4.974   5.178   1.134  0.6964  0.0216  0.3365
13510TIP3    H262022   5.031   5.311   1.177 -0.8265  0.5427  0.7572
13511TIP3   OH262023   2.199   4.724  11.308  0.3220 -0.0769  0.2611
13511TIP3    H162024   2.248   4.643  11.297  0.9950  0.3050  0.4165
13511TIP3    H262025   2.254   4.791  11.268 -0.0770  0.3542  0.4331
13512TIP3   OH262026   1.271   2.051   3.742  0.8219  0.0288  0.1297
13512TIP3    H162027   1.302   2.021   3.656  0.1003 -1.2006  0.2739
13512TIP3    H262028   1.302   2.141   3.749  1.7536 -0.1881 -0.9930
13513TIP3   OH262029   2.785   5.974  15.574 -0.4555  0.3984 -0.2050
13513TIP3    H162030   2.803   6.021  15.655 -0.3049  1.8687 -1.0812
13513TIP3    H262031   2.865   5.924  15.556  0.5325  2.2161 -0.9045
13514TIP3   OH262032   4.021   0.275   1.195  0.3961  0.1341 -0.5429
13514TIP3    H162033   3.934   0.238   1.209  0.6230 -0.2351 -0.0871
13514TIP3    H262034   4.036   0.266   1.101  0.1994 -0.3892 -0.5250
13515TIP3   OH262035   3.200   0.429   1.948 -0.2258 -0.2041 -0.1110
13515TIP3    H162036   3.161   0.512   1.975 -0.9469  0.0462 -1.8405
13515TIP3    H262037   3.294   0.444   1.954 -0.3593 -0.0696  1.9151
13516TIP3   OH262038   5.865   4.860   2.902 -0.0527 -0.1141  0.4486
13516TIP3    H162039   5.839   4.774   2.871 -1.0270 -0.1054  1.2099
13516TIP3    H262040   5.893   4.846   2.993 -1.8247  0.6391  1.1248
13517TIP3   OH262041   4.747   0.031   4.528 -0.0734 -0.0921  0.2656
13517TIP3    H162042   4.842   0.031   4.518 -0.1628 -0.4961 -0.6290
13517TIP3    H262043   4.719   0.113   4.487 -0.1223 -0.0043  0.4719
13518TIP3   OH262044   2.602   4.413   5.500  0.0004 -0.1406 -0.2206
13518TIP3    H162045   2.567   4.371   5.578  0.4254 -0.0424  0.0240
13518TIP3    H262046   2.585   4.506   5.513  0.3428 -0.0917 -0.1009
13519TIP3   OH262047   5.398   3.047  10.674 -0.1296 -0.5265 -0.6453
13519TIP3    H162048   5.378   2.980  10.740  0.2440 -0.0416 -0.0415
13519TIP3    H262049   5.440   2.998  10.603 -3.5756 -1.6146 -2.0374
13520TIP3   OH262050   2.994   1.640   2.915  0.3115  0.1468 -0.2575
13520TIP3    H162051   2.968   1.645   3.007 -0.1086  2.8533 -0.4976
13520TIP3    H262052   3.003   1.546   2.898  1.0596 -0.3503  2.7151
13521TIP3   OH262053   4.939   2.091   3.733 -0.4459  0.4421 -0.2971
13521TIP3    H162054   4.984   2.174   3.718  0.2174 -0.1007 -1.3229
13521TIP3    H262055   4.865   2.092   3.672 -0.3348  0.2001 -0.4352
13522TIP3   OH262056   1.430   1.728  13.838  0.1841  0.0839  0.1168
13522TIP3    H162057   1.482   1.808  13.844  2.6502 -1.4603 -0.2450
13522TIP3    H262058   1.413   1.717  13.744  0.7551 -0.3896  0.0683
13523TIP3   OH262059   1.087   6.348  15.248  0.3934 -0.0639  0.2456
13523TIP3    H162060   1.179   6.340  15.273  0.0657 -1.2501  1.1432
13523TIP3    H262061   1.043   6.277  15.296 -1.1490  1.1364  0.6460
13524TIP3   OH262062   3.166   4.183  16.499 -0.0469 -0.1419 -0.4475
13524TIP3    H162063   3.100   4.220  16.441 -0.5399  0.5701  0.5594
13524TIP3    H262064   3.117   4.155  16.576  0.9781  1.4579  0.8005
13525TIP3   OH262065   1.604   5.729   0.360  0.4625 -0.1107 -0.1107
13525TIP3    H162066   1.523   5.748   0.407 -0.1665 -1.3149 -0.6911
13525TIP3    H262067   1.583   5.653   0.306  1.7095  0.1545 -0.9791
13526TIP3   OH262068   6.660   0.424   1.034  0.4883  0.0920 -0.2754
13526TIP3    H162069   6.710   0.496   0.996 -0.5182  1.2870  0.6092
13526TIP3    H262070   6.575   0.427   0.989  0.7877 -1.2215 -0.9777
13527TIP3   OH262071   3.117   6.595   2.145 -0.0388  0.1047  0.0562
13527TIP3    H162072   3.107   6.663   2.078  2.2395 -1.7151 -2.2438
13527TIP3    H262073   3.168   6.637   2.214 -0.1954  1.2698 -0.5177
13528TIP3   OH262074   2.763   2.276   5.344 -0.6360 -0.3548  0.6518
13528TIP3    H162075   2.715   2.249   5.422 -1.1942 -1.5386 -0.0728
13528TIP3    H262076   2.694   2.297   5.280 -0.2438 -2.5609 -0.5683
13529TIP3   OH262077   6.512   0.988   2.706  0.2508 -0.3992  0.5298
13529TIP3    H162078   6.497   0.895   2.725 -1.2580 -0.3974 -0.6176
13529TIP3    H262079   6.606   0.993   2.686  0.3653 -1.6530  0.6942
13530TIP3   OH262080   0.511   2.936   4.074  0.2730  0.2150 -0.1230
13530TIP3    H162081   0.462   3.017   4.090 -3.1396 -1.9700  1.1182
13530TIP3    H262082   0.553   2.917   4.158  0.9548  0.6185 -0.3722
13531TIP3   OH262083   3.070   5.376   0.281 -0.6251 -1.0895  0.0422
13531TIP3    H162084   3.107   5.360   0.368 -0.3245  1.9641  0.5526
13531TIP3    H262085   2.976   5.360   0.290 -0.5775 -0.8639  0.9073
13532TIP3   OH262086   3.412   3.166   2.584 -0.6126  0.0566  0.5954
13532TIP3    H162087   3.461   3.248   2.593 -0.6664  0.1370  0.1534
13532TIP3    H262088   3.348   3.183   2.515 -0.8011 -0.2741  0.6855
13533TIP3   OH262089   4.143   0.130  10.674 -0.2501  0.2075 -0.0177
13533TIP3    H162090   4.230   0.093  10.667 -0.1671  0.7691 -2.2272
13533TIP3    H262091   4.155   0.208  10.728  0.3411 -0.5074  0.9037
13534TIP3   OH262092   3.508   4.136  14.361  0.6779  0.1049  0.2738
13534TIP3    H162093   3.469   4.223  14.372  0.8776 -0.0218  2.0222
13534TIP3    H262094   3.524   4.105  14.450 -0.9420 -2.4350 -0.2584
13535TIP3   OH262095   6.410   6.585  15.886 -0.7635 -0.1288  0.5823
13535TIP3    H162096   6.379   6.590  15.796  0.3724  0.2606  0.2062
13535TIP3    H262097   6.383   6.669  15.925  1.3141  0.9810 -0.2503
13536TIP3   OH262098   3.860   3.605  14.208 -0.1450 -0.3988 -0.1075
13536TIP3    H162099   3.800   3.672  14.177  0.9264 -0.1757 -1.8123
13536TIP3    H262100   3.846   3.531  14.148  2.1721  0.1375 -1.3730
13537TIP3   OH262101   6.725   0.890   1.559 -0.3634  0.2674  0.8846
13537TIP3    H162102   6.648   0.940   1.531 -1.3213 -1.1002  1.0102
13537TIP3    H262103   6.701   0.855   1.645 -0.3323 -1.6638  0.1385
13538TIP3   OH262104   0.321   6.360  16.080  0.0442 -0.2543  0.5822
13538TIP3    H162105   0.235   6.323  16.059 -0.4068 -0.3886  2.5810
13538TIP3    H262106   0.378   6.284  16.092  0.2686 -0.1799  0.0066
13539TIP3   OH262107   2.640   3.627   4.302  0.0465  0.0007  0.1470
13539TIP3    H162108   2.682   3.623   4.217  0.8823  1.8316  0.4613
13539TIP3    H262109   2.700   3.581   4.361  0.5369  0.6812  0.1765
13540TIP3   OH262110   3.140   4.351   5.179 -0.6385  0.6288  0.4485
13540TIP3    H162111   3.073   4.419   5.178 -1.8159 -0.4807  2.0968
13540TIP3    H262112   3.196   4.373   5.253 -0.8169  0.0162  0.7704
13541TIP3   OH262113   2.635   2.932   3.586 -0.3548  0.3904 -0.4623
13541TIP3    H162114   2.668   2.860   3.640  0.7431  0.5659 -0.9034
13541TIP3    H262115   2.599   2.888   3.508  0.8335  0.3577 -0.9950
13542TIP3   OH262116   4.439   2.726  16.687 -0.3132  0.1187  0.3990
13542TIP3    H162117   4.456   2.785  16.760  1.9376  0.0028  0.0084
13542TIP3    H262118   4.350   2.692  16.703  0.1331  0.0927  3.0589
13543TIP3   OH262119   4.876   3.651  16.543  0.2297 -0.6392  0.6525
13543TIP3    H162120   4.942   3.609  16.599 -1.2275 -2.9265  0.7150
13543TIP3    H262121   4.873   3.596  16.465 -0.5659  0.2885  0.0294
13544TIP3   OH262122   2.722   5.264  12.197 -0.4924 -0.5084  0.2889
13544TIP3    H162123   2.794   5.306  12.244 -0.3620 -1.0634  0.5853
13544TIP3    H262124   2.744   5.276  12.105 -0.2471 -0.2841  0.3742
13545TIP3   OH262125   0.625   4.579   4.569  0.2512  0.3939  0.4971
13545TIP3    H162126   0.621   4.656   4.627 -1.4604 -0.2780  1.3227
13545TIP3    H262127   0.672   4.513   4.620  0.0868  0.2912  0.5144
13546TIP3   OH262128   5.075   5.055   2.047  0.4869 -0.0855 -0.0482
13546TIP3    H162129   5.105   5.105   1.971 -0.0623 -1.0187 -0.8993
13546TIP3    H262130   5.150   5.053   2.107  0.6464  1.3676 -0.1989
13547TIP3   OH262131   6.781   5.294   5.474  0.5225  0.2282  0.0913
13547TIP3    H162132   6.802   5.225   5.410 -2.2817 -0.2496 -0.3633
13547TIP3    H262133   6.782   5.250   5.558 -0.8371 -0.2974 -0.1559
13548TIP3   OH262134   5.447   6.207  16.859  0.5133  0.0671  0.3242
13548TIP3    H162135   5.488   6.293  16.850 -1.2426  1.0141  1.1148
13548TIP3    H262136   5.466   6.180  16.949 -1.4455  0.9877  1.0377
13549TIP3   OH262137   0.216   2.570   1.171 -0.4178  0.4636 -0.8760
13549TIP3    H162138   0.302   2.612   1.169  0.1469 -0.6734 -1.1538
13549TIP3    H262139   0.217   2.510   1.096 -1.5824  0.6873 -1.0801
13550TIP3   OH262140   0.616   5.511  15.353  0.7529  0.3539 -0.2705
13550TIP3    H162141   0.631   5.430  15.403 -0.2518  0.0207 -0.4896
13550TIP3    H262142   0.618   5.483  15.261  0.2194  0.5370 -0.3402
13551TIP3   OH262143   5.284   3.538  16.167  0.3360 -0.1182  0.2278
13551TIP3    H162144   5.358   3.504  16.116  1.3478  1.0902  0.8891
13551TIP3    H262145   5.219   3.468  16.162  1.0898 -0.7533 -1.2634
13552TIP3   OH262146   6.301   4.968   4.607  0.2512  0.5626 -0.0284
13552TIP3    H162147   6.368   4.986   4.541  0.0243 -0.6325 -0.5960
13552TIP3    H262148   6.232   4.922   4.559 -0.8790  1.5844  0.6034
13553TIP3   OH262149   1.393   5.918  11.903  0.6078  0.1396  0.0959
13553TIP3    H162150   1.367   5.935  11.812  0.4798 -1.6085 -0.1999
13553TIP3    H262151   1.486   5.941  11.907  0.6337  0.1318 -0.5003
13554TIP3   OH262152   3.186   3.871  14.746  0.0884 -0.4940  0.0361
13554TIP3    H162153   3.148   3.933  14.685  0.5822 -0.4178 -0.1960
13554TIP3    H262154   3.274   3.904  14.763 -0.0045 -0.5746  0.6998
13555TIP3   OH262155   4.146   1.817  14.097 -0.2601 -0.2730 -0.1252
13555TIP3    H162156   4.083   1.747  14.081  1.2073 -1.9962  1.4084
13555TIP3    H262157   4.124   1.848  14.185  0.3410 -0.1254 -0.0294
13556TIP3   OH262158   4.849   6.257   0.143  0.1627  0.0459 -0.5286
13556TIP3    H162159   4.866   6.169   0.109  0.3037 -0.2027  0.1748
13556TIP3    H262160   4.931   6.304   0.129  0.8812 -0.6425  1.2693
13557TIP3   OH262161   4.365   5.557   5.196 -0.0483  0.2319  0.2012
13557TIP3    H162162   4.358   5.472   5.152 -2.1564  0.6416 -0.3651
13557TIP3    H262163   4.372   5.536   5.289 -1.3870 -0.5638  0.1382
13558TIP3   OH262164   0.091   1.552  14.727 -0.4054 -0.1004 -0.0451
13558TIP3    H162165   0.063   1.603  14.651 -1.0920 -0.3840  0.0131
13558TIP3    H262166   0.058   1.600  14.802  0.5980  0.3787  0.0946
13559TIP3   OH262167   3.147   1.944   4.603  0.3171  0.2442 -0.2222
13559TIP3    H162168   3.060   1.927   4.639  0.5441  0.7718  0.5982
13559TIP3    H262169   3.174   1.862   4.563 -0.7527  0.2124 -0.8861
13560TIP3   OH262170   1.823   2.101  12.257 -0.1607  0.3147  0.1882
13560TIP3    H162171   1.815   2.079  12.349 -3.6140 -2.1550 -0.6139
13560TIP3    H262172   1.804   2.194  12.252 -2.9928 -0.1306  1.6631
13561TIP3   OH262173   2.452   5.069   2.908  0.0923 -0.1404  0.3619
13561TIP3    H162174   2.390   5.134   2.874  1.8377  1.5148  0.2883
13561TIP3    H262175   2.439   5.071   3.003 -2.2391 -2.1761  0.1447
13562TIP3   OH262176   3.182   3.245   2.793  0.3333  0.1971 -0.1378
13562TIP3    H162177   3.248   3.189   2.834  0.3981  0.1915 -0.2505
13562TIP3    H262178   3.229   3.291   2.724  0.1524 -0.0253 -0.4102
13563TIP3   OH262179   2.710   4.207  17.266 -0.0004  0.4448 -0.4596
13563TIP3    H162180   2.752   4.163  17.191 -0.2411 -0.0605 -0.3045
13563TIP3    H262181   2.632   4.246  17.229 -0.9533 -1.1438 -0.1781
13564TIP3   OH262182   3.618   0.637  13.081 -0.3237 -0.2914  0.0043
13564TIP3    H162183   3.619   0.550  13.041  1.0662 -0.9261  1.3755
13564TIP3    H262184   3.560   0.628  13.157  2.8660 -1.1294  2.4473
13565TIP3   OH262185   1.720   2.502  14.383  0.2967 -0.8412  0.1872
13565TIP3    H162186   1.660   2.481  14.312 -1.1629  0.1814  1.0889
13565TIP3    H262187   1.757   2.417  14.408 -1.2373 -1.5956  0.0143
13566TIP3   OH262188   6.084   5.455   2.529 -0.3220 -0.5516  0.2022
13566TIP3    H162189   6.022   5.468   2.457 -0.0127 -0.3945 -0.0381
13566TIP3    H262190   6.161   5.506   2.504 -1.5538  2.4740  2.3300
13567TIP3   OH262191   0.030   3.106  15.240  0.1724  0.2530  0.1794
13567TIP3    H162192   0.108   3.078  15.191  1.4188  0.7962  1.7956
13567TIP3    H262193  -0.030   3.032  15.235  1.4199 -0.7654  0.1964
13568TIP3   OH262194   3.052   1.925   2.375  0.3687 -0.3516  0.3864
13568TIP3    H162195   3.111   1.909   2.448  0.5882  1.8356  0.7193
13568TIP3    H262196   3.011   2.009   2.395 -0.5120 -0.3324 -1.3854
13569TIP3   OH262197   0.699   2.852  15.829  0.4763 -0.4247 -0.8071
13569TIP3    H162198   0.694   2.771  15.879  1.8864 -0.9553 -1.4843
13569TIP3    H262199   0.664   2.920  15.887  1.2903 -1.1678  0.5595
13570TIP3   OH262200   0.348   5.060   1.906 -0.3941 -0.6402 -0.4963
13570TIP3    H162201   0.318   4.971   1.891  0.8016 -1.4122  1.5380
13570TIP3    H262202   0.290   5.114   1.851 -2.6198 -2.4444 -0.0091
13571TIP3   OH262203   0.356   1.042  13.540  0.2943 -0.2243 -0.3123
13571TIP3    H162204   0.285   1.019  13.601  1.3573 -0.7374  0.7557
13571TIP3    H262205   0.432   0.995  13.574  1.1227  0.2309 -1.5194
13572TIP3   OH262206   4.131   2.515  12.682  0.2746 -0.1653 -0.2433
13572TIP3    H162207   4.143   2.458  12.758  1.6822 -0.0561 -0.3632
13572TIP3    H262208   4.220   2.544  12.660 -0.5896  4.3435  1.5544
13573TIP3   OH262209   0.224   2.606  16.112 -0.5824  0.1077 -0.5870
13573TIP3    H162210   0.234   2.566  16.198  2.3481 -0.2504 -1.0645
13573TIP3    H262211   0.218   2.700  16.129  0.0395  0.0419 -0.0186
13574TIP3   OH262212   1.822   3.076   3.644 -0.2269  0.2608 -0.5078
13574TIP3    H162213   1.833   3.157   3.694 -3.1241  0.6344 -0.4252
13574TIP3    H262214   1.764   3.022   3.698  0.1054 -1.0976 -1.4797
13575TIP3   OH262215   5.495   0.696  16.004  0.0661  0.1361  0.3013
13575TIP3    H162216   5.403   0.724  16.007 -0.3621 -1.3518  1.3432
13575TIP3    H262217   5.491   0.600  16.004  1.5920  0.0571 -0.7683
13576TIP3   OH262218   6.050   3.253   2.436 -0.8015 -0.4686  0.2597
13576TIP3    H162219   5.999   3.201   2.499 -0.5741 -1.2076 -0.1541
13576TIP3    H262220   6.023   3.343   2.452  0.3073 -0.4690  2.4170
13577TIP3   OH262221   3.687   2.089  11.703 -0.0109 -0.5122  0.3946
13577TIP3    H162222   3.763   2.058  11.653 -0.8021  0.6294 -1.5382
13577TIP3    H262223   3.642   2.149  11.644 -2.2208 -0.8873  1.6624
13578TIP3   OH262224   0.887   0.931   5.856 -0.7519  0.0765 -0.1550
13578TIP3    H162225   0.881   1.021   5.888 -0.7766 -0.1453  0.4757
13578TIP3    H262226   0.796   0.907   5.838 -0.5320  1.0141 -2.7064
13579TIP3   OH262227   4.962   3.409  16.701 -1.5207 -0.2391  0.6107
13579TIP3    H162228   5.032   3.444  16.755 -0.6881 -0.1648 -0.5053
13579TIP3    H262229   4.979   3.315  16.697 -0.7644 -0.0580 -0.6760
13580TIP3   OH262230   1.739   6.094  14.244 -0.5252 -0.4490  0.2168
13580TIP3    H162231   1.750   6.134  14.331  0.3930  2.0034 -0.9663
13580TIP3    H262232   1.645   6.085  14.234 -0.5860 -2.3559  2.1383
13581TIP3   OH262233   4.146   2.689   3.541  0.1737 -0.2096  0.0718
13581TIP3    H162234   4.117   2.604   3.573 -1.2118  1.3097  3.0030
13581TIP3    H262235   4.066   2.739   3.528  1.0732  1.4484  0.6925
13582TIP3   OH262236   6.721   4.837   5.216  0.4227 -0.0497 -0.0057
13582TIP3    H162237   6.773   4.913   5.238 -0.0583 -0.0112  1.0333
13582TIP3    H262238   6.706   4.844   5.122  0.2521  1.2119  0.1124
13583TIP3   OH262239   5.401   4.113  16.589  0.3361  0.5602 -0.2696
13583TIP3    H162240   5.416   4.202  16.556  1.4373  1.0132  1.3975
13583TIP3    H262241   5.442   4.056  16.524 -1.9122  1.1283 -2.2876
13584TIP3   OH262242   5.172   1.954   1.945  0.1282 -0.4953  0.1972
13584TIP3    H162243   5.156   1.926   2.036 -1.5613 -2.1095 -0.5699
13584TIP3    H262244   5.128   1.888   1.892 -0.8488  1.7027 -1.7825
13585TIP3   OH262245   4.304   3.018  14.720  0.0773 -0.5819 -0.0561
13585TIP3    H162246   4.321   3.101  14.765 -0.6211 -0.0415 -0.7811
13585TIP3    H262247   4.325   3.036  14.628 -1.7950 -0.6919 -0.5161
13586TIP3   OH262248   2.214   1.878   3.685 -0.4258 -1.0045 -0.4144
13586TIP3    H162249   2.244   1.792   3.653  1.8399  0.3058 -2.0221
13586TIP3    H262250   2.289   1.912   3.734 -0.8971  0.4792 -0.7002
13587TIP3   OH262251   2.151   4.758  14.573  0.3144 -0.1554 -0.5000
13587TIP3    H162252   2.078   4.697  14.568  0.5992 -0.6332  0.9501
13587TIP3    H262253   2.122   4.834  14.522 -2.2587  0.7110  2.0910
13588TIP3   OH262254   3.581   1.496  13.370  0.1374  0.1344  0.2810
13588TIP3    H162255   3.510   1.435  13.392  1.1894 -0.5795  1.8078
13588TIP3    H262256   3.648   1.442  13.331  0.1500  0.6923 -0.4698
13589TIP3   OH262257   5.522   3.945  11.875 -0.0051  0.4224 -0.0478
13589TIP3    H162258   5.571   4.012  11.827  1.4422 -1.0618 -0.7273
13589TIP3    H262259   5.548   3.957  11.966 -0.5108  1.4067 -0.0338
13590TIP3   OH262260   2.065   4.299  13.581 -0.8501  0.3819  0.3044
13590TIP3    H162261   2.135   4.317  13.644 -1.7039  0.9660  1.1229
13590TIP3    H262262   2.106   4.305  13.495  0.4699 -0.9964  0.8204
13591TIP3   OH262263   5.101   5.385   5.156 -0.0565 -0.4794  0.0455
13591TIP3    H162264   5.075   5.457   5.099  2.0032 -1.6808 -2.5289
13591TIP3    H262265   5.040   5.314   5.135  0.1171 -0.6236  0.0285
13592TIP3   OH262266   0.415   4.356   2.600  1.0365  0.2002  0.4964
13592TIP3    H162267   0.432   4.264   2.580  3.1451  0.7206 -0.2098
13592TIP3    H262268   0.483   4.404   2.553 -0.9549  2.2372 -0.3822
13593TIP3   OH262269   3.204   2.272   0.767 -0.0285  0.0847 -0.1829
13593TIP3    H162270   3.135   2.338   0.758 -0.7862 -0.6651  0.0989
13593TIP3    H262271   3.250   2.297   0.847  1.8148  2.2146 -1.8451
13594TIP3   OH262272   2.741   4.963  12.733  0.6467  0.7867 -0.2700
13594TIP3    H162273   2.822   4.916  12.751 -1.1151 -1.4811  1.9525
13594TIP3    H262274   2.714   4.998  12.818 -0.7402  1.4880 -0.9821
13595TIP3   OH262275   6.278   1.378   0.094 -0.1444  0.5886  0.2296
13595TIP3    H162276   6.334   1.418   0.161  0.9057  0.3549 -0.4889
13595TIP3    H262277   6.284   1.284   0.112 -1.3362  0.6451  0.9395
13596TIP3   OH262278   2.990   2.649  11.944  0.0832  0.3724 -0.0975
13596TIP3    H162279   2.918   2.621  11.888 -0.3788 -0.2834  0.8415
13596TIP3    H262280   3.054   2.686  11.882  0.0484 -1.3362 -1.1798
13597TIP3   OH262281   4.108   1.458   2.781  0.1332 -0.7104  0.0466
13597TIP3    H162282   4.089   1.547   2.809 -1.0883 -0.7083 -0.7450
13597TIP3    H262283   4.161   1.422   2.852  0.7392  0.6749  0.3116
13598TIP3   OH262284   2.784   6.016  14.323 -0.1088  0.1470  0.0393
13598TIP3    H162285   2.860   6.061  14.361  0.4424  0.0451 -0.9323
13598TIP3    H262286   2.727   6.086  14.293 -1.0544  0.2477  2.0178
13599TIP3   OH262287   6.689   5.193   2.490  0.4011  0.0142 -0.3443
13599TIP3    H162288   6.762   5.156   2.441  0.6399 -0.8788  0.6790
13599TIP3    H262289   6.686   5.285   2.461  1.8317  0.0295 -0.5151
13600TIP3   OH262290   5.865   2.592   3.038 -0.0934  0.0336  0.9298
13600TIP3    H162291   5.868   2.502   3.069  0.0134 -0.8746 -1.6401
13600TIP3    H262292   5.787   2.629   3.079 -0.0240 -1.1421  2.1562
13601TIP3   OH262293   0.251   3.120  11.839 -0.1942  0.2722  0.5629
13601TIP3    H162294   0.335   3.158  11.814 -1.0275  1.0073 -1.1957
13601TIP3    H262295   0.265   3.025  11.833  1.0674  0.3362  2.2086
13602TIP3   OH262296   4.665   2.326  16.801 -0.2447 -0.0130 -0.6704
13602TIP3    H162297   4.579   2.313  16.763 -0.9459  0.1393  0.8148
13602TIP3    H262298   4.648   2.372  16.884  1.2153 -0.3322 -0.1774
13603TIP3   OH262299   3.049   0.462  12.707 -0.5973 -0.3308  0.1472
13603TIP3    H162300   3.123   0.407  12.731 -0.0955  0.4864  0.4878
13603TIP3    H262301   3.004   0.412  12.639 -0.3507 -1.3189  0.6881
13604TIP3   OH262302   0.449   3.705   2.577  0.1727  0.0587 -0.3638
13604TIP3    H162303   0.411   3.658   2.503  0.8888  0.8480 -1.2564
13604TIP3    H262304   0.544   3.692   2.568  0.2435 -0.1931  0.6570
13605TIP3   OH262305   6.096   4.366  14.189 -0.0532  0.1881 -0.0749
13605TIP3    H162306   6.172   4.325  14.230  0.0096  0.9356  0.5727
13605TIP3    H262307   6.077   4.442  14.244 -1.0315  0.2303 -0.4547
13606TIP3   OH262308   6.394   2.219  10.506 -1.0049 -0.0040 -0.2202
13606TIP3    H162309   6.346   2.208  10.424 -0.3622  0.0840 -0.6128
13606TIP3    H262310   6.399   2.314  10.517  1.3941  0.0612 -1.5702
13607TIP3   OH262311   5.876   6.150  14.424 -0.3301 -0.5021  0.0505
13607TIP3    H162312   5.792   6.135  14.467 -1.1473  1.0232 -0.9664
13607TIP3    H262313   5.855   6.203  14.348  1.6013  0.2104 -0.0268
13608TIP3   OH262314   1.435   1.698  10.749 -0.5074  0.3600  0.0081
13608TIP3    H162315   1.382   1.766  10.792 -1.4810 -1.4846  1.8187
13608TIP3    H262316   1.390   1.682  10.666  0.2039  2.4809 -0.8274
13609TIP3   OH262317   4.884   2.392  12.104 -0.0577 -0.7448 -0.6222
13609TIP3    H162318   4.945   2.328  12.141  2.0522  0.4676 -1.9013
13609TIP3    H262319   4.887   2.466  12.165 -0.9008 -1.0378 -0.2302
13610TIP3   OH262320   1.449   3.041  10.699 -0.0731  0.4830 -0.6910
13610TIP3    H162321   1.513   3.094  10.747 -0.1717 -0.5994  0.6846
13610TIP3    H262322   1.439   3.086  10.615  1.5639  1.3493 -0.4566
13611TIP3   OH262323   2.137   3.264  16.002 -0.0045  0.9263 -0.3186
13611TIP3    H162324   2.087   3.337  16.038  0.2511  1.2821 -0.6923
13611TIP3    H262325   2.228   3.285  16.019  0.0683  0.6719 -0.3838
13612TIP3   OH262326   2.812   4.809   0.722 -0.0276  0.3807  0.5258
13612TIP3    H162327   2.796   4.885   0.777 -0.1649 -0.4978  1.7033
13612TIP3    H262328   2.905   4.813   0.701  0.1906  0.2638  1.4906
13613TIP3   OH262329   2.182   4.320  13.969  0.2596  0.3763 -0.0898
13613TIP3    H162330   2.233   4.257  14.021  1.0134  0.3028 -0.9020
13613TIP3    H262331   2.212   4.306  13.880 -0.0297  1.4711 -0.3586
13614TIP3   OH262332   2.017   1.821  11.994 -0.3050 -0.5021 -0.6137
13614TIP3    H162333   1.969   1.808  12.076  0.6176 -2.4265 -0.3594
13614TIP3    H262334   1.949   1.843  11.930 -0.8881  2.5565  0.9360
13615TIP3   OH262335   0.864   1.408  15.075  0.6138 -0.0777 -0.3330
13615TIP3    H162336   0.832   1.369  14.993  1.4860 -1.7163  0.0933
13615TIP3    H262337   0.784   1.426  15.125  0.0676  0.9948 -1.5456
13616TIP3   OH262338   4.601   1.125   0.562 -0.0748  0.0534 -0.5135
13616TIP3    H162339   4.659   1.201   0.567  2.0486 -1.4271 -1.7611
13616TIP3    H262340   4.628   1.069   0.634 -0.9777  0.0322 -0.1888
13617TIP3   OH262341   3.990   5.935   5.900  0.0721 -0.4117 -0.2722
13617TIP3    H162342   4.004   5.933   5.805 -0.0777 -0.1317 -0.3007
13617TIP3    H262343   4.005   6.026   5.924 -1.6424 -0.1271 -0.2866
13618TIP3   OH262344   2.540   1.256   0.302  0.4766  0.2326 -0.4914
13618TIP3    H162345   2.521   1.298   0.219  2.3598  1.2745 -0.4307
13618TIP3    H262346   2.467   1.280   0.359 -0.7597 -0.4044 -1.8029
13619TIP3   OH262347   1.460   4.733  17.098 -0.9390  0.4103 -0.4275
13619TIP3    H162348   1.449   4.676  17.022 -1.6039 -0.0523  0.0085
13619TIP3    H262349   1.525   4.689  17.153 -0.1380  0.9585 -0.9212
13620TIP3   OH262350   6.241   1.449  13.063  0.2800 -0.1774  0.0994
13620TIP3    H162351   6.171   1.401  13.107  0.4420 -0.6380 -0.1421
13620TIP3    H262352   6.216   1.448  12.970  1.3805 -1.6822 -0.1945
13621TIP3   OH262353   6.657   4.277  15.779  0.2764  0.4912  0.0693
13621TIP3    H162354   6.679   4.218  15.707  1.5208  0.7883  0.2000
13621TIP3    H262355   6.593   4.228  15.831  0.6042 -0.3661 -0.3283
13622TIP3   OH262356   1.985   5.081   6.030  0.4600 -0.1373  0.6232
13622TIP3    H162357   1.923   5.074   5.957 -1.1928 -0.4613  2.0432
13622TIP3    H262358   1.932   5.071   6.108  1.8284  2.8224  2.0084
13623TIP3   OH262359   5.980   2.698   2.562 -0.4175 -0.1724  0.5322
13623TIP3    H162360   5.912   2.634   2.585 -0.4032 -0.9797 -1.5638
13623TIP3    H262361   5.934   2.782   2.558 -1.4411 -0.8026 -1.4702
13624TIP3   OH262362   6.729   5.533  12.980 -0.2815 -0.0232 -0.1746
13624TIP3    H162363   6.792   5.464  12.959  0.0061  0.4383 -0.8104
13624TIP3    H262364   6.705   5.515  13.071 -2.8295 -3.0406 -1.3297
13625TIP3   OH262365   2.936   2.955   3.721  1.0701 -0.3280 -0.5978
13625TIP3    H162366   2.874   2.991   3.783  1.0765  0.3952 -1.0100
13625TIP3    H262367   2.893   2.876   3.687 -0.1090  0.7529 -1.6969
13626TIP3   OH262368   1.930   0.488  16.014  0.2020 -0.2548 -0.1721
13626TIP3    H162369   1.916   0.407  15.964  1.7378 -0.7463  0.1463
13626TIP3    H262370   2.012   0.472  16.061 -0.3373  0.8821  1.1503
13627TIP3   OH262371   6.636   1.226   6.532 -0.2048 -0.5412 -0.4697
13627TIP3    H162372   6.596   1.308   6.562 -2.5908 -1.5025 -0.8936
13627TIP3    H262373   6.693   1.199   6.604 -0.9133  0.4780  0.4903
13628TIP3   OH262374   6.570   5.124   0.535  0.1074  0.7696  0.0729
13628TIP3    H162375   6.511   5.169   0.595  0.8160  2.1077 -0.2070
13628TIP3    H262376   6.646   5.182   0.528  1.2022 -0.6343 -0.0362
13629TIP3   OH262377   5.058   2.133   0.777  0.9851 -0.1785 -0.3579
13629TIP3    H162378   5.154   2.138   0.782  0.8028  4.4521  0.2773
13629TIP3    H262379   5.031   2.118   0.867  1.0655 -0.9553 -0.4580
13630TIP3   OH262380   6.300   1.519   2.549  0.5364  0.4231  0.2050
13630TIP3    H162381   6.314   1.595   2.493  0.0510  1.4226  1.4230
13630TIP3    H262382   6.375   1.462   2.532  1.6149  1.8053  0.3317
13631TIP3   OH262383   5.027   0.375   1.136  0.7470 -0.5058  0.4325
13631TIP3    H162384   5.005   0.435   1.065  2.2281 -0.2935  0.1244
13631TIP3    H262385   4.950   0.319   1.146 -0.1915  0.6960 -0.0660
13632TIP3   OH262386   1.647   3.798   2.981 -0.3027 -0.2722 -0.1630
13632TIP3    H162387   1.616   3.711   3.008 -1.4275 -0.2765 -1.4302
13632TIP3    H262388   1.697   3.830   3.056 -0.0236 -1.9508  0.3746
13633TIP3   OH262389   6.004   5.985  13.733 -0.4316 -0.1961 -0.3242
13633TIP3    H162390   5.922   5.964  13.777 -0.8833  0.1298 -0.9989
13633TIP3    H262391   6.046   6.049  13.790 -2.0200  1.8732 -1.4178
13634TIP3   OH262392   3.910   5.215   3.718  0.1630  0.0721 -0.3211
13634TIP3    H162393   3.887   5.123   3.734 -0.0458  0.1833  0.0271
13634TIP3    H262394   3.846   5.265   3.770  0.1066  0.4205 -0.7190
13635TIP3   OH262395   0.093   2.864   1.558 -0.1884  0.0459  0.6584
13635TIP3    H162396  -0.002   2.859   1.551 -0.1159 -0.4925  0.0295
13635TIP3    H262397   0.117   2.945   1.514 -0.2165 -0.5988 -0.5453
13636TIP3   OH262398   3.732   3.284  14.372 -0.2026  0.3672  0.0931
13636TIP3    H162399   3.726   3.229  14.294 -0.2998 -0.2594  0.5392
13636TIP3    H262400   3.670   3.355  14.356  1.5763  1.6222 -1.5013
13637TIP3   OH262401   2.807   1.581  13.629 -0.5011  0.1147  0.1553
13637TIP3    H162402   2.812   1.677  13.625 -0.5484  0.2968  2.9663
13637TIP3    H262403   2.729   1.559  13.578  1.5609  1.2374 -3.6116
13638TIP3   OH262404   0.913   3.477   0.105  0.6729  0.2532  0.0100
13638TIP3    H162405   0.888   3.455   0.195  0.0457 -0.6869 -0.3833
13638TIP3    H262406   0.902   3.571   0.099 -0.2137  0.1934  0.6314
13639TIP3   OH262407   3.155   6.530   0.017 -0.2337 -0.3880 -0.3215
13639TIP3    H162408   3.144   6.609   0.071  2.3105  0.2058 -0.6288
13639TIP3    H262409   3.233   6.547  -0.035 -1.0974 -2.0952 -2.2350
13640TIP3   OH262410   6.514   1.337   1.624  0.0857  0.1498  0.1120
13640TIP3    H162411   6.543   1.355   1.713  0.5847 -0.1330  0.0108
13640TIP3    H262412   6.429   1.379   1.617  0.0452  0.1700  0.7245
13641TIP3   OH262413   5.173   1.748  17.207  0.0273  0.3667 -0.4297
13641TIP3    H162414   5.119   1.670  17.193  1.2869 -1.1302  2.8047
13641TIP3    H262415   5.263   1.718  17.194  0.3723  2.0406 -2.2239
13642TIP3   OH262416   0.597   5.885   3.161 -0.1382  0.3254  0.5566
13642TIP3    H162417   0.573   5.838   3.241  2.8360 -2.1910  0.1003
13642TIP3    H262418   0.671   5.940   3.186  1.0222 -0.7151 -0.4386
13643TIP3   OH262419   2.548   5.936   2.988 -0.4591 -0.1634 -0.6204
13643TIP3    H162420   2.622   5.880   2.967 -0.4959  0.2853 -1.9777
13643TIP3    H262421   2.481   5.913   2.924 -1.1196  0.1833 -0.0656
13644TIP3   OH262422   0.028   1.824   5.200  0.0194 -0.1616  0.4562
13644TIP3    H162423  -0.034   1.830   5.273  0.2443  2.1175  0.5031
13644TIP3    H262424  -0.026   1.837   5.122  0.4259  1.9954  0.5068
13645TIP3   OH262425   6.659   1.591   2.502  0.2358  0.1791 -0.1755
13645TIP3    H162426   6.723   1.638   2.555  0.2190  0.8622 -0.7518
13645TIP3    H262427   6.660   1.636   2.418  0.6840 -1.2539 -0.9541
13646TIP3   OH262428   1.466   2.648  15.645 -0.2634 -0.4509  0.3983
13646TIP3    H162429   1.440   2.622  15.557  0.1411 -0.3261  0.2412
13646TIP3    H262430   1.436   2.576  15.701  0.9783 -1.3293 -0.0518
13647TIP3   OH262431   0.915   6.687  14.214  0.3213  0.7214 -0.2059
13647TIP3    H162432   0.948   6.751  14.151  2.1259 -2.3920 -2.5030
13647TIP3    H262433   0.974   6.696  14.289 -0.1337  2.4839 -0.0154
13648TIP3   OH262434   5.979   5.951  17.249  0.1334  0.0552  0.1041
13648TIP3    H162435   5.980   5.861  17.282 -2.0243 -0.1476 -0.3214
13648TIP3    H262436   5.921   5.949  17.173 -2.4133  2.3919  1.8923
13649TIP3   OH262437   3.980   0.853   1.178  0.5330  0.6825  0.4712
13649TIP3    H162438   4.025   0.882   1.258  1.3908 -0.5679  0.4598
13649TIP3    H262439   3.960   0.761   1.194 -0.0926  0.6649 -0.3951
13650TIP3   OH262440   4.180   1.043   2.364  0.0717 -0.0036  0.1554
13650TIP3    H162441   4.177   1.135   2.341 -1.2575 -0.0240  0.1866
13650TIP3    H262442   4.175   0.997   2.281 -0.2913 -0.0512  0.2021
13651TIP3   OH262443   5.371   5.643   5.649  0.2328 -0.1453  0.6974
13651TIP3    H162444   5.420   5.567   5.618  0.5444 -0.9448  3.1000
13651TIP3    H262445   5.436   5.696   5.696 -0.2904  0.9130  0.2429
13652TIP3   OH262446   1.250   6.069  11.043  0.0544 -0.0395 -0.3681
13652TIP3    H162447   1.318   6.034  11.101 -1.2319 -0.4353  0.9233
13652TIP3    H262448   1.169   6.030  11.074 -0.9247  1.2897 -1.1809
13653TIP3   OH262449   1.257   3.882   1.798  0.6219  0.1983 -0.7370
13653TIP3    H162450   1.276   3.939   1.872  0.8163 -0.1815 -0.4904
13653TIP3    H262451   1.322   3.812   1.804  1.2212  0.6467 -1.8022
13654TIP3   OH262452   6.556   3.001  11.993 -0.2922  0.0384  0.3672
13654TIP3    H162453   6.560   2.921  12.044 -0.1635  1.8777  3.3777
13654TIP3    H262454   6.648   3.024  11.978 -0.3096  0.6105  1.1326
13655TIP3   OH262455   4.537   5.929   4.308 -0.6770  0.3468  0.1177
13655TIP3    H162456   4.450   5.909   4.344 -1.3890  1.2316 -1.0737
13655TIP3    H262457   4.527   5.918   4.213  0.6476 -0.0248  0.0166
13656TIP3   OH262458   3.305   0.449   3.540  0.2223 -0.3378 -0.5985
13656TIP3    H162459   3.267   0.424   3.624 -0.3783  0.0786 -0.7442
13656TIP3    H262460   3.242   0.511   3.503  0.9652  0.2369 -0.9107
13657TIP3   OH262461   3.518   1.515   4.061  0.2806  0.2058  0.2229
13657TIP3    H162462   3.505   1.472   3.977 -1.2125  0.0730  0.5117
13657TIP3    H262463   3.457   1.471   4.121  2.6897 -1.0116  1.8590
13658TIP3   OH262464   4.609   5.025  14.812  0.6275  0.0672 -0.2540
13658TIP3    H162465   4.514   5.012  14.803  0.4277  0.5396  1.0513
13658TIP3    H262466   4.634   4.965  14.883  1.4992 -0.8555 -1.3327
13659TIP3   OH262467   1.668   5.757  16.120 -0.0026  0.0593  0.9781
13659TIP3    H162468   1.702   5.777  16.032 -0.3471  1.4649  1.1592
13659TIP3    H262469   1.727   5.804  16.179 -0.7336  0.4169  1.4186
13660TIP3   OH262470   2.698   5.930   4.502 -0.3384  0.0812 -0.2983
13660TIP3    H162471   2.623   5.986   4.480 -1.0897 -0.5436  0.5922
13660TIP3    H262472   2.770   5.991   4.516 -0.0640  0.5607 -3.4724
13661TIP3   OH262473   3.925   4.778   3.440  0.4176 -1.1461  0.2821
13661TIP3    H162474   3.935   4.873   3.429 -0.6126 -1.1960 -1.1841
13661TIP3    H262475   3.972   4.740   3.366  0.3644 -1.7628  0.5627
13662TIP3   OH262476   1.299   4.525   4.875  0.1330  0.2008  0.2011
13662TIP3    H162477   1.384   4.524   4.919  0.2047  0.1146  0.0623
13662TIP3    H262478   1.240   4.566   4.938  0.1525 -0.2574  0.5272
13663TIP3   OH262479   4.879   0.642   2.092  0.4737  0.4226 -0.2402
13663TIP3    H162480   4.863   0.551   2.067 -0.8909  0.7530 -0.6371
13663TIP3    H262481   4.795   0.686   2.076  1.0155  1.6711  0.2873
13664TIP3   OH262482   2.954   5.195   3.940 -0.2339  0.2100  0.1721
13664TIP3    H162483   2.994   5.199   3.853 -0.0750 -0.7674  0.1936
13664TIP3    H262484   2.860   5.204   3.924 -0.0643  1.8744  0.0663
13665TIP3   OH262485   4.000   3.338  12.028 -0.5263  0.6722 -0.1514
13665TIP3    H162486   4.026   3.392  11.953  1.6714 -0.2675 -0.0739
13665TIP3    H262487   3.908   3.315  12.009 -0.9256  2.8930 -1.0777
13666TIP3   OH262488   2.618   6.007  17.069  1.2082 -0.2237  0.4213
13666TIP3    H162489   2.590   6.091  17.031  1.1335 -1.2103 -1.8310
13666TIP3    H262490   2.584   5.942  17.007 -0.5207 -2.0651  3.2046
13667TIP3   OH262491   0.237   4.496  12.661 -0.4567 -0.6315 -0.0754
13667TIP3    H162492   0.152   4.451  12.657 -0.3248 -0.7986 -1.2392
13667TIP3    H262493   0.282   4.468  12.581  0.6883 -0.5285  0.5292
13668TIP3   OH262494   5.689   6.114  12.074 -0.1216 -0.2497 -0.4067
13668TIP3    H162495   5.604   6.096  12.033 -1.2215  0.3929  1.5281
13668TIP3    H262496   5.712   6.031  12.116  0.1975 -0.4068 -0.8843
13669TIP3   OH262497   2.425   6.446  15.175 -1.2967  0.1786 -0.2958
13669TIP3    H162498   2.486   6.464  15.247 -2.5073  1.9343  0.3082
13669TIP3    H262499   2.434   6.352  15.159 -0.6358 -0.1250  1.7873
13670TIP3   OH262500   2.437   3.124  11.541  0.0700  0.2973  0.2902
13670TIP3    H162501   2.444   3.072  11.621  0.5179 -0.4349 -0.2251
13670TIP3    H262502   2.500   3.195  11.554  0.0300  0.2731  0.6442
13671TIP3   OH262503   0.142   4.547   2.414 -0.3257 -0.4414 -0.2472
13671TIP3    H162504   0.157   4.480   2.347 -1.5467 -1.0468  0.0858
13671TIP3    H262505   0.122   4.498   2.493  0.2588  0.2950  0.3717
13672TIP3   OH262506   0.675   0.821   2.562  0.2383 -0.1704 -0.0094
13672TIP3    H162507   0.730   0.744   2.579 -1.0227 -0.7148  1.6799
13672TIP3    H262508   0.656   0.857   2.649 -0.2670  1.3024 -0.7065
13673TIP3   OH262509   2.078   1.463  11.197  0.0612  0.0072  0.2949
13673TIP3    H162510   2.167   1.498  11.204  0.3112  0.0239 -2.2010
13673TIP3    H262511   2.032   1.527  11.143 -0.6924 -1.3302 -0.6783
13674TIP3   OH262512   5.187   5.347  11.386 -0.1157  0.0973 -0.2839
13674TIP3    H162513   5.094   5.365  11.399  0.1688  0.1710  1.6810
13674TIP3    H262514   5.206   5.273  11.443  0.9511 -0.1888 -0.9877
13675TIP3   OH262515   1.217   5.797   3.860  0.3070 -0.3168  0.0151
13675TIP3    H162516   1.268   5.865   3.904 -0.2345 -0.9434  1.6596
13675TIP3    H262517   1.159   5.846   3.801  1.0418  0.5475 -0.0052
13676TIP3   OH262518   4.859   1.482   0.036 -0.8958  0.0468  0.5778
13676TIP3    H162519   4.826   1.563   0.075 -1.9579 -0.2130  0.2193
13676TIP3    H262520   4.808   1.413   0.076  0.8764 -0.5741  1.8332
13677TIP3   OH262521   1.884   5.778   2.728  0.1020  0.2310  0.3000
13677TIP3    H162522   1.961   5.761   2.673  0.3601  1.7204  0.1719
13677TIP3    H262523   1.809   5.752   2.674  0.5344 -1.8229  0.6580
13678TIP3   OH262524   3.014   0.617   2.087 -0.2587 -0.1585  0.1401
13678TIP3    H162525   2.945   0.554   2.108 -0.3110  0.1906  0.9903
13678TIP3    H262526   3.085   0.596   2.148  0.5488 -0.7782 -0.9917
13679TIP3   OH262527   0.921   2.321   2.550  0.3160 -0.1588 -0.2085
13679TIP3    H162528   0.896   2.408   2.519  0.6554 -0.8430 -2.5380
13679TIP3    H262529   1.000   2.299   2.499  1.2318 -1.1394  1.5654
13680TIP3   OH262530   5.636   0.546   2.475  0.8619  0.6998  0.7217
13680TIP3    H162531   5.587   0.606   2.531 -0.3882 -0.1700  0.5608
13680TIP3    H262532   5.619   0.459   2.512 -1.5308 -0.0919 -2.1266
13681TIP3   OH262533   1.857   6.117   0.096  0.0132 -0.9149 -0.0924
13681TIP3    H162534   1.949   6.093   0.086 -0.1335 -0.9191 -1.6119
13681TIP3    H262535   1.815   6.037   0.131  0.4057 -1.2502 -0.3849
13682TIP3   OH262536   2.455   4.879  11.474  0.5015  0.3737  0.5849
13682TIP3    H162537   2.465   4.953  11.532 -1.2752 -0.1597  1.6099
13682TIP3    H262538   2.502   4.807  11.518 -1.2503 -0.1549  1.6219
13683TIP3   OH262539   3.375   0.254   2.758  0.3915  0.2604  0.1380
13683TIP3    H162540   3.403   0.222   2.843 -0.5116  1.5596  0.9474
13683TIP3    H262541   3.319   0.329   2.778  1.3358  1.4715 -1.6523
13684TIP3   OH262542   2.366   3.554  13.735 -0.8198 -0.0784  0.0687
13684TIP3    H162543   2.313   3.576  13.811 -0.6782 -1.8745  0.7170
13684TIP3    H262544   2.447   3.603  13.747 -1.4717  0.9792  0.1904
13685TIP3   OH262545   2.358   6.272  14.697 -0.2794  0.2060  0.3831
13685TIP3    H162546   2.373   6.264  14.603  0.6741 -0.7244  0.6076
13685TIP3    H262547   2.345   6.365  14.712  1.9642  0.6428 -0.3075
13686TIP3   OH262548   1.894   2.554   1.422 -0.5108  0.1619  0.7227
13686TIP3    H162549   1.926   2.464   1.424  0.5333  0.4178 -2.2192
13686TIP3    H262550   1.968   2.607   1.452  0.3013  0.3447 -1.4960
13687TIP3   OH262551   4.677   6.522   0.909  0.1538  0.6409  0.2425
13687TIP3    H162552   4.638   6.574   0.839  0.1665  1.1964  0.6414
13687TIP3    H262553   4.648   6.433   0.892  3.4556  0.0518 -2.8275
13688TIP3   OH262554   6.790   4.687  12.034 -0.2520 -0.0530 -0.0328
13688TIP3    H162555   6.879   4.656  12.023  0.4265  2.0459 -0.6681
13688TIP3    H262556   6.798   4.764  12.091 -1.8096 -0.6581  1.0361
13689TIP3   OH262557   6.773   3.726   1.005 -0.8985 -0.0454 -0.1896
13689TIP3    H162558   6.695   3.777   0.981 -0.3884  1.2929  0.9522
13689TIP3    H262559   6.745   3.675   1.081 -0.6541  0.4464  0.2293
13690TIP3   OH262560   6.018   5.957  12.891 -0.1796 -0.6562  0.8273
13690TIP3    H162561   5.980   6.040  12.919 -0.8323 -0.7499  0.2255
13690TIP3    H262562   6.031   5.967  12.797  2.9612  0.0434  1.2801
13691TIP3   OH262563   2.476   4.801   4.760 -0.1536 -0.2984 -0.4634
13691TIP3    H162564   2.545   4.805   4.827  0.4666  0.1836 -1.1203
13691TIP3    H262565   2.416   4.734   4.792  0.1818 -0.1328  0.5349
13692TIP3   OH262566   2.293   0.552   2.549  0.7658 -0.2790  0.1636
13692TIP3    H162567   2.225   0.605   2.591  1.1134 -0.2197  0.6623
13692TIP3    H262568   2.254   0.523   2.467  1.1185  2.0152 -0.8642
13693TIP3   OH262569   4.242   0.494  13.010 -0.1547  0.3467  0.0535
13693TIP3    H162570   4.262   0.418  13.065 -0.9098 -0.1347 -0.3296
13693TIP3    H262571   4.324   0.543  13.006  0.1231 -0.0416  0.9402
13694TIP3   OH262572   6.066   5.042   0.276 -0.2720  0.0010  0.0757
13694TIP3    H162573   6.097   5.093   0.351 -2.9556  0.9457  0.5651
13694TIP3    H262574   6.113   5.080   0.201  1.2601  0.0742  1.0450
13695TIP3   OH262575   2.264   0.996  12.378  0.9241 -0.1988 -0.2851
13695TIP3    H162576   2.273   1.059  12.449  2.8171 -1.6504  0.8386
13695TIP3    H262577   2.316   1.033  12.306  1.2248 -0.0024  0.0299
13696TIP3   OH262578   0.019   0.526  11.838 -0.6450  0.3524 -0.2550
13696TIP3    H162579   0.041   0.611  11.877 -1.8253  0.4213  0.2824
13696TIP3    H262580   0.099   0.474  11.849 -0.4173  0.8986  0.7892
13697TIP3   OH262581   0.466   0.110  11.511  0.5899  0.2658  0.0961
13697TIP3    H162582   0.479   0.200  11.480 -1.9786  0.7608  0.3029
13697TIP3    H262583   0.414   0.120  11.591  1.3721 -1.3580  0.8287
13698TIP3   OH262584   2.934   2.762   0.728  0.2602  0.1404 -0.3122
13698TIP3    H162585   2.989   2.710   0.786  1.2086  0.5669 -0.8221
13698TIP3    H262586   2.890   2.825   0.786  1.6742  0.9790 -0.1263
13699TIP3   OH262587   6.449   5.314   1.146 -0.4312  0.6666 -0.0715
13699TIP3    H162588   6.438   5.407   1.162 -3.3376  0.7439 -2.0754
13699TIP3    H262589   6.360   5.280   1.137  0.5894 -2.0771 -0.6044
13700TIP3   OH262590   1.619   2.528  16.694  0.2657  0.4616 -0.3159
13700TIP3    H162591   1.680   2.457  16.672  0.2690  0.5679 -0.6455
13700TIP3    H262592   1.545   2.484  16.735  0.4267  0.3001 -0.1948
13701TIP3   OH262593   6.793   0.136  14.920 -0.1714  0.5330  0.1565
13701TIP3    H162594   6.804   0.214  14.865  2.3910 -1.5301 -2.4165
13701TIP3    H262595   6.867   0.138  14.980 -0.0889  0.0814  0.0725
13702TIP3   OH262596   4.239   3.273  16.233  0.0534 -0.1833 -0.0185
13702TIP3    H162597   4.320   3.245  16.275 -0.2000  0.2786  0.7787
13702TIP3    H262598   4.191   3.191  16.216  0.8005 -0.4760 -0.7407
13703TIP3   OH262599   6.131   5.881   2.305  0.9144  0.5800  0.5765
13703TIP3    H162600   6.150   5.955   2.363  0.6954  2.8705 -2.1733
13703TIP3    H262601   6.037   5.885   2.289  0.6860 -1.0675  1.3829
13704TIP3   OH262602   6.560   1.530   2.066  0.3859 -0.4093  0.5884
13704TIP3    H162603   6.528   1.496   1.983  2.0408 -0.4858 -0.0450
13704TIP3    H262604   6.542   1.461   2.130 -1.6915  0.0158  0.4722
13705TIP3   OH262605   1.207   5.599   4.154 -0.2708  0.0897 -0.5107
13705TIP3    H162606   1.162   5.516   4.161 -1.5969  0.8542  0.2414
13705TIP3    H262607   1.143   5.659   4.115  0.5002  0.8677 -0.6127
13706TIP3   OH262608   5.252   3.273  15.436  0.5572 -0.2439 -0.4217
13706TIP3    H162609   5.280   3.223  15.513  0.8496 -0.5986 -0.7560
13706TIP3    H262610   5.159   3.253  15.427  0.8363 -1.3383 -0.9989
13707TIP3   OH262611   6.469   3.981   5.492 -0.3622 -0.6452  0.8548
13707TIP3    H162612   6.410   4.030   5.548  0.3781  1.0719  0.1479
13707TIP3    H262613   6.479   4.035   5.414  1.1985 -1.4733  0.4645
13708TIP3   OH262614   0.546   3.858  16.971  0.2916 -0.2056  0.0597
13708TIP3    H162615   0.587   3.915  16.906  1.4583  0.1307  1.0707
13708TIP3    H262616   0.603   3.781  16.975 -0.4678 -0.7944 -0.2192
13709TIP3   OH262617   2.704   2.500  14.106 -0.2166  0.0944  0.2287
13709TIP3    H162618   2.725   2.427  14.048  0.5810  0.0894  0.5154
13709TIP3    H262619   2.685   2.573  14.048  2.3449  0.5804 -0.0405
13710TIP3   OH262620   2.217   2.477   1.906  0.0100  0.0498  0.6517
13710TIP3    H162621   2.270   2.421   1.850 -0.6603 -0.1471  0.2117
13710TIP3    H262622   2.144   2.506   1.850 -0.3868  0.2583  1.2697
13711TIP3   OH262623   4.542   3.181   4.737  0.7977  0.1440  0.2271
13711TIP3    H162624   4.489   3.152   4.663  0.1071 -1.3220  1.2642
13711TIP3    H262625   4.606   3.241   4.699  1.9592 -2.3693 -1.9159
13712TIP3   OH262626   2.937   4.336  15.609 -1.2619  0.2082 -0.3859
13712TIP3    H162627   2.999   4.359  15.541 -2.0645  0.2889 -1.1006
13712TIP3    H262628   2.883   4.267  15.571 -0.0143 -1.6411  1.1127
13713TIP3   OH262629   0.444   1.592  12.785 -0.1410 -0.0365  0.4365
13713TIP3    H162630   0.441   1.508  12.739 -0.1819  0.2096 -0.0032
13713TIP3    H262631   0.384   1.581  12.859  0.4393 -0.6652  0.8269
13714TIP3   OH262632   4.278   1.940   0.132 -0.1712  0.4185  0.5424
13714TIP3    H162633   4.236   1.961   0.049  1.3268  0.5407 -0.2051
13714TIP3    H262634   4.326   1.858   0.115  0.0197  0.3611  1.3273
13715TIP3   OH262635   0.743   4.573   1.868 -0.3032  0.6778  0.5342
13715TIP3    H162636   0.731   4.557   1.775  0.3162 -1.7901  0.8504
13715TIP3    H262637   0.788   4.658   1.873  0.6485  0.3001 -1.4412
13716TIP3   OH262638   2.547   2.879   2.435  0.4287 -0.3602  0.4775
13716TIP3    H162639   2.462   2.860   2.475  1.0206 -0.0052  1.9058
13716TIP3    H262640   2.586   2.946   2.490  1.2523  0.1572 -0.7081
13717TIP3   OH262641   6.688   3.061  10.932 -0.7623 -0.6029 -0.6423
13717TIP3    H162642   6.635   3.042  10.854 -0.6956  1.0996 -1.1229
13717TIP3    H262643   6.628   3.104  10.992  0.0380  1.3607 -1.2008
13718TIP3   OH262644   2.313   1.991   0.470  0.2716 -0.1630 -0.0918
13718TIP3    H162645   2.321   2.086   0.464 -0.7939  0.1056  2.3894
13718TIP3    H262646   2.404   1.960   0.463  0.7981  1.1338  0.7634
13719TIP3   OH262647   2.715   0.717   4.885 -0.0335  0.1504 -0.4267
13719TIP3    H162648   2.621   0.730   4.893  0.0431  1.5100 -1.5508
13719TIP3    H262649   2.751   0.744   4.969 -0.6685 -0.5513  0.0656
13720TIP3   OH262650   1.161   3.190  12.179  0.5093 -0.3724 -0.1799
13720TIP3    H162651   1.066   3.183  12.188  0.6417 -1.1244  0.7824
13720TIP3    H262652   1.182   3.275  12.216  0.4426 -1.1625  1.7580
13721TIP3   OH262653   2.791   3.038  16.473  0.1761 -0.5514  0.3150
13721TIP3    H162654   2.831   3.086  16.546  0.7911 -1.9016  0.8832
13721TIP3    H262655   2.855   3.045  16.403 -0.3159  0.5570 -0.0405
13722TIP3   OH262656   1.099   0.007  11.695 -0.3887  0.6720 -0.3851
13722TIP3    H162657   1.091   0.011  11.790 -0.6774 -0.0691 -0.3762
13722TIP3    H262658   1.020  -0.038  11.666  0.2779 -0.1928 -0.8774
13723TIP3   OH262659   5.383   0.778   1.353  0.1164  0.6361 -0.2432
13723TIP3    H162660   5.339   0.844   1.299 -2.1631 -0.2377  0.4937
13723TIP3    H262661   5.376   0.811   1.442 -1.5727 -0.8672  0.1973
13724TIP3   OH262662   2.803   2.364  15.143 -0.2062  0.3342 -0.7670
13724TIP3    H162663   2.826   2.451  15.111 -2.2369  0.2212 -2.7191
13724TIP3    H262664   2.726   2.379  15.198 -1.3594 -0.3164 -2.1463
13725TIP3   OH262665   0.285   4.098   4.396 -0.3210  0.0561 -0.0137
13725TIP3    H162666   0.237   4.174   4.429 -0.2697 -0.1695  0.5899
13725TIP3    H262667   0.299   4.043   4.473 -0.7100 -0.7593 -0.5091
13726TIP3   OH262668   0.948   5.080   2.006 -0.4085  0.4946  0.0878
13726TIP3    H162669   0.939   5.059   2.100  1.8714 -2.5099 -0.2702
13726TIP3    H262670   1.035   5.118   1.998  0.6631 -2.0584 -1.1670
13727TIP3   OH262671   3.869   1.784   0.912  0.8585 -0.3119  0.3295
13727TIP3    H162672   3.908   1.733   0.983  2.0821  0.0162 -0.0884
13727TIP3    H262673   3.941   1.839   0.881 -0.2086  1.0259  0.1875
13728TIP3   OH262674   1.202   2.940  12.209  0.8601  0.6428  0.1158
13728TIP3    H162675   1.166   3.023  12.180 -0.1948  0.0797 -0.2343
13728TIP3    H262676   1.256   2.962  12.285  0.4870  1.6293  0.0976
13729TIP3   OH262677   4.226   5.504   2.029  0.6654 -0.4205 -0.0466
13729TIP3    H162678   4.317   5.485   2.007  0.5977 -1.3197  0.4178
13729TIP3    H262679   4.176   5.471   1.954  0.9323  3.4298 -2.0782
13730TIP3   OH262680   2.754   4.840   3.823  0.0281 -0.2934  0.4857
13730TIP3    H162681   2.751   4.894   3.744 -0.4417 -0.7242  0.2060
13730TIP3    H262682   2.790   4.898   3.890  0.4974  0.0550 -0.0618
13731TIP3   OH262683   5.149   3.320  16.073 -0.4259 -0.5582 -0.0755
13731TIP3    H162684   5.195   3.258  16.017 -1.0695 -0.0085 -1.2170
13731TIP3    H262685   5.058   3.316  16.046 -0.3017  1.7347 -1.0137
13732TIP3   OH262686   2.387   2.568   3.265 -0.3179  0.1003  0.4023
13732TIP3    H162687   2.356   2.479   3.246  0.1912  0.2913 -1.4839
13732TIP3    H262688   2.473   2.556   3.305 -0.0521 -0.2624 -0.2641
13733TIP3   OH262689   5.981   6.638   4.487  0.2522  0.4788 -0.0425
13733TIP3    H162690   5.912   6.591   4.442  0.3379 -1.1612  1.4932
13733TIP3    H262691   6.061   6.588   4.468 -0.0116 -1.4424  3.5164
13734TIP3   OH262692   3.978   0.351  15.796  0.3571 -0.3768 -0.5287
13734TIP3    H162693   3.884   0.361  15.785  0.2727 -1.5622 -0.9911
13734TIP3    H262694   4.004   0.426  15.849 -0.4704  1.2163 -2.3075
13735TIP3   OH262695   0.144   6.073  13.706 -0.3345  0.4280 -0.1261
13735TIP3    H162696   0.113   6.100  13.793  0.8472 -0.7842  0.7025
13735TIP3    H262697   0.084   6.004  13.680 -0.5203  0.5957 -0.1409
13736TIP3   OH262698   5.959   3.909  13.386 -0.3754  0.0460 -0.9082
13736TIP3    H162699   5.953   3.898  13.291  0.7243  0.0887 -0.9792
13736TIP3    H262700   6.050   3.891  13.407 -0.5919  0.1397  0.1335
13737TIP3   OH262701   3.724   6.376   1.978  0.0456 -0.8199  0.2644
13737TIP3    H162702   3.671   6.337   2.047  0.2590  0.3700  1.1187
13737TIP3    H262703   3.660   6.415   1.918 -0.1291 -1.6411 -0.0909
13738TIP3   OH262704   3.763   0.091   0.678  0.4969  0.3505  0.5215
13738TIP3    H162705   3.669   0.109   0.666 -0.1144 -1.1072  2.7697
13738TIP3    H262706   3.774   0.001   0.647  1.1102  0.4283  0.5148
13739TIP3   OH262707   4.061   0.945   2.131 -0.7776 -0.4508  0.2807
13739TIP3    H162708   4.063   1.030   2.086 -2.0784 -0.3347  0.4022
13739TIP3    H262709   4.046   0.881   2.062  1.6146 -0.7505  0.0060
13740TIP3   OH262710   6.482   2.966   3.949 -0.4299  0.0619 -0.0188
13740TIP3    H162711   6.450   2.978   4.039  0.9139 -1.1676  0.6332
13740TIP3    H262712   6.523   3.050   3.928 -0.1511  0.1303  0.7558
13741TIP3   OH262713   5.572   5.557  13.053 -0.2965 -0.8488 -0.2760
13741TIP3    H162714   5.616   5.476  13.026 -0.2107 -0.9446  0.1443
13741TIP3    H262715   5.631   5.596  13.117 -0.0516 -0.1413 -0.9226
13742TIP3   OH262716   0.167   3.373  14.863  0.3631 -0.4271 -0.2357
13742TIP3    H162717   0.154   3.370  14.958 -0.8336  0.8557 -0.3279
13742TIP3    H262718   0.147   3.285  14.833 -2.4265 -0.0644  0.3701
13743TIP3   OH262719   3.646   4.820  15.923 -0.1441  0.2559 -0.1132
13743TIP3    H162720   3.739   4.802  15.914  0.4507  2.9062  0.3324
13743TIP3    H262721   3.624   4.791  16.012  0.4442  0.3589  0.0671
13744TIP3   OH262722   1.617   0.837  12.065 -0.1929  0.2246  0.7572
13744TIP3    H162723   1.656   0.819  12.151 -1.2420  2.2010  1.6843
13744TIP3    H262724   1.685   0.887  12.019  0.8243 -1.8246 -0.0237
13745TIP3   OH262725   6.480   0.760   1.452  0.0534  0.0892 -0.2279
13745TIP3    H162726   6.447   0.679   1.490  1.1826 -0.3154 -0.0997
13745TIP3    H262727   6.574   0.744   1.438 -0.2723  0.2976 -2.9982
13746TIP3   OH262728   1.732   5.964  13.677 -0.2892 -0.2483 -0.5134
13746TIP3    H162729   1.702   5.885  13.632  0.8922 -0.0663 -1.6251
13746TIP3    H262730   1.794   6.005  13.617 -0.8691  1.5269  0.0650
13747TIP3   OH262731   1.716   3.776   3.460 -0.4829  0.9312  0.1483
13747TIP3    H162732   1.710   3.684   3.484  0.5974  0.5456 -1.0190
13747TIP3    H262733   1.790   3.810   3.511 -0.0052  0.8104 -0.4598
13748TIP3   OH262734   1.069   1.786  16.337  0.4921  0.5983 -0.2502
13748TIP3    H162735   1.125   1.858  16.308  0.2571  1.0279  0.3691
13748TIP3    H262736   1.129   1.724  16.378  0.4605  1.2278  0.7468
13749TIP3   OH262737   4.650   0.757   2.564 -0.0361  0.2010 -0.0076
13749TIP3    H162738   4.611   0.842   2.586  0.2309 -0.1571  2.0015
13749TIP3    H262739   4.744   0.769   2.577  0.0594 -0.2498 -0.2512
13750TIP3   OH262740   0.137   4.843  11.812 -0.1521 -0.0873  0.5388
13750TIP3    H162741   0.154   4.882  11.898  1.6630  1.7515 -0.6027
13750TIP3    H262742   0.089   4.910  11.763  0.6158 -0.3014 -0.5407
13751TIP3   OH262743   3.859   3.422   0.198 -0.2260  0.0586  0.7973
13751TIP3    H162744   3.798   3.413   0.271 -0.1294 -2.3611  0.6302
13751TIP3    H262745   3.904   3.338   0.194  2.7765  1.6140  0.5931
13752TIP3   OH262746   4.163   1.970  11.552  0.2545 -0.1956  0.3797
13752TIP3    H162747   4.171   1.876  11.563  2.6738  0.0781  1.3131
13752TIP3    H262748   4.168   2.005  11.641 -1.2104  0.7966  0.0981
13753TIP3   OH262749   3.790   3.600  15.526 -0.1550  0.2274  0.1564
13753TIP3    H162750   3.746   3.684  15.509 -1.7578 -0.6495 -0.1282
13753TIP3    H262751   3.883   3.619  15.513 -0.6225  1.5876 -1.4103
13754TIP3   OH262752   2.312   5.764   3.483  0.1764 -0.1902  0.4507
13754TIP3    H162753   2.251   5.690   3.478  0.8904 -0.9388  2.1658
13754TIP3    H262754   2.340   5.765   3.575 -0.5351  2.8101  0.6826
13755TIP3   OH262755   3.212   3.554  16.844  0.0727  0.2415  0.4251
13755TIP3    H162756   3.299   3.531  16.875  0.3613 -1.2294 -1.3608
13755TIP3    H262757   3.218   3.547  16.748 -1.7239  1.1337  0.2277
13756TIP3   OH262758   0.239   6.306  10.592 -0.1391 -0.6024  0.0027
13756TIP3    H162759   0.234   6.296  10.687 -0.0018  0.1339  0.0864
13756TIP3    H262760   0.277   6.223  10.562  0.9420 -0.3815  0.7040
13757TIP3   OH262761   5.442   1.449   2.333  0.0839  0.0734  0.1630
13757TIP3    H162762   5.387   1.371   2.336 -2.6112  1.9510  0.8093
13757TIP3    H262763   5.389   1.515   2.288  1.9781  1.8179  0.3906
13758TIP3   OH262764   1.277   4.444  12.338  0.2040 -0.0204  0.2541
13758TIP3    H162765   1.267   4.392  12.418  1.0731 -0.2918  0.1895
13758TIP3    H262766   1.246   4.386  12.268 -0.1296  0.0508  0.3421
13759TIP3   OH262767   6.236   6.062   0.900  0.5542 -0.1437 -0.3093
13759TIP3    H162768   6.209   6.153   0.914 -0.8087 -0.1021 -2.8340
13759TIP3    H262769   6.155   6.011   0.914  0.4952 -0.6107 -2.2290
13760TIP3   OH262770   6.198   2.834   4.783  0.1372  0.4439  0.0603
13760TIP3    H162771   6.187   2.901   4.716  0.3342  1.4935  1.0626
13760TIP3    H262772   6.116   2.784   4.781 -0.7903  1.9178  0.6147
13761TIP3   OH262773   0.163   0.118   1.044  0.7301  0.3711  0.1814
13761TIP3    H162774   0.186   0.026   1.052  0.3998  0.2418 -0.3248
13761TIP3    H262775   0.068   0.120   1.047  0.5854  0.3764 -2.7778
13762TIP3   OH262776   4.873   3.364  10.559  0.5891  0.2191  0.2672
13762TIP3    H162777   4.870   3.406  10.473  0.0457  1.3869  0.8424
13762TIP3    H262778   4.787   3.383  10.598  1.1386  0.4371  1.3963
13763TIP3   OH262779   5.803   1.990  11.718 -0.1839 -0.7567  1.0614
13763TIP3    H162780   5.863   1.956  11.652 -0.6500 -1.3269  0.9342
13763TIP3    H262781   5.859   2.007  11.794  0.0453 -1.8708  1.1497
13764TIP3   OH262782   5.405   1.911   0.510 -0.0885 -0.6802  0.4475
13764TIP3    H162783   5.332   1.970   0.493 -0.0914 -0.6683  0.5024
13764TIP3    H262784   5.364   1.830   0.541 -0.1193 -0.9309 -0.2400
13765TIP3   OH262785   2.284   6.802  14.980 -0.4498  0.2762 -0.0710
13765TIP3    H162786   2.361   6.781  14.927 -0.8520 -0.7552 -0.2620
13765TIP3    H262787   2.303   6.888  15.018  0.7260  0.0899 -0.2355
13766TIP3   OH262788   2.870   6.245  11.942 -0.1219 -0.7303  0.5498
13766TIP3    H162789   2.793   6.248  11.885 -0.2566 -1.4964  0.6775
13766TIP3    H262790   2.846   6.184  12.012  0.0715  0.1450  1.3943
13767TIP3   OH262791   0.131   1.908   4.799 -0.1986  0.4806  0.1866
13767TIP3    H162792   0.132   2.002   4.818  0.6812  0.2920  1.1055
13767TIP3    H262793   0.095   1.868   4.878  0.0471 -0.0112  0.0499
13768TIP3   OH262794   1.009   2.332  14.121 -0.5618  0.1639  0.0283
13768TIP3    H162795   1.103   2.341  14.109  0.1071 -0.8549  3.6938
13768TIP3    H262796   0.981   2.417  14.156 -0.3277 -0.6104  2.2028
13769TIP3   OH262797   1.603   2.776   0.130 -0.4870 -0.4881  0.3533
13769TIP3    H162798   1.518   2.819   0.117 -0.3407 -0.7104 -1.5513
13769TIP3    H262799   1.666   2.847   0.135 -0.4263 -0.4015 -1.3181
13770TIP3   OH262800   6.162   2.792  16.622  0.5305  0.3716 -0.3750
13770TIP3    H162801   6.202   2.824  16.703  1.2529  0.2191 -0.6666
13770TIP3    H262802   6.218   2.828  16.553 -1.8717  3.1120 -0.9761
13771TIP3   OH262803   3.416   0.591   4.981  0.0992 -0.0818 -1.0508
13771TIP3    H162804   3.450   0.666   5.030 -0.5872  0.9819 -2.1603
13771TIP3    H262805   3.480   0.522   4.996  1.4906  1.1501 -1.1184
13772TIP3   OH262806   1.849   6.615  13.619  0.7165  0.0083  0.0354
13772TIP3    H162807   1.764   6.572  13.617  0.2434  0.9509 -0.7746
13772TIP3    H262808   1.841   6.681  13.688  0.8790 -0.0691  0.1297
13773TIP3   OH262809   2.455   2.751  14.587  0.0014  0.2954  0.0023
13773TIP3    H162810   2.522   2.754  14.656 -0.6729  2.4118  0.5913
13773TIP3    H262811   2.373   2.738  14.634 -0.3863  1.1252 -0.4318
13774TIP3   OH262812   5.185   4.415  14.890 -0.2252  0.2664  0.6631
13774TIP3    H162813   5.197   4.503  14.925 -0.7178 -0.2960  2.2730
13774TIP3    H262814   5.097   4.416  14.852  0.0822  0.7010 -0.0521
13775TIP3   OH262815   2.208   4.369  11.719  0.1771  0.0088  0.1907
13775TIP3    H162816   2.236   4.429  11.650  0.2630  0.5543  0.6988
13775TIP3    H262817   2.157   4.423  11.780  0.2223 -0.4328  0.6301
13776TIP3   OH262818   0.576   5.732   3.406 -0.1207  0.4906 -0.5633
13776TIP3    H162819   0.483   5.714   3.422  0.1587  1.6163  2.8603
13776TIP3    H262820   0.617   5.720   3.492  2.7302  1.0104 -1.8223
13777TIP3   OH262821   6.479   5.436  16.466 -0.2219 -0.0734  0.5122
13777TIP3    H162822   6.452   5.345  16.470 -0.6674 -0.0576 -1.4788
13777TIP3    H262823   6.407   5.481  16.422  1.1196  0.7441 -0.9263
13778TIP3   OH262824   5.082   6.164  14.354 -0.1632  0.2106 -0.6813
13778TIP3    H162825   4.997   6.121  14.339  1.2330 -3.0117  0.2452
13778TIP3    H262826   5.060   6.242  14.404 -2.4014 -1.7347  1.5192
13779TIP3   OH262827   2.392   4.884  12.141 -0.2462  0.3704  0.4532
13779TIP3    H162828   2.378   4.790  12.142 -1.0205  0.4110 -2.2163
13779TIP3    H262829   2.386   4.910  12.233 -1.1918 -2.0034  1.1072
13780TIP3   OH262830   4.096   6.041  17.073 -0.0021  0.1651  0.6653
13780TIP3    H162831   4.021   6.090  17.108 -0.9593 -0.6608 -0.2115
13780TIP3    H262832   4.079   6.034  16.979  1.0711 -0.2167  0.4947
13781TIP3   OH262833   1.169   6.591   1.745  0.1073 -0.0975 -0.7389
13781TIP3    H162834   1.088   6.634   1.719  0.5257  0.7454 -0.6358
13781TIP3    H262835   1.231   6.662   1.759  0.8480 -0.7365 -0.7529
13782TIP3   OH262836   1.983   2.759   0.231  0.5013  0.4792 -0.3875
13782TIP3    H162837   1.954   2.717   0.312  0.7974  2.9323  1.0302
13782TIP3    H262838   1.909   2.815   0.206  1.4661  1.8232 -0.2887
13783TIP3   OH262839   5.494   3.475  12.247 -0.4833 -0.6858  0.0470
13783TIP3    H162840   5.499   3.411  12.318  0.6668 -1.1551 -0.4518
13783TIP3    H262841   5.575   3.463  12.198 -0.9925  0.0647 -0.9877
13784TIP3   OH262842   5.360   4.142   5.815 -0.2317  0.6688 -0.0486
13784TIP3    H162843   5.369   4.125   5.908  0.2912  1.1189 -0.0107
13784TIP3    H262844   5.352   4.237   5.809 -2.4791  0.5018 -0.2961
13785TIP3   OH262845   0.043   0.904   5.562  0.4794 -0.0197 -0.0760
13785TIP3    H162846   0.111   0.971   5.560  1.1975 -0.7409  0.0038
13785TIP3    H262847  -0.038   0.952   5.544  1.0916  0.7327 -0.8653
13786TIP3   OH262848   6.411   3.053  11.515  0.5764 -0.0230  0.3525
13786TIP3    H162849   6.331   3.027  11.560 -1.3086  0.5709 -2.5182
13786TIP3    H262850   6.449   3.122  11.569 -0.3381 -0.9778  2.2237
13787TIP3   OH262851   6.603   6.467   4.963  0.2374  0.0551 -0.1529
13787TIP3    H162852   6.562   6.508   4.888  1.5588  0.8058 -0.4712
13787TIP3    H262853   6.694   6.452   4.937  0.8227  0.6983  1.4185
13788TIP3   OH262854   0.654   0.868  16.473  0.0747 -0.0555  0.3394
13788TIP3    H162855   0.719   0.799  16.484  1.6124  1.0055 -1.7442
13788TIP3    H262856   0.675   0.908  16.389 -2.1366  1.5320  0.4962
13789TIP3   OH262857   3.479   1.796   3.662 -0.1443  0.2204  0.3776
13789TIP3    H162858   3.518   1.848   3.592 -0.8469 -0.1217 -0.2853
13789TIP3    H262859   3.387   1.786   3.635  0.0394 -1.5689  0.3663
13790TIP3   OH262860   0.605   1.248   5.675 -0.5828  0.0891  0.4397
13790TIP3    H162861   0.581   1.319   5.734 -1.9918  0.4413 -0.5344
13790TIP3    H262862   0.648   1.291   5.601 -0.0439 -0.2259  0.5632
13791TIP3   OH262863   4.416   3.253  14.831  0.1039  0.4198 -0.1982
13791TIP3    H162864   4.325   3.281  14.821  0.0459 -0.2410 -1.6491
13791TIP3    H262865   4.458   3.278  14.749  1.1110  0.2324  0.2538
13792TIP3   OH262866   1.420   6.616  15.802 -0.8023 -0.1866 -0.3867
13792TIP3    H162867   1.450   6.673  15.731 -0.2169 -1.1293 -0.9061
13792TIP3    H262868   1.342   6.573  15.767 -0.7371 -0.3648 -0.3102
13793TIP3   OH262869   1.203   2.427  13.330 -0.0451 -0.1985 -0.1822
13793TIP3    H162870   1.141   2.361  13.300 -1.4053  1.2996 -0.7465
13793TIP3    H262871   1.149   2.503  13.351  1.5051  0.7947  0.2834
13794TIP3   OH262872   3.199   1.551  11.587 -0.2960 -0.0945 -0.0782
13794TIP3    H162873   3.195   1.520  11.496 -1.2671  2.3577 -0.9054
13794TIP3    H262874   3.144   1.489  11.635 -0.9799 -0.5456 -1.4049
13795TIP3   OH262875   6.786   0.255   6.455  0.0174  0.7714 -0.5552
13795TIP3    H162876   6.805   0.209   6.373  0.0890  0.7041 -0.5015
13795TIP3    H262877   6.804   0.347   6.436  3.1195  0.3984  0.2856
13796TIP3   OH262878   1.123   1.329   4.178 -0.1842  0.2109 -0.5001
13796TIP3    H162879   1.049   1.334   4.118 -0.8729  0.1351  0.3339
13796TIP3    H262880   1.192   1.287   4.128 -0.8973 -0.2436 -1.1036
13797TIP3   OH262881   3.727   5.116  13.115  0.1005  0.3995 -0.6299
13797TIP3    H162882   3.745   5.157  13.199  0.3255  0.6609 -0.8042
13797TIP3    H262883   3.759   5.179  13.050 -0.2932  0.3077 -0.9136
13798TIP3   OH262884   4.409   3.531  12.908  0.1428 -0.2105 -0.2569
13798TIP3    H162885   4.499   3.513  12.882  0.9191 -0.0994  2.2505
13798TIP3    H262886   4.356   3.478  12.849  1.6997  1.6251 -3.4334
13799TIP3   OH262887   0.062   6.252  16.022  0.2255  0.0845  0.1700
13799TIP3    H162888  -0.014   6.195  16.011  1.4534 -1.1872 -2.0322
13799TIP3    H262889   0.026   6.340  16.030 -1.4692 -0.4515 -1.3638
13800TIP3   OH262890   5.633   5.684  10.510 -0.1476  0.7099 -0.1112
13800TIP3    H162891   5.549   5.672  10.555  0.2604 -0.0485  0.4531
13800TIP3    H262892   5.668   5.766  10.546 -1.2948  1.8130 -1.3925
13801TIP3   OH262893   1.520   4.508  11.158 -0.0034 -0.2278  0.5315
13801TIP3    H162894   1.464   4.553  11.221  0.5001 -0.6354  1.2932
13801TIP3    H262895   1.607   4.545  11.174 -0.1806  0.9598 -1.1642
13802TIP3   OH262896   2.657   1.076  12.385  0.1368 -0.3140  0.1794
13802TIP3    H162897   2.643   0.996  12.435  1.6177  0.0112  1.1521
13802TIP3    H262898   2.748   1.071  12.356  0.0596  0.7237 -0.2797
13803TIP3   OH262899   1.431   4.384   5.986  0.0608  0.6177 -0.1462
13803TIP3    H162900   1.419   4.321   6.057  0.2517 -0.2209 -0.8555
13803TIP3    H262901   1.525   4.396   5.979  0.1036 -0.1445 -0.9860
13804TIP3   OH262902   3.961   4.297   1.488 -0.4393 -0.3268 -0.2414
13804TIP3    H162903   3.953   4.378   1.438 -0.6351 -0.4727 -0.4529
13804TIP3    H262904   4.020   4.318   1.559  0.0718 -0.1939 -0.7022
13805TIP3   OH262905   0.483   3.298   0.944 -0.5638  0.3176 -0.1176
13805TIP3    H162906   0.533   3.218   0.929  0.2073  0.9355 -0.8454
13805TIP3    H262907   0.434   3.311   0.863  0.4589  1.3941 -0.5749
13806TIP3   OH262908   6.444   2.830  12.540 -0.0948 -0.5476 -0.0679
13806TIP3    H162909   6.487   2.770  12.479 -0.3054 -1.4438  0.6482
13806TIP3    H262910   6.449   2.785  12.624 -0.3905  0.3854  0.4456
13807TIP3   OH262911   0.173   4.713  11.476  0.5530 -0.9098  0.3903
13807TIP3    H162912   0.138   4.801  11.489 -0.9811 -1.3488 -0.5264
13807TIP3    H262913   0.117   4.657  11.529  0.5576 -1.4999 -0.2190
13808TIP3   OH262914   4.955   0.049   1.680 -0.5462  0.2534 -0.0868
13808TIP3    H162915   4.869   0.013   1.659 -0.3623  1.6279 -3.6143
13808TIP3    H262916   4.991   0.074   1.595  2.6665  1.2226  1.4957
13809TIP3   OH262917   5.183   3.697  16.708  0.4368  0.7719  0.0153
13809TIP3    H162918   5.153   3.687  16.617  0.7610 -0.7315  0.0614
13809TIP3    H262919   5.278   3.687  16.703  0.3519 -0.5032  0.6627
13810TIP3   OH262920   4.622   0.175   1.662  0.4108  0.8348  0.4068
13810TIP3    H162921   4.576   0.232   1.723  0.1711  0.9519  0.1175
13810TIP3    H262922   4.599   0.086   1.689 -0.6294  0.9044 -0.2312
13811TIP3   OH262923   2.202   6.463  17.174 -0.2909 -0.3083  0.6180
13811TIP3    H162924   2.172   6.465  17.265  1.2142 -0.9142  1.1381
13811TIP3    H262925   2.206   6.370  17.153 -1.9063 -0.1361 -0.5059
13812TIP3   OH262926   5.352   0.211  14.775  0.4655  0.0570  0.8346
13812TIP3    H162927   5.258   0.231  14.777  0.5311  0.5632 -0.8055
13812TIP3    H262928   5.358   0.120  14.804 -0.6763 -0.4473 -0.4582
13813TIP3   OH262929   4.871   1.505   0.381 -0.6204 -0.1629 -0.2585
13813TIP3    H162930   4.919   1.588   0.379 -0.5841 -0.1696  0.3671
13813TIP3    H262931   4.804   1.515   0.313  1.4761 -0.8995 -2.5266
13814TIP3   OH262932   4.237   6.263   2.039 -0.5084  0.2736  0.7131
13814TIP3    H162933   4.158   6.313   2.058 -0.3873  0.6014  0.3566
13814TIP3    H262934   4.306   6.308   2.087 -0.8067 -0.9485  2.3323
13815TIP3   OH262935   1.293   0.386  17.281  0.4538  0.2132  0.1274
13815TIP3    H162936   1.219   0.446  17.290 -0.4093 -0.8717  0.3721
13815TIP3    H262937   1.353   0.410  17.351  0.9869  2.0031 -0.9095
13816TIP3   OH262938   4.548   6.532  15.251 -0.3797  0.0702  0.4644
13816TIP3    H162939   4.500   6.529  15.333  0.4442  0.4579  0.9751
13816TIP3    H262940   4.603   6.454  15.253 -1.8307 -0.9996 -0.6581
13817TIP3   OH262941   6.121   3.128   1.067  0.0865 -0.1006 -0.1105
13817TIP3    H162942   6.131   3.037   1.038 -0.2971 -0.2550  0.2316
13817TIP3    H262943   6.046   3.161   1.017 -0.7615 -0.4571  0.8961
13818TIP3   OH262944   5.922   4.863  15.547  0.3793  0.3544  0.1201
13818TIP3    H162945   5.940   4.846  15.640  0.8568  1.2434  0.1935
13818TIP3    H262946   5.979   4.936  15.525 -1.9796  2.1905 -0.0721
13819TIP3   OH262947   5.881   2.583  13.811  0.0001  0.0811 -0.0173
13819TIP3    H162948   5.928   2.661  13.779  0.0825  0.2782  0.5767
13819TIP3    H262949   5.867   2.530  13.732  0.3839  0.4627 -0.3503
13820TIP3   OH262950   4.705   4.929   2.889 -0.1497  0.6974  0.4479
13820TIP3    H162951   4.769   4.916   2.958  0.8040  0.8183 -0.4006
13820TIP3    H262952   4.740   4.881   2.814 -0.3852  1.8662 -0.4277
13821TIP3   OH262953   3.444   2.598   2.586 -0.0247 -0.1648  0.3000
13821TIP3    H162954   3.383   2.588   2.513  3.2220  1.0526 -2.7241
13821TIP3    H262955   3.392   2.637   2.656 -3.6442 -2.9696 -0.7191
13822TIP3   OH262956   3.951   4.008  16.540 -0.1995  0.2092 -0.5214
13822TIP3    H162957   3.861   4.020  16.573 -0.1750 -2.0780  0.5012
13822TIP3    H262958   4.000   3.979  16.617  0.7971 -1.1715 -1.6594
13823TIP3   OH262959   6.638   3.363  16.805  0.1575  0.3774 -0.4527
13823TIP3    H162960   6.609   3.411  16.728 -1.1518  0.2269 -0.0587
13823TIP3    H262961   6.634   3.271  16.779 -0.1345  0.3345 -0.2563
13824TIP3   OH262962   0.223   4.568  11.978  0.7014 -0.0124 -0.0438
13824TIP3    H162963   0.229   4.500  11.911  0.5444 -0.4098  0.3430
13824TIP3    H262964   0.288   4.634  11.952  3.6517 -2.1280  1.6525
13825TIP3   OH262965   0.223   6.041   2.391  0.2261  0.6855  0.2196
13825TIP3    H162966   0.265   6.030   2.476  1.5094 -0.1920 -0.5172
13825TIP3    H262967   0.130   6.030   2.409  0.7107 -2.3597  1.0401
13826TIP3   OH262968   2.738   4.160  14.660 -0.1270 -0.0158  1.0600
13826TIP3    H162969   2.761   4.237  14.712 -0.7509  1.8418 -1.3199
13826TIP3    H262970   2.643   4.164  14.652 -0.2067 -1.2955  1.2905
13827TIP3   OH262971   5.646   3.667  13.969 -0.4752 -0.6213 -0.0007
13827TIP3    H162972   5.574   3.667  13.906  0.3457  0.1817 -0.9394
13827TIP3    H262973   5.663   3.760  13.986 -2.1688 -0.7868  3.1162
13828TIP3   OH262974   0.270   6.815   3.654  0.2416 -0.8570  0.5750
13828TIP3    H162975   0.322   6.829   3.733  1.1288  1.9647 -0.4586
13828TIP3    H262976   0.334   6.801   3.585 -0.5043 -1.7407  0.0475
13829TIP3   OH262977   3.411   1.256  13.694  0.0177 -0.1467 -0.0632
13829TIP3    H162978   3.352   1.316  13.650 -0.3915 -1.3108 -1.1312
13829TIP3    H262979   3.476   1.233  13.627  0.5431 -0.3959  0.5221
13830TIP3   OH262980   1.674   3.271   1.839  0.1854 -0.1480 -0.2106
13830TIP3    H162981   1.671   3.237   1.749 -0.5563 -3.8158  1.1349
13830TIP3    H262982   1.641   3.361   1.831  1.1869 -0.0037 -3.7547
13831TIP3   OH262983   1.944   2.455  16.630  0.5141  0.3982  0.2012
13831TIP3    H162984   1.940   2.435  16.537 -0.5175  0.0673  0.3062
13831TIP3    H262985   2.027   2.417  16.660  0.3927 -0.3289 -0.3891
13832TIP3   OH262986   4.206   6.092  15.692 -0.3160  0.2990 -0.0815
13832TIP3    H162987   4.236   6.054  15.775 -0.9067  0.1880  0.0857
13832TIP3    H262988   4.228   6.027  15.626  0.5761  0.5911 -0.0720
13833TIP3   OH262989   3.323   4.905  15.252  0.4492  0.1557  0.0282
13833TIP3    H162990   3.267   4.836  15.216  0.7638 -0.0748 -0.0211
13833TIP3    H262991   3.369   4.940  15.175  1.8969 -1.0319  0.3219
13834TIP3   OH262992   3.880   5.876  14.364  0.3205 -0.1070  0.0825
13834TIP3    H162993   3.884   5.918  14.278  0.9769  0.0608  0.1968
13834TIP3    H262994   3.841   5.790  14.346  3.1938 -1.2735 -0.8526
13835TIP3   OH262995   2.284   2.500   6.026 -0.2064  0.2626  0.9845
13835TIP3    H162996   2.208   2.446   6.006  1.2758 -1.5981  0.2469
13835TIP3    H262997   2.271   2.579   5.973 -0.8824 -0.6764 -0.2888
13836TIP3   OH262998   6.548   4.785   2.767  0.1052 -0.3971 -0.0190
13836TIP3    H162999   6.484   4.831   2.714  1.6824 -0.5012 -2.0871
13836TIP3    H263000   6.516   4.694   2.770 -1.0142  0.0125  0.8920
13837TIP3   OH263001   5.463   3.841   3.786  0.4372  0.3866  0.2643
13837TIP3    H163002   5.472   3.902   3.713  0.6698 -0.6993 -0.6279
13837TIP3    H263003   5.552   3.809   3.802  0.0474 -1.1907 -0.5793
13838TIP3   OH263004   2.250   0.851   3.332 -0.4355  0.6420  0.1044
13838TIP3    H163005   2.344   0.869   3.330 -0.2925 -0.0327  0.7505
13838TIP3    H263006   2.242   0.770   3.382 -1.2090 -0.2963 -1.5110
13839TIP3   OH263007   3.473   5.525   1.561  0.0873 -0.0349 -0.2767
13839TIP3    H163008   3.461   5.491   1.649  0.6269  1.3969  0.3506
13839TIP3    H263009   3.385   5.554   1.534  0.3589  1.7774  0.7324
13840TIP3   OH263010   1.196   2.787   2.150  0.1318 -1.1918  0.3072
13840TIP3    H163011   1.268   2.796   2.213  0.7372 -2.7444 -0.1105
13840TIP3    H263012   1.129   2.737   2.196 -0.2576 -0.6272  0.3590
13841TIP3   OH263013   5.848   2.152  15.453  0.9238  0.1969 -0.0614
13841TIP3    H163014   5.777   2.138  15.389  0.4428 -1.4996  0.8094
13841TIP3    H263015   5.827   2.092  15.525  3.4870 -0.6651  0.0105
13842TIP3   OH263016   3.863   0.685  15.224 -0.0986  0.1996 -0.3863
13842TIP3    H163017   3.894   0.755  15.281 -1.2589  0.6718 -0.3144
13842TIP3    H263018   3.926   0.682  15.152  1.0633 -0.0246  0.6329
13843TIP3   OH263019   3.052   2.582  15.456  0.1742  0.1202 -0.6352
13843TIP3    H163020   3.043   2.487  15.449 -0.9550  0.1638  0.1394
13843TIP3    H263021   3.123   2.604  15.395 -0.2557 -1.0852 -1.5760
13844TIP3   OH263022   4.557   2.968  16.140  0.5918 -0.0937 -0.3618
13844TIP3    H163023   4.468   2.957  16.107  0.5184 -0.3326 -0.0857
13844TIP3    H263024   4.553   3.045  16.196  0.2623 -0.8562  0.6856
13845TIP3   OH263025   4.122   4.042  11.986 -0.3238  0.5502 -0.2297
13845TIP3    H163026   4.188   3.998  12.040 -0.4235 -1.7817 -1.9240
13845TIP3    H263027   4.151   4.134  11.984  1.4884  0.0526  1.0629
13846TIP3   OH263028   6.106   6.805   5.672  0.0245 -0.0479  0.4633
13846TIP3    H163029   6.178   6.747   5.696 -1.1468 -1.1472  1.4497
13846TIP3    H263030   6.118   6.821   5.578  0.8658 -1.2093  0.3585
13847TIP3   OH263031   3.097   1.099   5.041 -0.1873 -0.0718 -0.0432
13847TIP3    H163032   3.031   1.090   5.110  0.1235  0.5170  0.3309
13847TIP3    H263033   3.059   1.161   4.979  1.1424  2.4220  1.5493
13848TIP3   OH263034   3.559   5.207   5.102 -0.0093  0.1766 -0.4864
13848TIP3    H163035   3.645   5.180   5.069  0.5356  1.0924  0.1777
13848TIP3    H263036   3.548   5.296   5.068 -1.6173 -0.6775 -2.3254
13849TIP3   OH263037   0.146   5.981   2.042 -0.0541  0.1044  0.2269
13849TIP3    H163038   0.237   5.985   2.014  0.5157 -0.4001  1.9557
13849TIP3    H263039   0.103   5.929   1.974  0.7050  1.2325 -1.1514
13850TIP3   OH263040   1.268   5.253  14.651 -0.1036  0.1275  0.0795
13850TIP3    H163041   1.239   5.163  14.638 -3.0172  0.8222  1.1077
13850TIP3    H263042   1.264   5.293  14.564 -1.2474 -0.1267 -0.0029
13851TIP3   OH263043   6.353   4.892  16.577  0.9788 -0.4048  0.2889
13851TIP3    H163044   6.329   4.890  16.670  1.3995 -1.6103  0.3710
13851TIP3    H263045   6.412   4.818  16.566  3.4728  1.5770 -0.2381
13852TIP3   OH263046   6.623   2.100   2.945 -0.0657 -0.0760  0.6728
13852TIP3    H163047   6.709   2.142   2.952  0.6370 -1.2749 -0.6519
13852TIP3    H263048   6.562   2.173   2.936  0.7504  0.8103  2.0777
13853TIP3   OH263049   1.418   6.382  12.680  0.6905 -0.4863 -0.2749
13853TIP3    H163050   1.409   6.289  12.702 -0.1902 -0.2460  0.4170
13853TIP3    H263051   1.422   6.384  12.585 -0.4301 -1.1311 -0.3387
13854TIP3   OH263052   0.980   3.932  16.084 -0.6654  0.2793 -0.0006
13854TIP3    H163053   0.969   4.027  16.093  0.0916  0.4688 -0.9198
13854TIP3    H263054   1.000   3.920  15.991 -0.1577 -0.7182  0.2372
13855TIP3   OH263055   3.974   2.308   4.725 -0.3383 -0.2654 -0.3495
13855TIP3    H163056   3.946   2.381   4.670 -0.7104 -1.5654 -1.9210
13855TIP3    H263057   3.895   2.256   4.738  0.2683 -1.2566 -0.5953
13856TIP3   OH263058   5.443   6.766  14.528  0.2927 -0.6427  0.3123
13856TIP3    H163059   5.475   6.717  14.452 -0.3603 -0.7808  0.1248
13856TIP3    H263060   5.356   6.729  14.545  0.0848 -0.0208  0.5965
13857TIP3   OH263061   3.455   5.431   5.297  0.0925 -0.3800 -0.2243
13857TIP3    H163062   3.383   5.410   5.238 -0.6586  1.3257  0.0552
13857TIP3    H263063   3.467   5.526   5.289  0.8563 -0.3132  1.3412
13858TIP3   OH263064   6.437   1.885   0.971 -0.5073  0.3634 -0.0852
13858TIP3    H163065   6.396   1.909   0.888  1.0754  1.1844 -0.6397
13858TIP3    H263066   6.526   1.861   0.949 -0.0229  0.7238  1.3819
13859TIP3   OH263067   5.382   4.729   0.894  0.0699 -0.3174  0.3315
13859TIP3    H163068   5.347   4.675   0.823 -0.6477  0.1003  0.3615
13859TIP3    H263069   5.379   4.818   0.859  1.7537 -0.3393  0.0805
13860TIP3   OH263070   0.478   6.691  15.346  0.0819  0.4321 -0.5877
13860TIP3    H163071   0.529   6.706  15.425 -0.5155 -0.2422 -0.0771
13860TIP3    H263072   0.395   6.734  15.362  0.0306  0.4670 -0.9341
13861TIP3   OH263073   1.315   6.686   1.392 -0.1889  0.6839 -0.2738
13861TIP3    H163074   1.234   6.638   1.376 -0.8870  1.1577  1.8027
13861TIP3    H263075   1.288   6.776   1.408  0.7403  0.8139  0.6019
13862TIP3   OH263076   4.860   0.977   1.062  0.2494  0.4609  0.2453
13862TIP3    H163077   4.889   1.030   1.136 -0.5538  2.3779 -0.7868
13862TIP3    H263078   4.899   1.018   0.985  0.3812 -1.0092 -0.5080
13863TIP3   OH263079   5.406   5.079  15.732 -0.3466  0.1068  0.3503
13863TIP3    H163080   5.365   5.017  15.670  2.0089  0.5750 -1.7731
13863TIP3    H263081   5.333   5.132  15.764 -1.4904  1.0331 -3.4337
13864TIP3   OH263082   0.051   1.708   2.707 -0.1689  0.3037  0.5262
13864TIP3    H163083   0.087   1.775   2.650 -0.8273  0.2634  0.0562
13864TIP3    H263084   0.016   1.756   2.782  0.1292  0.4117  0.5936
13865TIP3   OH263085   4.879   1.823  16.802  0.2737  0.1517  0.3531
13865TIP3    H163086   4.862   1.917  16.808  0.9310  0.4030 -1.5856
13865TIP3    H263087   4.959   1.816  16.750  0.8640 -1.4375  1.4306
13866TIP3   OH263088   5.944   0.632   2.061  0.0410  0.1768 -0.2735
13866TIP3    H163089   5.963   0.543   2.090  0.7960  0.2128 -0.6378
13866TIP3    H263090   5.867   0.658   2.112  1.0446  0.0604  1.3412
13867TIP3   OH263091   4.674   3.477  12.837 -0.2361  0.2176  0.3311
13867TIP3    H163092   4.696   3.391  12.802  4.0366  0.4092  2.1115
13867TIP3    H263093   4.681   3.536  12.762 -1.0147 -0.6646 -0.4530
13868TIP3   OH263094   2.040   4.030  14.135 -0.2308 -0.3514 -0.2761
13868TIP3    H163095   2.132   4.008  14.149 -0.6761 -1.6171  0.7545
13868TIP3    H263096   1.992   3.954  14.169 -1.6995  0.8084  0.2739
13869TIP3   OH263097   0.688   2.899   4.722 -0.5703 -0.5314  0.0252
13869TIP3    H163098   0.593   2.904   4.729 -0.8266 -2.3293 -1.6958
13869TIP3    H263099   0.706   2.805   4.717  1.2523 -0.1847 -0.2316
13870TIP3   OH263100   1.036   6.068   2.741  0.3041 -0.2290  0.4398
13870TIP3    H163101   1.018   6.027   2.656 -0.1270 -0.3776  0.6007
13870TIP3    H263102   1.003   6.157   2.732 -0.4693 -0.4843  0.7142
13871TIP3   OH263103   2.354   4.635   1.171  0.1694  0.4130  0.2788
13871TIP3    H163104   2.389   4.722   1.188  0.4105 -0.1746  2.8952
13871TIP3    H263105   2.398   4.578   1.233 -0.6839 -1.4376 -0.7623
13872TIP3   OH263106   5.012   0.200  12.480  0.4609  0.3134  0.4037
13872TIP3    H163107   5.094   0.178  12.525  0.7178  0.7472  0.1534
13872TIP3    H263108   5.013   0.295  12.474 -0.9844  0.4621  2.1158
13873TIP3   OH263109   0.499   1.339  11.292 -0.2067  0.0983 -0.2694
13873TIP3    H163110   0.522   1.339  11.199 -0.1027 -0.2220 -0.2448
13873TIP3    H263111   0.578   1.307  11.336 -0.2614  0.2316 -0.0725
13874TIP3   OH263112   0.443   2.176  11.615 -0.1075 -0.1673 -0.0181
13874TIP3    H163113   0.405   2.090  11.594 -1.1771  0.0277  1.0971
13874TIP3    H263114   0.495   2.161  11.694  0.8370 -0.0723 -0.6076
13875TIP3   OH263115   1.082   1.170   4.463 -0.5720  0.1080  0.0812
13875TIP3    H163116   1.176   1.168   4.446 -0.0491 -0.6301  2.8407
13875TIP3    H263117   1.043   1.136   4.383  1.4160  1.6325 -1.5956
13876TIP3   OH263118   1.450   5.852  12.184  0.2231  0.3305  0.2691
13876TIP3    H163119   1.410   5.853  12.097 -0.4230  1.5665  0.5721
13876TIP3    H263120   1.530   5.799  12.173 -0.7043 -0.9167 -0.6768
13877TIP3   OH263121   0.375   0.502   2.156  0.7394  0.0347 -0.2974
13877TIP3    H163122   0.351   0.455   2.236  0.2626  0.1884 -0.3534
13877TIP3    H263123   0.432   0.573   2.187  0.3716  0.2313 -0.0703
13878TIP3   OH263124   1.676   2.119   4.364 -0.0793  0.1135 -0.0544
13878TIP3    H163125   1.606   2.098   4.302 -0.9404  0.1296  0.8976
13878TIP3    H263126   1.751   2.140   4.309 -1.1424  1.2211 -1.1042
13879TIP3   OH263127   3.204   1.415   2.220  0.3228  0.6115 -0.2413
13879TIP3    H163128   3.224   1.372   2.303 -2.2028  0.4328  0.2996
13879TIP3    H263129   3.112   1.394   2.203  0.4661  1.6279 -2.4967
13880TIP3   OH263130   4.093   2.984   4.816  0.3593 -0.1112  0.1312
13880TIP3    H163131   4.049   2.998   4.732  2.2683 -1.0648 -1.0569
13880TIP3    H263132   4.095   3.071   4.856 -0.6501  0.3376 -0.7571
13881TIP3   OH263133   6.449   0.550  14.550 -0.8280 -1.1181  0.5724
13881TIP3    H163134   6.535   0.565  14.510 -0.6688  1.5366  1.7536
13881TIP3    H263135   6.447   0.457  14.570  1.1660 -1.4981 -0.8912
13882TIP3   OH263136   4.615   1.478   5.368 -0.2519 -0.6524  0.4177
13882TIP3    H163137   4.560   1.460   5.292  0.2433 -0.2210 -0.0536
13882TIP3    H263138   4.693   1.424   5.355 -1.2751 -2.5500  1.9395
13883TIP3   OH263139   4.916   2.586   5.749  0.0005  0.0757  0.5286
13883TIP3    H163140   4.980   2.595   5.819  1.2209  2.1609 -0.7710
13883TIP3    H263141   4.911   2.492   5.732  2.3410 -0.1591  1.0156
13884TIP3   OH263142   3.894   4.554  11.634  0.8365 -0.1424  0.3011
13884TIP3    H163143   3.928   4.496  11.702 -1.0040 -0.5571  0.8800
13884TIP3    H263144   3.915   4.642  11.666  0.4166 -0.3529  1.1644
13885TIP3   OH263145   5.060   1.426   2.513  0.4090 -0.0761  0.4060
13885TIP3    H163146   5.099   1.362   2.454 -1.5172 -0.6993 -0.2364
13885TIP3    H263147   5.055   1.381   2.598 -0.7694 -0.7367  0.0009
13886TIP3   OH263148   1.438   3.376   2.614  0.3209 -0.5066 -0.1134
13886TIP3    H163149   1.454   3.388   2.707 -0.6440 -1.6801  0.2235
13886TIP3    H263150   1.404   3.460   2.583  1.3860  0.1219  0.4193
13887TIP3   OH263151   5.549   3.733  17.218 -0.0462 -0.2832  0.0561
13887TIP3    H163152   5.559   3.799  17.150 -2.3384  1.1765  1.0816
13887TIP3    H263153   5.571   3.779  17.300 -0.7153 -1.0395  0.6682
13888TIP3   OH263154   4.815   4.074   2.990  0.2300 -0.1221  0.0388
13888TIP3    H163155   4.817   4.124   3.072  1.3016 -0.3075  0.1330
13888TIP3    H263156   4.899   4.092   2.949 -0.8363  1.0350 -1.6749
13889TIP3   OH263157   3.482   6.485  15.544 -0.3044  0.0028 -0.0343
13889TIP3    H163158   3.430   6.463  15.621 -1.6528  1.8846 -0.3931
13889TIP3    H263159   3.560   6.529  15.580 -1.2315  1.4450  0.2222
13890TIP3   OH263160   2.830   1.164  14.014  0.3523 -0.1981  0.1158
13890TIP3    H163161   2.793   1.244  13.977 -0.6688 -1.6908 -2.2273
13890TIP3    H263162   2.919   1.159  13.978  0.6033  0.1692  0.6936
13891TIP3   OH263163   4.140   3.676   3.142  0.9448 -0.1306 -0.0948
13891TIP3    H163164   4.212   3.702   3.085 -0.2528  2.1632 -0.6308
13891TIP3    H263165   4.134   3.747   3.206 -1.9729  0.6215 -1.1438
13892TIP3   OH263166   1.952   5.932  11.975  0.3728  0.2830 -0.1448
13892TIP3    H163167   1.936   5.847  12.015 -1.3808  0.1535 -1.0514
13892TIP3    H263168   1.865   5.962  11.948  1.3192  0.9870 -2.5616
13893TIP3   OH263169   5.894   0.081  13.168 -0.6248  0.3258 -0.5578
13893TIP3    H163170   5.910   0.130  13.088 -0.0360  1.1646  0.0601
13893TIP3    H263171   5.826   0.130  13.214 -0.2352  0.4266 -0.0717
13894TIP3   OH263172   4.829   5.711   0.528  0.0803 -0.0877  0.5202
13894TIP3    H163173   4.759   5.693   0.590 -0.9506  3.2570  0.3967
13894TIP3    H263174   4.836   5.806   0.526  2.0828 -0.2347 -2.3265
13895TIP3   OH263175   5.680   2.278  11.377 -0.5742  0.0105 -0.5797
13895TIP3    H163176   5.641   2.252  11.294  0.9451 -0.7656 -1.0766
13895TIP3    H263177   5.641   2.220  11.441 -1.3719  0.2725 -0.8158
13896TIP3   OH263178   5.907   3.785  11.921  0.1316  0.2839  0.2989
13896TIP3    H163179   5.826   3.734  11.927  0.1006  0.4840  1.7056
13896TIP3    H263180   5.896   3.855  11.985  1.8737 -0.3202  1.2849
13897TIP3   OH263181   3.541   0.256  14.873  0.0118 -0.1094 -0.0820
13897TIP3    H163182   3.630   0.229  14.895  0.2953  1.1611  0.3426
13897TIP3    H263183   3.526   0.335  14.924 -0.4739  1.0850 -2.0290
13898TIP3   OH263184   0.037   2.505   2.440  0.0493 -0.0801 -0.1550
13898TIP3    H163185   0.043   2.526   2.533  3.3984  2.4668 -0.8564
13898TIP3    H263186  -0.020   2.573   2.403 -2.8046 -2.1607  0.2635
13899TIP3   OH263187   3.351   1.112   2.134 -0.4784 -0.2421 -0.1979
13899TIP3    H163188   3.303   1.159   2.064  0.4700 -0.6222 -1.1187
13899TIP3    H263189   3.423   1.171   2.156 -0.5350 -0.3102  0.1581
13900TIP3   OH263190   6.701   5.580   5.202 -0.2009 -0.1529  0.2303
13900TIP3    H163191   6.635   5.639   5.239 -0.2121  0.8053 -1.2900
13900TIP3    H263192   6.739   5.537   5.279 -2.8901 -1.0822  1.0959
13901TIP3   OH263193   6.637   5.647  16.358 -0.1789 -0.0148 -0.3108
13901TIP3    H163194   6.609   5.569  16.312 -2.4460  0.1163  0.7838
13901TIP3    H263195   6.556   5.693  16.381  1.0285  1.7737  0.5777
13902TIP3   OH263196   1.735   0.760  13.858 -0.1523  0.2571 -0.1549
13902TIP3    H163197   1.803   0.727  13.917  1.6915  1.3243 -1.6391
13902TIP3    H263198   1.735   0.855  13.872 -0.0260  0.4681 -1.5040
13903TIP3   OH263199   6.264   0.435   3.947  0.4747 -0.3732 -0.2781
13903TIP3    H163200   6.341   0.457   3.895  0.9259 -1.4671 -0.0822
13903TIP3    H263201   6.280   0.476   4.032  0.1400  0.6744 -0.7178
13904TIP3   OH263202   4.876   2.521  16.883  0.4361 -0.0842 -0.2523
13904TIP3    H163203   4.834   2.437  16.866 -3.5230  1.6823  0.4604
13904TIP3    H263204   4.882   2.527  16.978 -1.1090  1.2856 -0.2287
13905TIP3   OH263205   4.443   3.922   6.049  0.1047 -0.3183 -0.2848
13905TIP3    H163206   4.518   3.959   6.002  0.1977 -0.9590 -0.6503
13905TIP3    H263207   4.481   3.857   6.108 -0.0858 -0.0697  0.1121
13906TIP3   OH263208   5.255   3.396   4.496  0.0992  0.4754  0.3684
13906TIP3    H163209   5.225   3.431   4.413  0.8744  0.4298  0.0650
13906TIP3    H263210   5.215   3.309   4.503  1.1339 -0.0943 -0.6071
13907TIP3   OH263211   6.209   0.721  12.985 -0.3406  1.1304  0.1525
13907TIP3    H163212   6.149   0.795  12.991 -2.5231 -0.6146  0.8083
13907TIP3    H263213   6.212   0.686  13.074 -1.9998 -1.5101 -0.7483
13908TIP3   OH263214   4.552   1.613  13.602 -0.5766  0.1029 -0.0115
13908TIP3    H163215   4.464   1.637  13.630 -0.9814 -0.7990 -0.4787
13908TIP3    H263216   4.544   1.597  13.508 -0.3679 -1.9291  0.2809
13909TIP3   OH263217   0.010   0.806   0.660 -0.5312 -0.0993 -0.3526
13909TIP3    H163218   0.068   0.878   0.637 -0.6181 -0.0518 -0.4246
13909TIP3    H263219   0.040   0.777   0.746 -1.2435  0.8002  0.2096
13910TIP3   OH263220   5.069   6.424  13.738  0.1026 -0.4838  0.1324
13910TIP3    H163221   4.982   6.386  13.729 -0.1424  0.1362 -0.1200
13910TIP3    H263222   5.070   6.498  13.677  1.0373 -0.8993 -0.3594
13911TIP3   OH263223   5.987   1.583   5.356 -0.0824  0.0897  0.0621
13911TIP3    H163224   6.046   1.552   5.287  0.5655  2.6694 -0.6054
13911TIP3    H263225   5.899   1.566   5.322  0.2443  0.5936 -1.0718
13912TIP3   OH263226   3.143   1.774   5.102 -0.4108  0.6505  0.6216
13912TIP3    H163227   3.174   1.830   5.031  0.8643 -0.0045  0.6547
13912TIP3    H263228   3.146   1.686   5.066 -0.6481  0.4099  1.1881
13913TIP3   OH263229   1.007   0.995  12.079  0.2766  0.1740  0.1026
13913TIP3    H163230   0.985   1.016  12.169  0.6810  0.8404  0.0510
13913TIP3    H263231   0.923   0.976  12.037  0.1788 -1.1185  0.8598
13914TIP3   OH263232   1.479   6.093  13.740  0.1878 -0.5403 -0.2196
13914TIP3    H163233   1.554   6.063  13.689 -2.0099 -1.8885 -2.8303
13914TIP3    H263234   1.406   6.093  13.677 -2.5583 -1.8248  2.8046
13915TIP3   OH263235   0.026   2.748  12.308 -1.0020 -0.1223  0.0069
13915TIP3    H163236  -0.060   2.712  12.331 -0.6303 -2.2036 -1.7281
13915TIP3    H263237   0.065   2.683  12.250  2.0888  0.4209  1.3454
13916TIP3   OH263238   0.734   5.475   3.541  0.5083  0.1139 -0.0086
13916TIP3    H163239   0.658   5.446   3.491  1.1379 -0.4753 -0.6215
13916TIP3    H263240   0.797   5.505   3.476  0.9647  0.2168  0.4701
13917TIP3   OH263241   4.211   5.574  12.994  0.4220 -0.3768 -0.3481
13917TIP3    H163242   4.239   5.522  13.070  0.9469 -0.1927 -0.4129
13917TIP3    H263243   4.292   5.593  12.947  0.4057  1.5868  0.3769
13918TIP3   OH263244   6.446   0.334   0.072 -0.5257  0.0866 -0.0688
13918TIP3    H163245   6.356   0.367   0.077 -0.3345  1.0914 -2.4981
13918TIP3    H263246   6.453   0.298  -0.016  1.0958 -1.0917  0.5349
13919TIP3   OH263247   6.559   3.634  11.436  0.0631 -0.1154 -0.0727
13919TIP3    H163248   6.568   3.658  11.344 -0.4417 -0.5594 -0.2367
13919TIP3    H263249   6.505   3.555  11.436 -1.6279  1.0196  0.7404
13920TIP3   OH263250   4.087   0.515   4.865  0.3499  0.0641 -0.2724
13920TIP3    H163251   4.019   0.458   4.827  0.3098 -0.3662  0.4199
13920TIP3    H263252   4.046   0.602   4.868  0.2648  0.0476 -0.9715
13921TIP3   OH263253   5.958   5.682   2.683 -0.0880  0.4666  0.1144
13921TIP3    H163254   5.934   5.604   2.633  1.7112  0.6374 -1.0318
13921TIP3    H263255   6.022   5.650   2.747 -1.2745  0.5316  1.3478
13922TIP3   OH263256   6.052   6.391  12.791  0.2062 -0.2609  0.1630
13922TIP3    H163257   6.087   6.363  12.707 -0.3218  1.1133 -0.5314
13922TIP3    H263258   6.110   6.351  12.856  0.2345 -1.8659 -0.8198
13923TIP3   OH263259   0.740   2.390   5.675 -0.1636  0.3944  0.0554
13923TIP3    H163260   0.750   2.308   5.627  0.4047  0.4191  0.1342
13923TIP3    H263261   0.741   2.364   5.767 -0.5630  0.4269  0.0721
13924TIP3   OH263262   3.773   3.299  15.477  0.3851  0.3964  0.2557
13924TIP3    H163263   3.814   3.384  15.463  1.0550 -0.1336 -0.9964
13924TIP3    H263264   3.837   3.250  15.529  1.8435 -0.7827 -2.5398
13925TIP3   OH263265   0.085   0.050  13.789 -0.4987  0.0823  0.0356
13925TIP3    H163266   0.014   0.015  13.735 -2.2267  0.5187  1.9704
13925TIP3    H263267   0.105  -0.020  13.851 -0.9050  0.8471  1.0433
13926TIP3   OH263268   6.131   0.547   5.085  0.3335  0.2760  0.8131
13926TIP3    H163269   6.130   0.545   4.989 -0.2824 -2.6495  0.8393
13926TIP3    H263270   6.101   0.636   5.107 -2.4048  0.0583 -1.6807
13927TIP3   OH263271   3.397   3.856  12.516 -0.3349 -0.4517  0.0271
13927TIP3    H163272   3.322   3.865  12.574 -1.1330 -0.9155 -0.9039
13927TIP3    H263273   3.433   3.770  12.537 -0.9179 -0.8282 -0.4967
13928TIP3   OH263274   4.335   1.134   5.694 -0.2724 -0.3481  0.1175
13928TIP3    H163275   4.296   1.157   5.778  0.9922  0.4702  0.5012
13928TIP3    H263276   4.407   1.197   5.683  0.3047 -1.1894 -1.0248
13929TIP3   OH263277   0.032   0.962   3.458 -0.0931  0.2181  0.5303
13929TIP3    H163278  -0.015   1.045   3.462  0.4423  0.5563 -0.1493
13929TIP3    H263279   0.062   0.947   3.547 -1.2012  0.1663  0.9009
13930TIP3   OH263280   5.709   0.784   2.722  0.5032  0.0890  0.2695
13930TIP3    H163281   5.662   0.858   2.759  0.0310  0.1487 -0.4396
13930TIP3    H263282   5.711   0.719   2.793  2.0679  1.2652  1.3226
13931TIP3   OH263283   6.764   0.014  14.236 -0.4208  0.2953 -0.5690
13931TIP3    H163284   6.828   0.008  14.306 -0.0654 -0.3944 -0.9558
13931TIP3    H263285   6.764   0.107  14.212 -2.1968  0.9715  1.8690
13932TIP3   OH263286   3.548   1.142  13.463  0.2932 -0.2478 -0.3269
13932TIP3    H163287   3.537   1.107  13.375  0.8443  1.0212 -0.9278
13932TIP3    H263288   3.621   1.093  13.500  0.2488 -0.5833 -0.6868
13933TIP3   OH263289   5.252   2.831  10.776 -0.1494 -0.2472  0.0100
13933TIP3    H163290   5.196   2.854  10.850  0.3133  0.1897  0.2339
13933TIP3    H263291   5.234   2.739  10.759  0.4408 -0.6185  1.2881
13934TIP3   OH263292   5.881   6.777  12.331  0.0349 -0.0946  0.1287
13934TIP3    H163293   5.946   6.824  12.383 -1.1819  2.1968 -0.3865
13934TIP3    H263294   5.807   6.765  12.390 -0.2077 -0.0926 -0.1709
13935TIP3   OH263295   0.385   1.860  11.847 -0.2365  0.1749  0.4651
13935TIP3    H163296   0.322   1.920  11.886 -0.3466  0.4937 -0.1946
13935TIP3    H263297   0.427   1.817  11.921 -1.3627 -0.1707  0.9009
13936TIP3   OH263298   4.224   3.225  12.141 -0.1928  0.4878 -0.0266
13936TIP3    H163299   4.142   3.257  12.105 -0.6637 -0.7716 -0.0931
13936TIP3    H263300   4.215   3.130  12.143  0.6525  0.4087  1.4277
13937TIP3   OH263301   5.234   6.299  13.210 -0.8639 -0.4534 -0.0940
13937TIP3    H163302   5.237   6.330  13.119 -0.4427 -2.3652 -0.7509
13937TIP3    H263303   5.320   6.324  13.246 -1.2963  0.9422  0.0171
13938TIP3   OH263304   1.016   4.237  10.494 -0.3156  0.0078  0.0223
13938TIP3    H163305   1.047   4.205  10.579 -3.0887  0.8200  1.4111
13938TIP3    H263306   1.039   4.330  10.495 -0.6960  0.1022  0.0671
13939TIP3   OH263307   3.691   3.913   2.547  0.5194  0.3379  0.8279
13939TIP3    H163308   3.723   3.997   2.579  0.4829 -0.6027  3.4756
13939TIP3    H263309   3.746   3.893   2.471  1.8146  1.8264  1.3650
13940TIP3   OH263310   3.625   4.748   1.158 -0.2167  0.7196 -0.2792
13940TIP3    H163311   3.554   4.811   1.171  0.3443  1.3754 -0.3267
13940TIP3    H263312   3.684   4.763   1.232 -0.1634  0.1322 -0.2035
13941TIP3   OH263313   5.316   0.409   2.177  0.4992 -0.4793  0.0879
13941TIP3    H163314   5.267   0.422   2.096  0.0655  5.2498  1.0369
13941TIP3    H263315   5.249   0.396   2.244  0.7212 -1.8973  0.0479
13942TIP3   OH263316   0.059   6.706   4.190  0.2315  0.2878  0.0409
13942TIP3    H163317   0.037   6.614   4.203  3.3736 -0.5405 -0.2427
13942TIP3    H263318   0.085   6.737   4.277 -2.9100  1.5660  0.6037
13943TIP3   OH263319   4.826   2.090  16.194  0.2727  1.1925  0.6333
13943TIP3    H163320   4.780   2.057  16.271 -0.4420  0.6596 -0.0124
13943TIP3    H263321   4.758   2.128  16.139  0.2622 -1.4569 -1.2938
13944TIP3   OH263322   6.617   2.619  12.401 -0.2303  0.0432 -0.1364
13944TIP3    H163323   6.598   2.543  12.456 -2.6431  0.1500 -0.8030
13944TIP3    H263324   6.575   2.600  12.318  1.3465  0.9852 -1.1738
13945TIP3   OH263325   2.817   1.220  13.118  0.1588  0.1194  0.2586
13945TIP3    H163326   2.821   1.287  13.187 -0.2381  1.1559 -0.6964
13945TIP3    H263327   2.756   1.257  13.054  0.8961 -0.6235 -0.8658
13946TIP3   OH263328   0.284   1.632  13.028 -0.2005 -0.0585 -0.2988
13946TIP3    H163329   0.254   1.549  13.065 -1.7961 -0.5804 -2.6478
13946TIP3    H263330   0.313   1.683  13.104 -1.9983 -1.6339  1.5109
13947TIP3   OH263331   6.569   1.146  13.429 -0.9737 -0.0906 -0.1701
13947TIP3    H163332   6.578   1.216  13.365 -0.2871 -0.7061 -0.7561
13947TIP3    H263333   6.647   1.154  13.484 -0.7573 -0.5517 -0.4044
13948TIP3   OH263334   4.740   5.723   2.520 -0.3141 -0.2091 -0.2944
13948TIP3    H163335   4.824   5.743   2.560  0.6103 -2.2909 -1.1069
13948TIP3    H263336   4.676   5.776   2.569  1.4197  1.2250  0.4614
13949TIP3   OH263337   6.665   2.032  13.995 -0.0889  0.0306 -0.3760
13949TIP3    H163338   6.656   2.065  14.085 -0.0802  0.0899 -0.3963
13949TIP3    H263339   6.631   1.943  13.999 -0.6930  0.2559 -0.4548
13950TIP3   OH263340   2.679   4.659  13.530  0.2593  0.1609  0.1590
13950TIP3    H163341   2.641   4.747  13.528  0.0357  0.1091  1.8064
13950TIP3    H263342   2.759   4.667  13.477 -1.5701  0.4458 -2.6819
13951TIP3   OH263343   6.553   3.451   0.868  0.3513 -0.0094  0.3740
13951TIP3    H163344   6.524   3.509   0.797 -0.0625 -1.9506 -1.0993
13951TIP3    H263345   6.482   3.388   0.878  1.3788 -1.0925  0.9921
13952TIP3   OH263346   4.541   4.894   5.036 -0.5433  0.2292 -0.3725
13952TIP3    H163347   4.604   4.842   4.986 -2.2949 -0.9721 -1.3947
13952TIP3    H263348   4.538   4.978   4.991  0.5536  0.4215 -0.1158
13953TIP3   OH263349   1.909   0.151   0.691 -0.3245 -0.8567  1.0341
13953TIP3    H163350   1.978   0.192   0.639 -1.5686 -0.6139 -0.4576
13953TIP3    H263351   1.937   0.162   0.782 -0.6054  3.3888  0.7057
13954TIP3   OH263352   4.169   4.297  12.963 -0.4175  0.5251 -0.0044
13954TIP3    H163353   4.219   4.234  13.015 -2.8153 -0.7932  0.7944
13954TIP3    H263354   4.174   4.263  12.874  0.8501  0.9112 -0.0905
13955TIP3   OH263355   0.356   5.831   3.010 -0.0421 -1.1276  0.1878
13955TIP3    H163356   0.284   5.804   3.067  0.5014 -1.6459  0.6403
13955TIP3    H263357   0.435   5.816   3.063  0.3239  0.6039  0.1529
13956TIP3   OH263358   0.781   5.595   5.508  0.5310 -0.2992 -0.5667
13956TIP3    H163359   0.757   5.542   5.432 -1.6896 -0.6728  0.3797
13956TIP3    H263360   0.698   5.627   5.543  1.6988  1.9365  0.2307
13957TIP3   OH263361   0.239   0.029  16.286 -0.1726  0.5628 -0.4261
13957TIP3    H163362   0.262   0.010  16.377 -0.2288  0.8219 -0.3590
13957TIP3    H263363   0.286  -0.037  16.235 -0.4052  0.2062 -0.1879
13958TIP3   OH263364   1.175   5.112  11.967 -0.2941 -0.3013 -0.5744
13958TIP3    H163365   1.216   5.026  11.962  2.7532  1.0850 -0.2417
13958TIP3    H263366   1.128   5.111  12.050 -1.3113 -2.0433 -1.1331
13959TIP3   OH263367   3.480   1.642  13.958 -0.0946 -0.0934  0.3311
13959TIP3    H163368   3.572   1.633  13.984  0.3837 -0.1796 -1.3693
13959TIP3    H263369   3.482   1.701  13.883 -1.4069 -0.2828  0.1505
13960TIP3   OH263370   4.074   2.776   0.697 -0.6662  0.9727  0.3477
13960TIP3    H163371   4.136   2.812   0.760 -1.1741  0.2126  1.3110
13960TIP3    H263372   3.999   2.835   0.702  0.2211  2.2639 -1.2951
13961TIP3   OH263373   0.026   1.884  15.400  0.6259 -0.2033 -0.4142
13961TIP3    H163374  -0.065   1.863  15.380  0.4823  0.7308 -0.7271
13961TIP3    H263375   0.059   1.805  15.444 -0.6549 -0.1254  0.7335
13962TIP3   OH263376   2.037   3.908  13.095  0.1541 -0.0703  0.1138
13962TIP3    H163377   2.041   3.941  13.185  0.9908 -0.8651  0.3869
13962TIP3    H263378   2.061   3.983  13.041  1.9752 -0.1705  0.7140
13963TIP3   OH263379   1.196   1.755   2.070  0.5965 -0.1339  0.3662
13963TIP3    H163380   1.181   1.849   2.081  0.1759  0.0273 -1.4821
13963TIP3    H263381   1.110   1.720   2.046  1.0811 -0.7396 -0.5165
13964TIP3   OH263382   3.340   6.814  14.121 -0.2086  0.0621  0.6727
13964TIP3    H163383   3.372   6.904  14.130 -0.2771  0.0022  1.6074
13964TIP3    H263384   3.390   6.777  14.048 -0.3095  0.9143  0.1730
13965TIP3   OH263385   5.225   4.859   0.021  0.4177  0.1314  0.0711
13965TIP3    H163386   5.158   4.881  -0.043  0.3588  1.8540  0.6823
13965TIP3    H263387   5.308   4.876  -0.024  0.3744  1.5397  0.4840
13966TIP3   OH263388   4.203   1.720   4.862  0.3219 -0.9859 -0.9867
13966TIP3    H163389   4.136   1.756   4.804  0.8262  0.1727 -0.8631
13966TIP3    H263390   4.274   1.694   4.804 -0.2977 -2.3783 -1.1334
13967TIP3   OH263391   0.680   4.460   5.731  0.4195  0.9049  0.3238
13967TIP3    H163392   0.752   4.509   5.770  0.4401 -0.6411  2.3295
13967TIP3    H263393   0.697   4.462   5.637  0.8082  4.0549  0.4248
13968TIP3   OH263394   5.372   0.290  16.311 -0.5242  0.4190 -0.5681
13968TIP3    H163395   5.311   0.334  16.251  0.1014  0.3496 -1.2558
13968TIP3    H263396   5.360   0.197  16.292  0.0133  0.4216 -0.9086
13969TIP3   OH263397   2.686   4.567   3.720 -0.1778  0.7623 -0.1405
13969TIP3    H163398   2.593   4.584   3.735  0.0885  0.6623  1.7483
13969TIP3    H263399   2.727   4.654   3.725 -0.1567  0.8174 -1.0555
13970TIP3   OH263400   4.711   0.551  16.875 -0.0157 -0.3277 -0.1276
13970TIP3    H163401   4.616   0.542  16.884  0.0663 -2.3114 -1.0127
13970TIP3    H263402   4.743   0.558  16.965 -1.0535  1.1237  0.1483
13971TIP3   OH263403   2.398   0.809  12.025 -0.5313  0.1233  0.5900
13971TIP3    H163404   2.410   0.899  12.053 -0.1697  0.1677  0.2958
13971TIP3    H263405   2.420   0.756  12.102 -2.0258  0.3221  1.1663
13972TIP3   OH263406   3.425   6.530  11.486 -0.0890 -0.2358  0.0820
13972TIP3    H163407   3.496   6.469  11.465  0.3802  0.2903  0.1073
13972TIP3    H263408   3.460   6.616  11.463 -1.1545 -0.0801 -1.0082
13973TIP3   OH263409   1.408   0.270   5.899  0.4728  0.0690  0.5603
13973TIP3    H163410   1.493   0.311   5.882 -0.0248  1.3861  1.2291
13973TIP3    H263411   1.366   0.267   5.813  1.1351 -0.4841  0.2442
13974TIP3   OH263412   2.191   4.428  12.141  0.1602 -0.0228  0.2058
13974TIP3    H163413   2.195   4.391  12.229  0.3912 -0.5676 -0.0305
13974TIP3    H263414   2.233   4.362  12.085  1.9837  1.2621 -0.0045
13975TIP3   OH263415   1.146   5.558  11.396 -0.0643 -0.0827 -0.0464
13975TIP3    H163416   1.211   5.583  11.331 -0.1617 -0.9350 -0.4815
13975TIP3    H263417   1.062   5.583  11.357 -0.0321  0.5721  0.3052
13976TIP3   OH263418   5.587   6.224   2.661 -0.0363 -0.4886 -0.4597
13976TIP3    H163419   5.664   6.171   2.679  0.4477  0.7107  1.1323
13976TIP3    H263420   5.524   6.163   2.622  1.9530 -1.3290 -2.5131
13977TIP3   OH263421   0.521   5.480  12.359  0.0873 -0.1895 -1.0307
13977TIP3    H163422   0.447   5.487  12.298  0.0144  0.0799 -0.9103
13977TIP3    H263423   0.501   5.543  12.429 -1.3856 -2.7326  0.9142
13978TIP3   OH263424   2.097   6.749  14.667  0.4069  0.2105 -0.1468
13978TIP3    H163425   2.135   6.768  14.581 -1.4040  1.1346 -0.7563
13978TIP3    H263426   2.012   6.709  14.647  0.5528 -0.8195  1.2135
13979TIP3   OH263427   6.165   6.166   3.072 -0.8501 -0.3844  0.2526
13979TIP3    H163428   6.112   6.229   3.121  2.3901  0.8580  2.2980
13979TIP3    H263429   6.164   6.087   3.125  0.8501  0.2430  1.2272
13980TIP3   OH263430   3.682   0.476   5.642  0.4447 -0.0782  0.5382
13980TIP3    H163431   3.731   0.499   5.721 -1.3755  2.3183  1.0120
13980TIP3    H263432   3.709   0.386   5.624  1.9693 -0.2046  3.0760
13981TIP3   OH263433   4.023   0.926   4.776  0.0132  0.2077 -0.5736
13981TIP3    H163434   3.949   0.910   4.834  0.1623  1.0784 -0.1287
13981TIP3    H263435   4.100   0.913   4.831  0.1556  1.0572 -0.5694
13982TIP3   OH263436   1.244   5.285  16.278 -0.0361  0.3362  0.5965
13982TIP3    H163437   1.205   5.365  16.314  0.6867  0.7297  0.5182
13982TIP3    H263438   1.338   5.296  16.293  0.0820 -0.4097  0.4028
13983TIP3   OH263439   2.151   4.991  16.563  0.3280  0.0449  0.3497
13983TIP3    H163440   2.065   5.015  16.527  1.2106  0.2036 -1.7584
13983TIP3    H263441   2.178   4.916  16.510  2.4609  1.4053 -0.5263
13984TIP3   OH263442   4.430   1.684  13.129 -0.1191 -0.2352 -0.4143
13984TIP3    H163443   4.377   1.649  13.057  0.7061  0.7776 -1.5456
13984TIP3    H263444   4.454   1.772  13.100 -0.6096  0.5617  1.5698
13985TIP3   OH263445   6.538   1.435  12.366  0.8591 -0.3432  0.3787
13985TIP3    H163446   6.460   1.433  12.310  1.7360 -2.0986 -0.8564
13985TIP3    H263447   6.548   1.527  12.391 -2.8276 -0.3831  2.3591
13986TIP3   OH263448   1.841   3.321  16.129 -0.1050  0.0370 -0.4293
13986TIP3    H163449   1.871   3.404  16.091 -0.1993  0.0968 -0.3738
13986TIP3    H263450   1.868   3.255  16.065  0.2761  0.0761 -0.3143
13987TIP3   OH263451   5.538   2.748  15.479 -0.0113  0.4224 -0.1037
13987TIP3    H163452   5.610   2.686  15.490 -0.9606 -0.7874 -0.6010
13987TIP3    H263453   5.508   2.734  15.389  0.3515  2.2541 -0.5281
13988TIP3   OH263454   0.610   5.935  15.356 -0.4284  0.2175  0.1814
13988TIP3    H163455   0.537   5.877  15.335  0.9574 -1.3559 -0.3958
13988TIP3    H263456   0.569   6.013  15.393 -2.5469  0.3488 -2.3011
13989TIP3   OH263457   1.095   1.920  16.624 -0.0568 -0.1245 -0.9542
13989TIP3    H163458   1.134   1.987  16.680 -1.3488 -1.6310  1.8483
13989TIP3    H263459   1.167   1.863  16.601  0.6521  1.0003 -1.5605
13990TIP3   OH263460   6.576   1.276   0.984 -0.0209  0.2442 -0.0281
13990TIP3    H163461   6.491   1.235   0.999 -0.9469  2.4409  0.8826
13990TIP3    H263462   6.584   1.341   1.054  1.9786  0.7349 -0.6857
13991TIP3   OH263463   4.181   6.042  11.774 -0.4582  0.7153 -0.6159
13991TIP3    H163464   4.157   6.127  11.737  0.5436  1.3964  0.2727
13991TIP3    H263465   4.196   6.060  11.867 -0.1116 -0.4121 -0.4480
13992TIP3   OH263466   6.371   5.036  14.903  0.0698 -0.2373 -0.3059
13992TIP3    H163467   6.325   5.090  14.967  0.8133 -0.3387  0.3158
13992TIP3    H263468   6.360   4.947  14.935  1.1964 -0.2161  0.1777
13993TIP3   OH263469   6.199   4.994  12.816 -0.2156 -0.2559 -0.4432
13993TIP3    H163470   6.154   4.909  12.820  0.0555 -0.3914 -0.1774
13993TIP3    H263471   6.252   4.996  12.897  1.2350 -0.6505 -1.3568
13994TIP3   OH263472   4.130   1.163  16.850 -0.0939 -0.5638  0.4818
13994TIP3    H163473   4.182   1.232  16.808 -0.4315  0.0775  1.0970
13994TIP3    H263474   4.066   1.138  16.783 -1.1554  1.0254  0.8740
13995TIP3   OH263475   5.947   3.743   4.158 -0.3259  0.8224  0.3601
13995TIP3    H163476   5.880   3.688   4.197  1.4499 -0.6200  1.4736
13995TIP3    H263477   5.942   3.724   4.064 -1.1773  0.3929  0.4904
13996TIP3   OH263478   1.083   5.527   2.602 -0.3836  0.1670 -0.3385
13996TIP3    H163479   1.151   5.467   2.572 -1.8385 -0.8687 -1.6863
13996TIP3    H263480   1.129   5.594   2.653  1.4147 -1.4315  0.1750
13997TIP3   OH263481   3.270   3.588  14.075  0.0991  0.3722 -0.5763
13997TIP3    H163482   3.219   3.666  14.097  0.6660  1.0381 -1.5863
13997TIP3    H263483   3.280   3.542  14.158 -3.1716 -0.4023 -0.5495
13998TIP3   OH263484   5.393   4.225   2.421 -0.0269 -0.6131 -0.5510
13998TIP3    H163485   5.407   4.255   2.511 -1.1093 -2.3544  0.2205
13998TIP3    H263486   5.339   4.294   2.382  1.2178  0.6083 -0.1557
13999TIP3   OH263487   2.515   3.528  14.053  0.3380 -0.0542 -0.3336
13999TIP3    H163488   2.586   3.570  14.101  0.8865 -0.5753 -0.6819
13999TIP3    H263489   2.525   3.559  13.963  0.6674 -0.8277 -0.5663
14000TIP3   OH263490   2.736   5.232  13.580  0.1065 -0.0246  0.0632
14000TIP3    H163491   2.788   5.151  13.576 -0.4752 -0.3601 -1.1379
14000TIP3    H263492   2.779   5.291  13.519 -0.5731 -0.1057 -0.5067
14001TIP3   OH263493   3.773   1.728  13.984 -0.1185  0.0225 -0.3905
14001TIP3    H163494   3.809   1.648  14.021  1.0431  1.2848  1.3185
14001TIP3    H263495   3.767   1.788  14.059 -1.8465  1.2208 -1.4568
14002TIP3   OH263496   4.865   4.520  14.282  0.2131 -0.1052 -0.1602
14002TIP3    H163497   4.822   4.436  14.303  1.0173 -0.6109 -0.5347
14002TIP3    H263498   4.842   4.577  14.355  1.6958 -1.3875  1.3191
14003TIP3   OH263499   6.797   0.358  15.812 -0.1055 -0.4310  0.8363
14003TIP3    H163500   6.868   0.311  15.767  0.3730  0.4960  0.6201
14003TIP3    H263501   6.813   0.450  15.793 -2.4660 -0.3176 -0.8124
14004TIP3   OH263502   1.988   4.681  16.527 -0.0819 -0.3514 -0.1565
14004TIP3    H163503   2.063   4.710  16.474  0.5426 -1.5108  0.0673
14004TIP3    H263504   1.920   4.661  16.464 -0.4747  1.4068 -0.3256
14005TIP3   OH263505   1.755   4.722   2.760  0.2453  0.0175  0.4213
14005TIP3    H163506   1.812   4.734   2.836 -0.2310 -0.6102  0.8905
14005TIP3    H263507   1.705   4.643   2.781 -0.2134  0.1034 -0.3456
14006TIP3   OH263508   1.210   5.712   1.258  0.2361  0.5849 -0.0430
14006TIP3    H163509   1.244   5.791   1.301  0.2731 -0.4297  1.8391
14006TIP3    H263510   1.121   5.736   1.233  0.7632  1.7371 -0.8996
14007TIP3   OH263511   3.276   6.781   0.867 -0.4127 -0.3305 -0.1343
14007TIP3    H163512   3.343   6.798   0.933 -0.5960  0.2632 -0.0920
14007TIP3    H263513   3.225   6.862   0.865 -1.1648 -0.8008 -0.1188
14008TIP3   OH263514   6.322   6.287  14.516 -0.3408 -0.0826 -0.2887
14008TIP3    H163515   6.359   6.375  14.521 -0.8503  0.1869 -1.0790
14008TIP3    H263516   6.227   6.301  14.509 -0.8390 -0.8129  3.8534
14009TIP3   OH263517   0.475   2.080  13.795  0.4247  0.4798  0.5324
14009TIP3    H163518   0.535   2.024  13.843 -1.0804 -1.1111  0.6138
14009TIP3    H263519   0.434   2.135  13.861 -0.8014 -0.9114  0.9547
14010TIP3   OH263520   5.916   4.202   5.214 -0.5044 -0.0747 -0.6133
14010TIP3    H163521   5.883   4.291   5.224  0.6448  0.4140 -1.1223
14010TIP3    H263522   5.941   4.175   5.302  0.0945  0.4909 -0.6045
14011TIP3   OH263523   3.149   5.211  16.070  0.1090 -0.7230 -0.2617
14011TIP3    H163524   3.138   5.306  16.061 -1.3029 -0.9546 -1.1147
14011TIP3    H263525   3.094   5.187  16.145  2.1407 -0.5857  1.3168
14012TIP3   OH263526   1.914   6.740   1.642  0.2803 -0.0178 -0.6159
14012TIP3    H163527   1.973   6.693   1.700 -0.5941  1.1459  1.2638
14012TIP3    H263528   1.842   6.679   1.625  0.3126 -0.1934 -0.1134
14013TIP3   OH263529   2.330   6.012  16.012  0.1979 -0.0832 -0.2220
14013TIP3    H163530   2.417   6.033  15.979  0.9223 -0.2119  1.5532
14013TIP3    H263531   2.307   5.930  15.968  0.7801  0.1758 -1.0227
14014TIP3   OH263532   4.782   0.291   0.772 -0.0080  0.1814 -0.3188
14014TIP3    H163533   4.828   0.368   0.804 -1.0681  0.3753  0.7869
14014TIP3    H263534   4.721   0.268   0.843 -0.1940 -1.2497 -0.9163
14015TIP3   OH263535   1.349   4.066   2.006 -0.3701 -0.6508 -0.6816
14015TIP3    H163536   1.311   4.028   2.085  0.0619 -0.4844 -0.3897
14015TIP3    H263537   1.444   4.053   2.016 -0.1896  0.6696 -0.4771
14016TIP3   OH263538   1.410   3.693  14.075 -0.4727 -0.1795 -0.1654
14016TIP3    H163539   1.487   3.741  14.044  0.6034 -1.2784  0.7502
14016TIP3    H263540   1.355   3.685  13.997  0.1994  0.8696 -0.7722
14017TIP3   OH263541   5.061   2.988  13.160 -0.1394  0.5249 -0.0757
14017TIP3    H163542   5.085   2.996  13.252  0.3396  1.4364 -0.2816
14017TIP3    H263543   5.112   2.913  13.128 -0.4982  0.0511  0.4536
14018TIP3   OH263544   6.275   2.116  12.333  0.6333  0.2067 -0.1206
14018TIP3    H163545   6.264   2.171  12.256 -0.5203 -1.0921 -0.9198
14018TIP3    H263546   6.341   2.160  12.385  0.6548  1.6658 -1.3448
14019TIP3   OH263547   2.670   5.034   4.349  0.3392  0.0386  0.0713
14019TIP3    H163548   2.594   5.053   4.294  1.2989  0.1060 -1.2555
14019TIP3    H263549   2.633   5.015   4.435 -1.0037  2.8210  0.1562
14020TIP3   OH263550   0.912   4.281  11.384 -0.2007  0.0057  0.1511
14020TIP3    H163551   0.831   4.271  11.333  1.7215 -2.7815 -2.5437
14020TIP3    H263552   0.927   4.195  11.423  0.6574  0.9451  1.9623
14021TIP3   OH263553   4.675   6.064   4.700 -0.2148  0.3106 -0.4291
14021TIP3    H163554   4.692   6.015   4.619  0.0266  1.3722 -1.0325
14021TIP3    H263555   4.762   6.079   4.738 -0.2955  0.1686 -0.1878
14022TIP3   OH263556   0.868   3.105  13.879  0.8098  0.2495 -0.1508
14022TIP3    H163557   0.909   3.027  13.916 -1.0336 -0.6186  0.1415
14022TIP3    H263558   0.857   3.085  13.786  1.1123  0.5042 -0.2413
14023TIP3   OH263559   5.591   2.299  15.765 -0.3431 -0.4191  0.1194
14023TIP3    H163560   5.602   2.289  15.860  0.8279 -1.3775 -0.1036
14023TIP3    H263561   5.680   2.312  15.732 -0.6771 -0.7580 -0.9197
14024TIP3   OH263562   2.700   2.859  16.110  0.1799 -0.3005  0.0117
14024TIP3    H163563   2.734   2.824  16.193  0.9871  2.4452  0.8980
14024TIP3    H263564   2.643   2.931  16.137  2.2564  2.1043 -1.9010
14025TIP3   OH263565   4.949   2.075   1.760  0.7514  0.8963 -0.1700
14025TIP3    H163566   4.962   2.033   1.675 -0.8485  1.7075 -0.8342
14025TIP3    H263567   5.011   2.031   1.818  1.8876  0.3565 -1.7531
14026TIP3   OH263568   3.060   0.100   2.326 -0.6708 -0.0503 -0.2936
14026TIP3    H163569   3.109   0.116   2.245  2.0073 -0.6401  1.1364
14026TIP3    H263570   3.093   0.166   2.387 -1.3803 -0.7209  0.8333
14027TIP3   OH263571   5.967   3.802   4.575  0.1908 -0.0054 -0.1438
14027TIP3    H163572   6.016   3.740   4.522 -0.2392  0.7380 -1.4229
14027TIP3    H263573   5.923   3.859   4.512  1.4538  2.3015  1.0063
14028TIP3   OH263574   0.345   1.501   2.405  0.2260  0.2870 -0.1237
14028TIP3    H163575   0.307   1.543   2.328 -1.7295 -2.3909 -0.7163
14028TIP3    H263576   0.297   1.539   2.479 -1.1210 -0.4342 -0.6064
14029TIP3   OH263577   1.760   0.384   2.380 -0.1825  0.7142  0.4871
14029TIP3    H163578   1.842   0.414   2.341 -0.0624  0.7620  0.7732
14029TIP3    H263579   1.787   0.318   2.444 -0.5429 -1.0390 -1.1256
14030TIP3   OH263580   5.154   3.461  15.102  0.5219  0.7540  0.6793
14030TIP3    H163581   5.150   3.384  15.044  0.9163  1.6265 -0.5162
14030TIP3    H263582   5.242   3.459  15.138 -0.0072 -0.2925  1.9693
14031TIP3   OH263583   2.992   5.641   0.649  0.4186  0.3026 -0.4963
14031TIP3    H163584   2.963   5.602   0.732 -0.1762 -0.0448 -0.8718
14031TIP3    H263585   3.031   5.568   0.601 -0.4258  0.2297 -1.0725
14032TIP3   OH263586   5.571   2.974   0.431 -0.1108 -0.3718 -0.2355
14032TIP3    H163587   5.641   2.933   0.482 -0.4533 -2.2636 -1.2347
14032TIP3    H263588   5.528   3.034   0.492  0.8970 -0.9605  1.0602
14033TIP3   OH263589   3.792   4.197  12.748 -0.3314 -1.0792  0.5200
14033TIP3    H163590   3.784   4.276  12.695 -1.0228  0.5731  3.0069
14033TIP3    H263591   3.869   4.153  12.712 -1.1078 -0.3478 -2.2097
14034TIP3   OH263592   1.399   0.237   2.165  0.8474  0.5692  0.4924
14034TIP3    H163593   1.427   0.165   2.109  0.9145  0.2687  0.9121
14034TIP3    H263594   1.475   0.295   2.169  0.8291  0.6107  0.2410
14035TIP3   OH263595   4.535   1.394   1.173  0.2932 -0.8157 -0.1651
14035TIP3    H163596   4.598   1.383   1.244  2.5920 -0.1779 -2.0232
14035TIP3    H263597   4.489   1.310   1.167 -0.0092 -0.8267  2.1120
14036TIP3   OH263598   4.864   4.704   5.418 -0.0308  0.3410  0.4830
14036TIP3    H163599   4.836   4.777   5.364 -0.5138  1.2917  1.9735
14036TIP3    H263600   4.876   4.742   5.505 -0.4343 -1.3842  1.3201
14037TIP3   OH263601   2.059   4.375   0.203  0.3789  0.1115 -0.0228
14037TIP3    H163602   1.998   4.365   0.130 -0.2224  2.5642  0.1157
14037TIP3    H263603   2.008   4.415   0.273  1.7262  0.6704  0.6667
14038TIP3   OH263604   1.840   2.205  15.659 -0.2572 -0.3780  0.1096
14038TIP3    H163605   1.761   2.159  15.688  1.1923 -1.9975  1.6611
14038TIP3    H263606   1.876   2.243  15.739  0.8657 -0.2112 -0.4656
14039TIP3   OH263607   0.568   2.335   1.266 -0.1401 -0.5548  0.4257
14039TIP3    H163608   0.651   2.312   1.307  0.3699  0.5295  0.0220
14039TIP3    H263609   0.575   2.302   1.177  0.4093  0.7260 -0.0161
14040TIP3   OH263610   5.132   2.587  11.158  0.2431  0.3757 -0.0561
14040TIP3    H163611   5.150   2.519  11.224 -0.5560  0.6492  0.4622
14040TIP3    H263612   5.091   2.539  11.086 -2.1698  0.5633  1.1348
14041TIP3   OH263613   4.802   4.186  13.497  0.2221  0.8571 -0.0047
14041TIP3    H163614   4.724   4.132  13.484 -0.0164  0.5851  2.2788
14041TIP3    H263615   4.828   4.213  13.409 -1.3317 -0.6177 -0.9450
14042TIP3   OH263616   4.879   4.812  16.370 -0.2552  0.1719 -0.4514
14042TIP3    H163617   4.861   4.720  16.352  0.3534 -0.5231  2.2827
14042TIP3    H263618   4.939   4.839  16.300 -1.0372 -1.2688 -1.7147
14043TIP3   OH263619   0.711   2.560  13.226  0.5335 -0.1758 -0.2416
14043TIP3    H163620   0.702   2.508  13.306 -0.5251 -0.7938 -0.7527
14043TIP3    H263621   0.633   2.614  13.224  0.9968  0.4961 -0.4016
14044TIP3   OH263622   3.575   5.943   0.823  0.0669  0.3307  0.1155
14044TIP3    H163623   3.572   6.007   0.752  2.8580 -0.1779 -0.5339
14044TIP3    H263624   3.661   5.957   0.864  0.2976 -2.3287  0.5914
14045TIP3   OH263625   4.193   1.633   2.510 -0.1140  0.1453  0.2969
14045TIP3    H163626   4.225   1.545   2.533  3.0225  0.7933 -1.3095
14045TIP3    H263627   4.103   1.634   2.542 -0.3091 -3.7250  0.1828
14046TIP3   OH263628   4.346   2.196  15.128 -0.3294  0.5494  0.4760
14046TIP3    H163629   4.284   2.180  15.199  0.1598 -2.2473  0.3458
14046TIP3    H263630   4.332   2.123  15.068  2.3413  0.4514 -0.0754
14047TIP3   OH263631   4.701   4.048   2.561 -0.1025  0.8542  0.2984
14047TIP3    H163632   4.740   4.100   2.491 -1.6117  0.7665 -0.6239
14047TIP3    H263633   4.757   3.970   2.567  0.6972  1.3929 -0.0259
14048TIP3   OH263634   4.206   4.303   3.526  0.1946  0.1136  0.4794
14048TIP3    H163635   4.262   4.358   3.471  0.9975 -0.0129  1.1718
14048TIP3    H263636   4.146   4.365   3.567  1.0189  0.4647  1.1649
14049TIP3   OH263637   1.439   0.276   5.481 -0.0323 -0.3959  0.3095
14049TIP3    H163638   1.513   0.268   5.422  1.0278  2.6073  1.1577
14049TIP3    H263639   1.402   0.188   5.486  0.9871 -1.0793 -3.3042
14050TIP3   OH263640   3.342   1.771  15.191  0.1031  0.6866  0.7462
14050TIP3    H163641   3.373   1.719  15.117 -1.1844 -0.4046  0.9686
14050TIP3    H263642   3.329   1.859  15.154 -0.9747  0.0400 -0.4330
14051TIP3   OH263643   1.817   1.001  14.554 -0.3042  0.6140 -0.5643
14051TIP3    H163644   1.835   1.085  14.597  2.3997 -0.1752 -0.0426
14051TIP3    H263645   1.877   1.000  14.479 -1.3426 -0.2536 -1.4059
14052TIP3   OH263646   0.698   3.543  13.234 -0.5605  0.5758 -0.5969
14052TIP3    H163647   0.688   3.448  13.237 -0.3194  0.4493 -3.1863
14052TIP3    H263648   0.621   3.574  13.186 -2.1961  2.0051  2.7435
14053TIP3   OH263649   2.181   4.931   0.405  0.0596  0.2499  0.0897
14053TIP3    H163650   2.133   4.932   0.488 -0.1654 -0.0280 -0.0332
14053TIP3    H263651   2.261   4.883   0.424  0.1949  0.5410  0.2482
14054TIP3   OH263652   3.820   1.471   4.749 -0.3233 -0.3871 -0.4500
14054TIP3    H163653   3.738   1.422   4.752 -0.4846 -0.0300  1.5420
14054TIP3    H263654   3.878   1.416   4.696 -1.3811 -1.3710 -0.6177
14055TIP3   OH263655   6.494   6.367   5.869  0.2899 -0.3922  0.9904
14055TIP3    H163656   6.441   6.408   5.801  2.4443  0.6112 -0.1179
14055TIP3    H263657   6.442   6.291   5.897 -0.3515 -1.2089 -2.2137
14056TIP3   OH263658   6.403   0.834   0.206 -0.3867 -0.0574  0.0286
14056TIP3    H163659   6.333   0.890   0.240 -1.2876 -0.1742 -1.5672
14056TIP3    H263660   6.484   0.875   0.236 -1.0742  1.4562 -0.1419
14057TIP3   OH263661   2.277   0.444  16.970 -0.4244  0.1139 -0.5064
14057TIP3    H163662   2.214   0.376  16.995  1.3046 -0.6497  2.0401
14057TIP3    H263663   2.350   0.432  17.031  0.4795  3.4742 -0.8353
14058TIP3   OH263664   0.629   5.183   5.605 -0.3659  0.9183 -0.1498
14058TIP3    H163665   0.582   5.178   5.521 -0.4229 -0.4224 -0.0555
14058TIP3    H263666   0.716   5.148   5.585 -0.7172 -0.3895  0.5795
14059TIP3   OH263667   2.995   0.779  16.839  0.0921  0.2911 -0.4821
14059TIP3    H163668   3.082   0.738  16.839  0.4639  1.0432 -1.7219
14059TIP3    H263669   2.937   0.711  16.805  0.5917  0.5604 -1.8961
14060TIP3   OH263670   0.917   4.366   1.976 -0.1632  0.2480  0.5287
14060TIP3    H163671   0.867   4.405   1.904 -0.7554  0.0909  0.8463
14060TIP3    H263672   0.928   4.275   1.951  0.1889  0.3407  0.3399
14061TIP3   OH263673   1.399   1.767  17.093  0.7310  0.6032 -0.3346
14061TIP3    H163674   1.484   1.792  17.129  0.2387  1.4408  0.2816
14061TIP3    H263675   1.359   1.850  17.065 -0.9084  0.5294  1.6755
14062TIP3   OH263676   2.393   6.541  12.800 -0.0656  0.1590  0.6741
14062TIP3    H163677   2.394   6.635  12.820 -1.6018  0.0166  1.4813
14062TIP3    H263678   2.344   6.502  12.872 -3.1260 -0.7522 -1.8239
14063TIP3   OH263679   3.898   3.004   2.830  0.7269 -0.0087  0.0094
14063TIP3    H163680   3.928   3.016   2.740  0.4704 -0.0216 -0.0794
14063TIP3    H263681   3.956   2.937   2.866 -0.1670 -1.1593 -0.6506
14064TIP3   OH263682   5.014   1.284   2.739 -0.1299 -0.2115 -0.3167
14064TIP3    H163683   5.015   1.214   2.674 -0.7433 -0.2375 -0.3024
14064TIP3    H263684   4.994   1.239   2.821 -0.0564 -0.0849 -0.2303
14065TIP3   OH263685   2.635   3.410  16.460  0.1900  0.2432 -0.1485
14065TIP3    H163686   2.557   3.355  16.470 -1.7184  2.3561 -2.6167
14065TIP3    H263687   2.684   3.368  16.389  1.3608 -1.0894  1.4062
14066TIP3   OH263688   6.222   2.387  15.934  0.0336 -0.0220  0.0845
14066TIP3    H163689   6.293   2.435  15.977 -0.5222  0.5906  0.3179
14066TIP3    H263690   6.219   2.303  15.979  0.9214 -0.2270 -0.2367
14067TIP3   OH263691   0.803   1.464  11.897 -0.0552 -0.3789 -0.8613
14067TIP3    H163692   0.869   1.534  11.894 -0.8634  0.3839 -1.1348
14067TIP3    H263693   0.741   1.493  11.964 -0.7466 -0.5212 -1.4446
14068TIP3   OH263694   2.459   5.660   2.540  0.4055 -0.3012  0.4989
14068TIP3    H163695   2.394   5.604   2.582 -0.0967  0.4431  0.7267
14068TIP3    H263696   2.416   5.692   2.461  0.6396 -0.1315  0.4396
14069TIP3   OH263697   3.189   2.738  13.848 -0.0725 -0.0653  0.2613
14069TIP3    H163698   3.124   2.699  13.789  0.9923  0.5541 -1.3659
14069TIP3    H263699   3.264   2.679  13.843  1.2288  1.6783 -1.5493
14070TIP3   OH263700   2.336   3.473  13.070 -0.1454 -0.2208  0.1363
14070TIP3    H163701   2.292   3.404  13.119  1.4073 -1.1660  0.2404
14070TIP3    H263702   2.330   3.550  13.127 -0.5408 -0.6690  0.7091
14071TIP3   OH263703   2.963   4.010   2.110  0.5688 -0.1716 -0.5435
14071TIP3    H163704   3.015   4.023   2.190  0.2040  0.6017 -0.4303
14071TIP3    H263705   3.017   3.953   2.056  0.7812 -0.7684  0.2956
14072TIP3   OH263706   1.107   6.004  10.818  0.0135 -0.5877  0.4211
14072TIP3    H163707   1.168   6.010  10.892  1.0882 -0.8388 -0.4223
14072TIP3    H263708   1.026   5.972  10.856  0.0266  0.9237  1.7806
14073TIP3   OH263709   1.891   3.837   5.299  0.0385  0.1297  0.6010
14073TIP3    H163710   1.976   3.838   5.255 -0.7829 -1.3934 -1.0670
14073TIP3    H263711   1.912   3.825   5.392  1.6767  0.6655  0.3114
14074TIP3   OH263712   5.515   5.810  12.193  0.4887  0.5524  0.5880
14074TIP3    H163713   5.470   5.805  12.277  0.4637  0.4860  0.5704
14074TIP3    H263714   5.444   5.805  12.128  0.2763  2.9154  0.5936
14075TIP3   OH263715   6.402   2.222   3.208  0.0449 -0.1674  0.4362
14075TIP3    H163716   6.398   2.309   3.247 -0.7060 -0.1402  0.3175
14075TIP3    H263717   6.399   2.238   3.113 -1.0382 -0.3544  0.4302
14076TIP3   OH263718   6.787   3.843  13.929 -0.0333  0.0290  0.0946
14076TIP3    H163719   6.788   3.809  14.019  1.4657 -1.2839 -0.3827
14076TIP3    H263720   6.876   3.878  13.916  0.0875 -0.7108 -1.1920
14077TIP3   OH263721   5.064   1.899  11.143  0.2299 -0.1375  0.4591
14077TIP3    H163722   5.096   1.819  11.184  2.9803  0.6375 -0.0596
14077TIP3    H263723   5.049   1.959  11.216 -0.8143 -0.7835  0.7719
14078TIP3   OH263724   5.250   0.315  10.331 -0.2573  0.2489  0.1046
14078TIP3    H163725   5.170   0.262  10.328  0.4833 -0.9082  0.1232
14078TIP3    H263726   5.317   0.259  10.290  0.0466  2.0900 -1.9577
14079TIP3   OH263727   1.817   1.600  12.983  0.0346 -0.1658 -0.2654
14079TIP3    H163728   1.905   1.594  12.945 -0.4519  1.5163 -1.6941
14079TIP3    H263729   1.793   1.692  12.975 -1.6891 -0.5251  0.5438
14080TIP3   OH263730   0.801   5.016  15.281 -0.4492  0.2315  0.1441
14080TIP3    H163731   0.775   4.931  15.318 -1.2856  1.0881  1.5728
14080TIP3    H263732   0.719   5.057  15.254  0.0342  0.2245 -1.3708
14081TIP3   OH263733   0.243   1.207  15.740 -0.2408 -0.0680 -0.0099
14081TIP3    H163734   0.194   1.135  15.779 -0.0312 -0.2394 -0.0585
14081TIP3    H263735   0.287   1.168  15.664  0.9830 -0.2252  0.7685
14082TIP3   OH263736   0.541   4.638  16.771  0.2894 -0.1396  0.2095
14082TIP3    H163737   0.549   4.559  16.717  1.2138  0.7287 -0.9446
14082TIP3    H263738   0.631   4.658  16.798 -0.2886 -1.2839  3.1628
14083TIP3   OH263739   1.658   3.139  12.793 -0.2565 -0.0903  0.1655
14083TIP3    H163740   1.573   3.118  12.832 -0.2465  1.2280  0.9235
14083TIP3    H263741   1.637   3.184  12.711 -0.3018  0.7387  0.6266
14084TIP3   OH263742   4.408   6.627  11.563 -0.4691  0.0550 -0.1847
14084TIP3    H163743   4.390   6.568  11.636 -1.7009 -0.5178 -0.9312
14084TIP3    H263744   4.335   6.614  11.503  0.9595 -0.1059 -1.9278
14085TIP3   OH263745   0.558   3.516  16.583 -0.0527 -0.7024 -0.2067
14085TIP3    H163746   0.599   3.582  16.638  2.6068 -3.4059  1.2325
14085TIP3    H263747   0.621   3.501  16.513 -1.3271 -0.6072 -1.3866
14086TIP3   OH263748   4.239   0.610   0.286 -0.0098  0.4423  0.0121
14086TIP3    H163749   4.304   0.549   0.321  0.8488  1.0501 -0.4934
14086TIP3    H263750   4.277   0.639   0.203 -1.1126  0.5082 -0.4761
14087TIP3   OH263751   3.960   3.581  16.979 -0.3567 -0.2251  0.2790
14087TIP3    H163752   3.976   3.501  17.029 -0.8180 -0.7829 -0.4496
14087TIP3    H263753   3.896   3.629  17.031 -0.4911 -0.5856  0.4525
14088TIP3   OH263754   4.447   0.541   3.885 -0.2972  1.1213  0.0730
14088TIP3    H163755   4.484   0.486   3.816  0.2718  1.7591 -0.1356
14088TIP3    H263756   4.388   0.482   3.934  1.3360 -0.0290  0.7006
14089TIP3   OH263757   2.356   5.179  16.053  0.0553  0.1097  0.3780
14089TIP3    H163758   2.446   5.195  16.084 -0.6932  0.8493  2.2808
14089TIP3    H263759   2.306   5.253  16.087 -1.3072 -0.3808 -0.5414
14090TIP3   OH263760   3.016   6.246  12.441  0.4159 -0.4067  0.4942
14090TIP3    H163761   3.051   6.259  12.529 -0.3672  1.1374  0.5924
14090TIP3    H263762   2.933   6.201  12.456  0.0509  0.2858  0.5911
14091TIP3   OH263763   0.454   4.248   0.875  0.5211 -0.1362  0.2209
14091TIP3    H163764   0.444   4.321   0.936  2.2578  1.4425 -1.3277
14091TIP3    H263765   0.537   4.208   0.899  0.1228 -0.9126  0.3205
14092TIP3   OH263766   0.771   3.105  15.225 -1.5386  0.2474  0.5990
14092TIP3    H163767   0.860   3.108  15.259 -1.2892  1.7147 -0.1461
14092TIP3    H263768   0.743   3.014  15.238  0.1646 -0.2894  0.5727
14093TIP3   OH263769   6.058   3.009  15.044 -0.0066  0.0424  0.8484
14093TIP3    H163770   6.148   3.034  15.024  0.7652 -0.3619  3.6222
14093TIP3    H263771   6.025   3.081  15.098 -1.2960  0.1163 -0.0280
14094TIP3   OH263772   5.336   0.124  15.076  0.4249 -0.5682  0.1551
14094TIP3    H163773   5.290   0.114  15.160  2.2027  0.0100  1.2141
14094TIP3    H263774   5.340   0.218  15.062  2.4144 -0.5568  0.7140
14095TIP3   OH263775   3.545   5.825  16.060 -0.3367  0.4551 -0.4597
14095TIP3    H163776   3.464   5.876  16.058 -0.1704  0.7543  0.2973
14095TIP3    H263777   3.516   5.736  16.081 -0.3316  0.8644  1.3529
14096TIP3   OH263778   5.041   0.541   0.512  0.0271  0.8425 -0.4611
14096TIP3    H163779   4.950   0.512   0.519 -1.0607  3.7451 -1.7620
14096TIP3    H263780   5.066   0.564   0.602 -0.5142  0.0434 -0.1039
14097TIP3   OH263781   2.965   5.625  16.483 -0.0111  0.1019 -0.4145
14097TIP3    H163782   3.034   5.607  16.547  0.0382 -1.1233 -0.8146
14097TIP3    H263783   2.912   5.693  16.525  2.4395  2.3649 -0.8335
14098TIP3   OH263784   4.994   6.581  13.547 -0.3727 -0.5858  0.0304
14098TIP3    H163785   4.914   6.630  13.526  0.7225  0.9961 -0.5791
14098TIP3    H263786   5.005   6.520  13.474  0.6762  1.4023 -1.5170
14099TIP3   OH263787   0.699   3.730  11.811  0.3438  0.0413  0.0202
14099TIP3    H163788   0.704   3.727  11.715 -0.9461 -0.5119 -0.0382
14099TIP3    H263789   0.656   3.813  11.830 -2.0834 -1.1411 -0.0262
14100TIP3   OH263790   0.797   0.017   2.540 -0.0004 -0.2962 -0.1393
14100TIP3    H163791   0.874  -0.040   2.542 -0.6367 -1.1461  2.4552
14100TIP3    H263792   0.737  -0.025   2.479  1.2149 -0.0952 -1.5014
14101TIP3   OH263793   1.541   2.710   5.177  0.1304  0.1537  0.6582
14101TIP3    H163794   1.574   2.779   5.120  1.0139 -1.2900 -0.6232
14101TIP3    H263795   1.593   2.718   5.257  0.8689  0.4066  0.1607
14102TIP3   OH263796   1.196   2.496  17.192  0.2299  0.0102  0.5133
14102TIP3    H163797   1.116   2.448  17.215 -1.1257  1.7287 -0.4165
14102TIP3    H263798   1.235   2.518  17.276  1.6771 -3.8899  0.9659
14103TIP3   OH263799   3.861   3.439  12.892  0.3144 -0.4071 -0.3284
14103TIP3    H163800   3.917   3.502  12.846  1.7961  0.4983  2.5239
14103TIP3    H263801   3.923   3.373  12.924 -0.5861 -0.7549  0.7077
14104TIP3   OH263802   4.324   0.911  12.717 -0.1992 -0.3448  0.2174
14104TIP3    H163803   4.275   0.856  12.656  0.4009 -0.7838  0.1279
14104TIP3    H263804   4.388   0.852  12.757  1.5730  0.6241 -1.0979
14105TIP3   OH263805   1.788   0.852  10.900 -0.0178  0.3174 -0.2660
14105TIP3    H163806   1.829   0.893  10.977 -0.5342  0.8818 -0.2917
14105TIP3    H263807   1.706   0.900  10.888 -0.8192 -0.9552 -0.0700
14106TIP3   OH263808   0.275   1.193   3.374 -0.1654  0.4321  0.2226
14106TIP3    H163809   0.271   1.163   3.283  0.9922  0.8558  0.0204
14106TIP3    H263810   0.301   1.116   3.424 -0.2672  0.3287  0.1155
14107TIP3   OH263811   2.406   1.270  15.090  0.5471 -0.2729 -0.1604
14107TIP3    H163812   2.500   1.277  15.072  0.9958 -2.9121  1.0168
14107TIP3    H263813   2.401   1.229  15.176 -1.6990  0.1496 -0.0634
14108TIP3   OH263814   0.463   5.280  13.169  0.4191 -0.3708 -0.1835
14108TIP3    H163815   0.412   5.341  13.223  1.8190 -0.1496  0.9343
14108TIP3    H263816   0.554   5.301  13.190  0.9756 -0.7834 -2.1162
14109TIP3   OH263817   1.131   3.857   4.931 -0.0640  0.3524  0.1464
14109TIP3    H163818   1.079   3.792   4.978  1.2603 -1.0930 -0.3493
14109TIP3    H263819   1.177   3.905   4.999  0.7869 -0.8223  0.4190
14110TIP3   OH263820   3.824   4.436  12.627  0.0658 -0.0819 -0.0922
14110TIP3    H163821   3.808   4.465  12.537  0.7400 -0.7366 -0.4313
14110TIP3    H263822   3.917   4.451  12.640  0.0892 -0.5618  0.2886
14111TIP3   OH263823   3.754   4.022  11.067  0.2534 -0.3554 -0.2883
14111TIP3    H163824   3.730   3.930  11.054 -2.2941  0.4422 -1.5987
14111TIP3    H263825   3.727   4.065  10.986 -2.0306  2.1743  1.6981
14112TIP3   OH263826   0.999   6.170   3.814  0.3420 -0.2625  0.4687
14112TIP3    H163827   1.006   6.123   3.897  2.0079 -0.7380  0.0808
14112TIP3    H263828   1.085   6.160   3.774 -0.9926 -1.6525 -2.1834
14113TIP3   OH263829   1.458   4.361  13.841 -0.6123 -0.5809  0.0137
14113TIP3    H163830   1.404   4.285  13.823  1.7340 -2.5280  0.9634
14113TIP3    H263831   1.478   4.398  13.755 -1.5200 -1.1903 -0.4592
14114TIP3   OH263832   2.782   6.784   3.122  0.1760  0.0539 -0.5837
14114TIP3    H163833   2.718   6.773   3.191 -0.8918  0.2261 -1.5305
14114TIP3    H263834   2.790   6.879   3.111 -1.0123  0.0087 -1.9270
14115TIP3   OH263835   0.793   1.979   2.213  0.4809 -0.0546 -0.2664
14115TIP3    H163836   0.863   2.004   2.273  0.6119 -0.0178 -0.4339
14115TIP3    H263837   0.722   2.040   2.233  1.0704  0.9401 -1.1886
14116TIP3   OH263838   6.527   4.094   2.738  0.0146  0.5147  0.1505
14116TIP3    H163839   6.491   4.144   2.665  3.3428  0.9927 -1.2568
14116TIP3    H263840   6.472   4.117   2.813 -0.4279  3.8771 -1.1311
14117TIP3   OH263841   2.450   2.898   3.135 -0.0917  0.5625 -0.2542
14117TIP3    H163842   2.392   2.842   3.084  0.6195  0.1463 -0.6103
14117TIP3    H263843   2.413   2.986   3.126 -0.8065  0.2651 -0.2663
14118TIP3   OH263844   6.776   0.526  15.546  0.0385 -0.4243 -0.0633
14118TIP3    H163845   6.802   0.585  15.618  1.3158 -2.8696  1.5445
14118TIP3    H263846   6.680   0.527  15.548  0.0495  0.8897  0.5319
14119TIP3   OH263847   6.553   1.541  14.083 -0.1626 -0.0949  0.0647
14119TIP3    H163848   6.615   1.614  14.076 -1.5438  1.0801 -0.0814
14119TIP3    H263849   6.605   1.464  14.061  0.8883  1.0515 -1.6033
14120TIP3   OH263850   0.992   6.501  12.520  0.4091  0.3193  0.5139
14120TIP3    H163851   0.939   6.532  12.447 -2.4943  0.8769  2.7590
14120TIP3    H263852   1.047   6.433  12.483 -0.6526  0.9243 -2.2755
14121TIP3   OH263853   6.125   1.509  16.429 -0.2366 -0.3593  0.5490
14121TIP3    H163854   6.090   1.582  16.480  0.9234 -0.4822  1.5609
14121TIP3    H263855   6.212   1.539  16.402 -0.5093 -0.6290 -0.6635
14122TIP3   OH263856   1.550   3.935  13.196 -0.0882  0.5538 -0.4286
14122TIP3    H163857   1.486   3.889  13.251  0.8320  0.0731  0.2576
14122TIP3    H263858   1.576   4.010  13.249  1.5993 -0.4952  0.2574
14123TIP3   OH263859   5.416   5.926   2.028  0.5670 -0.7591  0.6283
14123TIP3    H163860   5.347   5.889   1.973  0.5646  0.8816 -0.5162
14123TIP3    H263861   5.469   5.851   2.055 -0.0298 -1.7021 -0.7781
14124TIP3   OH263862   1.022   3.065   3.514  0.3183 -0.6053  0.0273
14124TIP3    H163863   1.023   3.040   3.606 -0.5513  0.9630  0.4902
14124TIP3    H263864   1.039   2.984   3.466 -2.2185 -2.0467  1.4544
14125TIP3   OH263865   1.875   0.991  16.633 -0.7247 -0.2914  0.4747
14125TIP3    H163866   1.896   0.918  16.574 -0.9036  0.9828 -1.1869
14125TIP3    H263867   1.836   0.948  16.710 -0.0082 -2.0127 -0.0860
14126TIP3   OH263868   2.587   3.783  11.958 -0.0470 -0.1261 -0.6307
14126TIP3    H163869   2.564   3.860  12.010  3.4424  1.3506 -1.1235
14126TIP3    H263870   2.516   3.775  11.895 -1.0941  1.9371  0.2338
14127TIP3   OH263871   0.795   4.643   2.778  0.0337 -0.8337 -0.6031
14127TIP3    H163872   0.872   4.675   2.731  1.7872 -0.1920  2.5424
14127TIP3    H263873   0.738   4.719   2.786  0.5608 -0.4802 -0.1410
14128TIP3   OH263874   4.451   5.284   2.448 -0.9992  0.5663  0.0025
14128TIP3    H163875   4.520   5.218   2.442  0.3165  1.6720  2.3319
14128TIP3    H263876   4.478   5.353   2.387 -0.0343  0.9759  0.8745
14129TIP3   OH263877   1.205   2.103  16.758  0.2245  0.2603  0.0120
14129TIP3    H163878   1.221   2.089  16.851  0.7100 -1.0457 -0.2594
14129TIP3    H263879   1.278   2.158  16.729  0.7874 -0.4218  0.1274
14130TIP3   OH263880   6.694   4.660  14.963 -0.3593  0.6790 -0.0524
14130TIP3    H163881   6.695   4.755  14.976  0.0010  0.2524  3.3764
14130TIP3    H263882   6.632   4.646  14.892  1.3210  3.6402 -2.2078
14131TIP3   OH263883   2.687   0.610  12.630  0.8247 -0.0732 -0.2495
14131TIP3    H163884   2.639   0.531  12.606 -0.2919  0.8848 -1.2895
14131TIP3    H263885   2.739   0.585  12.707 -0.6098 -1.3998  0.3114
14132TIP3   OH263886   5.619   0.053   5.704 -0.9166  0.2358 -0.5234
14132TIP3    H163887   5.535   0.069   5.746  0.0139  0.4613  1.2829
14132TIP3    H263888   5.627  -0.043   5.702  0.2743  0.2401  2.3806
14133TIP3   OH263889   0.046   6.431   4.166 -0.5110  0.3513 -0.3794
14133TIP3    H163890   0.008   6.385   4.241 -1.6234  2.1038  0.1511
14133TIP3    H263891  -0.015   6.414   4.095  0.7249 -1.6032 -1.0113
14134TIP3   OH263892   0.307   0.736  11.760  0.6023  0.0687 -0.3247
14134TIP3    H163893   0.260   0.653  11.766  0.0928  0.2994 -1.0846
14134TIP3    H263894   0.386   0.715  11.710 -0.0987  0.2789 -1.5419
14135TIP3   OH263895   5.197   0.117  11.992 -0.1904  0.1737 -0.0074
14135TIP3    H163896   5.256   0.157  11.929 -0.3574 -1.7938 -1.4426
14135TIP3    H263897   5.254   0.077  12.058 -0.0201  2.4031  1.2541
14136TIP3   OH263898   3.340   2.556   4.250  0.2753  0.1516  0.1385
14136TIP3    H163899   3.277   2.542   4.321  0.2594 -1.1456 -0.1271
14136TIP3    H263900   3.300   2.517   4.173 -0.1188  2.3746 -0.8307
14137TIP3   OH263901   6.482   1.846   6.664  0.6551 -0.7242 -0.4898
14137TIP3    H163902   6.386   1.850   6.670  0.8107 -0.6356  2.8055
14137TIP3    H263903   6.502   1.879   6.577 -2.2070  1.0615 -0.5338
14138TIP3   OH263904   0.771   4.671   3.927  0.0809  0.3410  0.1676
14138TIP3    H163905   0.713   4.595   3.922 -0.8728  1.1170 -0.6537
14138TIP3    H263906   0.769   4.709   3.839  1.9811  0.2886  0.0716
14139TIP3   OH263907   2.220   1.592   4.046  0.1552 -0.3045  0.6289
14139TIP3    H163908   2.284   1.655   4.012 -1.1651  1.5617  1.4930
14139TIP3    H263909   2.269   1.540   4.109  1.5295 -0.8544 -0.8518
14140TIP3   OH263910   2.643   2.230   3.943  0.1838 -0.0882  0.1385
14140TIP3    H163911   2.637   2.325   3.953 -1.1658 -0.2975  1.5390
14140TIP3    H263912   2.586   2.210   3.869  0.3062  0.1629 -0.0261
14141TIP3   OH263913   6.159   1.030   0.141 -0.3586 -0.1768 -0.7240
14141TIP3    H163914   6.122   0.942   0.129  0.4464 -0.6204 -0.0576
14141TIP3    H263915   6.097   1.074   0.199  0.0889 -0.9015  0.3474
14142TIP3   OH263916   2.529   1.698  15.587 -0.7458 -0.1266 -0.3308
14142TIP3    H163917   2.476   1.710  15.508 -0.0398 -0.7568 -0.9037
14142TIP3    H263918   2.619   1.715  15.558 -0.4195 -0.9275  0.2083
14143TIP3   OH263919   6.157   0.989  12.072 -0.1762  0.1285 -0.2961
14143TIP3    H163920   6.186   0.905  12.109 -2.3513 -0.4456  0.1584
14143TIP3    H263921   6.224   1.052  12.100  0.2014 -0.9974  1.4284
14144TIP3   OH263922   3.227   1.926  13.040 -0.1439  0.1361  0.2107
14144TIP3    H163923   3.235   1.953  12.948 -1.0018  1.1151  0.4162
14144TIP3    H263924   3.196   1.835  13.035 -0.0308  0.1280 -0.4675
14145TIP3   OH263925   2.090   6.061  17.207 -0.3976 -0.1425  0.1276
14145TIP3    H163926   2.105   5.970  17.235  2.5552  0.2741  0.0530
14145TIP3    H263927   2.013   6.056  17.151 -1.7813 -2.1953  2.0961
14146TIP3   OH263928   6.534   0.651  16.067 -0.2730 -0.8005 -0.1259
14146TIP3    H163929   6.588   0.673  16.143 -0.0165 -0.3532 -0.4323
14146TIP3    H263930   6.450   0.624  16.104 -1.1758  2.2932  0.2354
14147TIP3   OH263931   3.613   1.250   1.116 -0.1388 -0.4994  0.3816
14147TIP3    H163932   3.564   1.319   1.160  1.5248  0.9015  0.1020
14147TIP3    H263933   3.558   1.225   1.042 -0.7908  0.4748  0.5198
14148TIP3   OH263934   0.214   2.512   2.161 -1.0435 -0.0332  0.0506
14148TIP3    H163935   0.119   2.507   2.172 -0.8640 -1.1756  1.2725
14148TIP3    H263936   0.235   2.447   2.094 -1.3186  1.6190 -1.6816
14149TIP3   OH263937   2.798   4.707  13.799 -0.3195 -0.2383  0.3024
14149TIP3    H163938   2.883   4.732  13.764 -1.5610  3.2795 -0.3488
14149TIP3    H263939   2.748   4.678  13.723 -0.6873  0.6142  0.2140
14150TIP3   OH263940   0.612   1.653  15.492 -0.0458  0.0573 -0.2391
14150TIP3    H163941   0.650   1.665  15.404 -0.0210 -0.0145 -0.2378
14150TIP3    H263942   0.529   1.700  15.488 -0.1816 -0.1919 -0.3945
14151TIP3   OH263943   5.458   3.970   3.002  0.3823 -0.0631  0.0175
14151TIP3    H163944   5.402   4.042   3.030 -0.8935 -0.7159 -0.7985
14151TIP3    H263945   5.512   3.950   3.078 -0.4808  0.5850  0.8098
14152TIP3   OH263946   5.788   2.669   3.714 -0.5628 -0.0270  0.1165
14152TIP3    H163947   5.794   2.580   3.749  1.4937  0.1326  0.2523
14152TIP3    H263948   5.718   2.710   3.764  0.8018 -0.5081  2.5172
14153TIP3   OH263949   0.676   0.225   5.106  0.4002  0.2712 -0.0933
14153TIP3    H163950   0.738   0.154   5.093  1.2865  1.1524 -0.7926
14153TIP3    H263951   0.726   0.305   5.087 -1.5979  0.8890 -3.2423
14154TIP3   OH263952   3.219   6.178  15.650 -0.7946 -0.0383  0.5703
14154TIP3    H163953   3.124   6.171  15.641 -0.6520  1.6556 -3.3134
14154TIP3    H263954   3.254   6.127  15.576  1.1848  1.6517  0.2814
14155TIP3   OH263955   2.623   2.528  11.486 -0.1259  0.0951 -0.1128
14155TIP3    H163956   2.702   2.572  11.517 -0.3060  1.4661 -1.5170
14155TIP3    H263957   2.601   2.466  11.555  1.8806  0.0683  0.5346
14156TIP3   OH263958   4.533   0.058  13.713  0.1766 -0.1017  0.8656
14156TIP3    H163959   4.457   0.103  13.676 -0.3393 -1.8056 -0.2037
14156TIP3    H263960   4.609   0.106  13.679 -0.3880  1.8362  2.2395
14157TIP3   OH263961   1.705   5.904   4.004  0.7622 -0.3433 -0.2055
14157TIP3    H163962   1.775   5.969   4.011  1.7237 -1.4236  0.3308
14157TIP3    H263963   1.735   5.829   4.056 -0.8381 -0.7854  0.1247
14158TIP3   OH263964   3.564   4.931  11.843 -0.1557  0.5064  0.4840
14158TIP3    H163965   3.549   4.917  11.749  0.5660  1.9389  0.1451
14158TIP3    H263966   3.527   4.853  11.885 -0.0403 -0.3732 -1.0238
14159TIP3   OH263967   2.995   4.761  11.236  0.2109 -0.0770  0.7950
14159TIP3    H163968   2.910   4.781  11.198  1.9412  1.5830 -2.5115
14159TIP3    H263969   3.001   4.817  11.313 -0.4891  2.1009 -0.6932
14160TIP3   OH263970   5.138   5.817   5.620 -0.0408  0.0353  0.3822
14160TIP3    H163971   5.213   5.758   5.630 -0.3982 -0.5680 -0.4691
14160TIP3    H263972   5.061   5.761   5.630 -0.3838  0.5546  0.6917
14161TIP3   OH263973   2.153   0.099   3.182  0.7117 -0.1550 -0.2909
14161TIP3    H163974   2.231   0.077   3.234  0.1597  0.2997  0.7305
14161TIP3    H263975   2.084   0.044   3.218  0.2998  0.2315 -0.4865
14162TIP3   OH263976   4.739   4.910   5.285  0.1841  0.3518  0.5433
14162TIP3    H163977   4.685   4.948   5.354  0.3722 -1.3340  1.6431
14162TIP3    H263978   4.676   4.891   5.215  0.3168  4.0467 -0.6751
14163TIP3   OH263979   2.670   0.695   0.583  0.3079 -0.0961 -0.2860
14163TIP3    H163980   2.694   0.755   0.654 -0.9384  0.3232 -0.1954
14163TIP3    H263981   2.598   0.643   0.618 -0.7105  0.5077 -1.4152
14164TIP3   OH263982   3.998   3.173  14.285 -0.6400 -0.4681  0.0883
14164TIP3    H163983   4.037   3.229  14.351  1.2412  1.0632 -2.2306
14164TIP3    H263984   3.906   3.199  14.282  0.0512  2.0430 -0.4609
14165TIP3   OH263985   6.632   5.817   2.672 -0.6073 -0.3440  0.8569
14165TIP3    H163986   6.619   5.860   2.587 -1.6990  1.2732  1.8156
14165TIP3    H263987   6.556   5.844   2.724 -0.8812 -2.7508  1.7877
14166TIP3   OH263988   4.923   4.061   2.029 -0.1076  0.1377  0.2581
14166TIP3    H163989   4.982   3.987   2.014  0.2117  0.4682 -0.1245
14166TIP3    H263990   4.846   4.022   2.069  0.6380 -0.2042  1.3884
14167TIP3   OH263991   4.487   5.081  15.896 -0.0639  0.0830  0.1702
14167TIP3    H163992   4.549   5.032  15.843 -1.7319 -0.7215 -1.0937
14167TIP3    H263993   4.449   5.015  15.955  0.3417  0.5830  0.9982
14168TIP3   OH263994   0.546   5.739  15.989 -0.1308  0.3010  0.3473
14168TIP3    H163995   0.606   5.745  15.915  2.5460  0.1684  2.4313
14168TIP3    H263996   0.557   5.822  16.036 -0.6512 -0.2224  1.4238
14169TIP3   OH263997   0.764   4.221  15.331  0.2160  0.4912 -0.5502
14169TIP3    H163998   0.698   4.202  15.397  0.2930 -0.7345 -0.8057
14169TIP3    H263999   0.719   4.277  15.268 -0.0867  1.0233  0.1387
14170TIP3   OH264000   6.391   3.925   4.259  0.0722  0.1004 -0.1027
14170TIP3    H164001   6.325   3.969   4.312 -1.5579 -0.5261 -1.5506
14170TIP3    H264002   6.473   3.943   4.303 -1.0751  0.7776  1.8346
14171TIP3   OH264003   2.432   4.239  14.687 -0.2323 -0.3517 -0.1432
14171TIP3    H164004   2.352   4.286  14.712 -0.5144 -1.0376  0.2661
14171TIP3    H264005   2.427   4.232  14.592 -0.8426 -0.7164 -0.0856
14172TIP3   OH264006   4.367   0.042   1.247  0.2693  0.4610  0.0644
14172TIP3    H164007   4.358   0.137   1.253 -0.9013  0.4250 -1.0917
14172TIP3    H264008   4.307   0.016   1.178  0.6570 -1.1185  0.3030
14173TIP3   OH264009   6.589   3.051   0.114  0.4498  0.1813 -0.2460
14173TIP3    H164010   6.650   3.085   0.179  0.0207  0.8014 -0.1621
14173TIP3    H264011   6.511   3.027   0.164  0.0410  0.8555 -0.5576
14174TIP3   OH264012   6.576   6.065  11.515  0.2531  0.0349 -0.0747
14174TIP3    H164013   6.593   6.120  11.591 -0.7562 -1.0649  0.9650
14174TIP3    H264014   6.577   6.126  11.441 -2.1582  1.6823  1.1905
14175TIP3   OH264015   6.406   0.179  13.070 -0.0567  0.2698 -0.2246
14175TIP3    H164016   6.323   0.161  13.025 -2.1160  0.8829  3.1275
14175TIP3    H264017   6.436   0.093  13.099 -0.2949  0.1961 -0.1929
14176TIP3   OH264018   3.305   3.921   3.879 -0.1797  0.6650  0.4728
14176TIP3    H164019   3.399   3.907   3.891 -0.0404  1.3555  0.2023
14176TIP3    H264020   3.285   3.885   3.793 -0.7751 -2.3716  1.8439
14177TIP3   OH264021   6.176   5.937   4.042  0.1566  0.1886  0.5004
14177TIP3    H164022   6.245   5.964   4.102  1.2170 -0.4108 -0.4473
14177TIP3    H264023   6.103   5.913   4.099  1.4959 -1.3540  1.5875
14178TIP3   OH264024   0.310   6.527  13.531 -0.7689 -0.3753 -0.1310
14178TIP3    H164025   0.283   6.617  13.549 -0.2580 -0.1797 -0.3426
14178TIP3    H264026   0.232   6.485  13.495 -1.2161 -0.2144  0.6305
14179TIP3   OH264027   1.886   0.587   1.500 -0.2715 -0.2553 -0.3180
14179TIP3    H164028   1.848   0.530   1.433  1.3968  0.2080 -1.6802
14179TIP3    H264029   1.956   0.536   1.539 -1.2186 -0.5149  1.0953
14180TIP3   OH264030   4.972   5.250  12.528  0.1700 -0.0565 -0.2982
14180TIP3    H164031   5.057   5.293  12.531  0.6352 -0.9621 -0.0653
14180TIP3    H264032   4.954   5.225  12.618 -1.3835  2.0616  0.0279
14181TIP3   OH264033   4.996   5.518   3.713 -0.3931  0.0836 -0.0231
14181TIP3    H164034   4.999   5.603   3.756  1.4403  0.0979 -0.1659
14181TIP3    H264035   5.037   5.458   3.776 -0.0697 -0.3673 -0.6581
14182TIP3   OH264036   2.239   5.341  14.952  0.0041  0.2242 -0.4559
14182TIP3    H164037   2.256   5.253  14.986 -0.9022  0.7562  1.4638
14182TIP3    H264038   2.264   5.336  14.860 -0.1100 -2.0640 -0.4064
14183TIP3   OH264039   5.195   6.095  11.088  0.2679 -0.4916 -0.3688
14183TIP3    H164040   5.117   6.118  11.037  0.3154  1.0660  0.2478
14183TIP3    H264041   5.169   6.018  11.138 -0.2650 -1.1199 -1.5978
14184TIP3   OH264042   0.074   2.966   3.103 -0.3085  0.0537  0.3161
14184TIP3    H164043   0.158   2.958   3.058 -0.4059  1.0918 -0.0546
14184TIP3    H264044   0.070   2.889   3.160 -0.0221 -1.0996 -1.1957
14185TIP3   OH264045   4.980   3.134   3.061  0.2116 -0.1036 -0.2186
14185TIP3    H164046   5.074   3.118   3.068  0.2575  0.1151 -0.3323
14185TIP3    H264047   4.968   3.223   3.093 -0.2451 -0.8762  1.8823
14186TIP3   OH264048   6.361   5.191   3.886 -0.2281  0.6828  0.0719
14186TIP3    H164049   6.272   5.182   3.921  1.0946 -0.8630  3.2312
14186TIP3    H264050   6.371   5.117   3.827 -1.1384  1.0460 -0.5489
14187TIP3   OH264051   5.842   4.485  13.564 -0.0672  0.1009 -0.1497
14187TIP3    H164052   5.936   4.471  13.573  0.2627  0.0196 -3.2530
14187TIP3    H264053   5.826   4.571  13.604  0.9109 -0.8579  2.4204
14188TIP3   OH264054   5.442   6.665  13.233 -0.6650 -0.4758 -0.3715
14188TIP3    H164055   5.466   6.673  13.141  0.2008 -0.8236 -0.1809
14188TIP3    H264056   5.488   6.737  13.276  0.2762 -1.3082  0.0364
14189TIP3   OH264057   5.638   5.987   3.277 -0.4898 -0.3691 -0.2886
14189TIP3    H164058   5.712   6.047   3.268 -0.5826  0.0397  1.4335
14189TIP3    H264059   5.583   6.006   3.201  0.0014  1.0048 -0.3259
14190TIP3   OH264060   5.621   0.078  13.753  0.4928 -0.4705  0.1130
14190TIP3    H164061   5.597   0.170  13.741  0.3525 -0.2992  1.5901
14190TIP3    H264062   5.698   0.066  13.698  1.8433  1.1203  1.5924
14191TIP3   OH264063   0.152   2.765   3.640  0.1318 -0.7253 -0.1665
14191TIP3    H164064   0.116   2.853   3.655  0.4052 -0.7145  0.4752
14191TIP3    H264065   0.093   2.707   3.688 -0.6810 -1.0166 -1.4907
14192TIP3   OH264066   1.537   0.415  13.401 -0.8891  0.4010 -0.0912
14192TIP3    H164067   1.467   0.351  13.389 -0.3573  0.0430 -1.3710
14192TIP3    H264068   1.533   0.470  13.323 -0.5958  1.2114  0.4588
14193TIP3   OH264069   1.331   4.561  14.024  0.1886  0.0271  0.2060
14193TIP3    H164070   1.335   4.467  14.009 -0.4853  0.2185 -1.3858
14193TIP3    H264071   1.379   4.576  14.105  0.0744 -1.7143  0.5984
14194TIP3   OH264072   6.579   5.186  11.170 -0.2657  0.3687 -0.8010
14194TIP3    H164073   6.507   5.211  11.113  0.9496  3.6211 -1.0428
14194TIP3    H264074   6.641   5.142  11.112 -0.1614  1.4239 -1.5097
14195TIP3   OH264075   0.449   6.473   6.540 -0.3283  0.1597 -0.4474
14195TIP3    H164076   0.482   6.531   6.609  0.8589  0.8524 -1.5725
14195TIP3    H264077   0.502   6.394   6.546 -1.6721 -0.6764  0.8173
14196TIP3   OH264078   6.673   0.918   4.439  0.4204 -0.7257 -0.7506
14196TIP3    H164079   6.754   0.875   4.468 -0.2813 -0.7613  1.1724
14196TIP3    H264080   6.697   0.957   4.354  2.2300 -1.4011 -0.5863
14197TIP3   OH264081   2.756   6.563   0.875 -0.5854  0.2098  0.0217
14197TIP3    H164082   2.719   6.487   0.831 -0.6302  0.5453 -0.5323
14197TIP3    H264083   2.765   6.537   0.966 -1.4893 -0.1314  0.0158
14198TIP3   OH264084   2.768   5.678   3.483  0.3504 -0.0409  0.3606
14198TIP3    H164085   2.782   5.589   3.451  0.0292 -1.0079  2.8245
14198TIP3    H264086   2.856   5.713   3.494  0.4899 -0.2148 -0.1841
14199TIP3   OH264087   0.832   5.341   3.186  0.1642 -0.6527  0.1124
14199TIP3    H164088   0.881   5.422   3.169 -1.5530  0.4810  0.4884
14199TIP3    H264089   0.747   5.355   3.145 -1.0302 -1.2771  2.3218
14200TIP3   OH264090   3.696   2.068  13.204  0.1730 -0.2486 -0.3155
14200TIP3    H164091   3.640   1.990  13.194 -1.9942  1.1603  0.3920
14200TIP3    H264092   3.677   2.120  13.126 -1.5015  1.4269  1.1572
14201TIP3   OH264093   2.313   6.538   1.249  0.2357 -0.0373  0.5498
14201TIP3    H164094   2.369   6.605   1.209 -0.7620  0.0819 -0.6580
14201TIP3    H264095   2.334   6.458   1.201  1.9588 -0.7830  2.4694
14202TIP3   OH264096   1.852   4.843   2.458 -0.6160  0.6320  0.6310
14202TIP3    H164097   1.937   4.812   2.491 -0.9403  0.3340  1.2052
14202TIP3    H264098   1.796   4.846   2.536 -1.1534  0.7554  0.2418
14203TIP3   OH264099   1.981   4.110   4.630  0.2203 -0.4661 -0.6398
14203TIP3    H164100   2.067   4.117   4.671 -0.6524  1.9141  0.8499
14203TIP3    H264101   2.000   4.104   4.536  1.9879  1.2194 -0.4314
14204TIP3   OH264102   4.465   4.829  13.201 -0.5928 -0.6491  0.1541
14204TIP3    H164103   4.483   4.909  13.151 -2.2166 -0.9132 -0.8754
14204TIP3    H264104   4.547   4.780  13.198  0.0651  0.4477 -0.1730
14205TIP3   OH264105   0.063   3.742   2.092  0.2495 -0.3576 -0.3285
14205TIP3    H164106   0.030   3.653   2.082  0.4551 -0.3587 -1.0137
14205TIP3    H264107   0.042   3.785   2.010 -1.1669  0.6594  0.5493
14206TIP3   OH264108   6.624   6.336  14.643  0.0816 -0.0531 -0.0851
14206TIP3    H164109   6.590   6.389  14.571  0.3921 -0.0159 -0.2033
14206TIP3    H264110   6.557   6.344  14.712  0.0277  0.3175 -0.1791
14207TIP3   OH264111   0.837   5.937  12.403 -0.3842 -0.0559  0.1855
14207TIP3    H164112   0.902   5.893  12.347  1.7359  3.4896 -0.3037
14207TIP3    H264113   0.844   5.892  12.487  0.2379 -1.9566 -0.8527
14208TIP3   OH264114   0.261   0.085  11.711 -0.1402  0.6059 -0.2826
14208TIP3    H164115   0.227   0.106  11.798  2.2698  1.0649  0.5961
14208TIP3    H264116   0.239  -0.007  11.698 -3.7558  1.4758 -0.7707
14209TIP3   OH264117   0.220   4.512   0.703 -0.0537  0.0711 -0.9743
14209TIP3    H164118   0.248   4.482   0.790 -2.1411  0.3287 -0.1618
14209TIP3    H264119   0.283   4.474   0.642  0.4513 -1.5449  0.5183
14210TIP3   OH264120   0.685   0.642  13.697 -0.6268  0.0954  0.3558
14210TIP3    H164121   0.708   0.569  13.754 -1.3052 -0.4366 -0.0506
14210TIP3    H264122   0.723   0.719  13.740  2.4672 -0.8253 -0.6159
14211TIP3   OH264123   2.396   1.177  16.434  0.2203 -0.0689  0.2337
14211TIP3    H164124   2.321   1.119  16.420 -1.3907  2.4263 -1.8816
14211TIP3    H264125   2.473   1.121  16.418 -1.2296 -1.9381 -0.3695
14212TIP3   OH264126   3.282   0.897   3.273 -0.0831  0.2851  0.0224
14212TIP3    H164127   3.301   0.925   3.184  1.8747 -2.0380 -0.3321
14212TIP3    H264128   3.239   0.973   3.313  0.5372  1.9521 -2.3562
14213TIP3   OH264129   4.510   6.591  15.525  0.4151  0.3968 -0.2702
14213TIP3    H164130   4.431   6.538  15.536 -0.0335  0.7335 -1.7621
14213TIP3    H264131   4.501   6.662  15.589 -0.3073  0.2152 -0.1680
14214TIP3   OH264132   6.373   2.467   3.336  0.2506  0.4702 -0.1501
14214TIP3    H164133   6.279   2.470   3.351  0.1006 -0.3123 -0.8824
14214TIP3    H264134   6.404   2.555   3.358 -0.4720  0.3921  1.2285
14215TIP3   OH264135   5.765   6.260  16.457 -0.4354 -0.2811  0.1619
14215TIP3    H164136   5.733   6.324  16.520 -0.4730  1.6093 -1.7001
14215TIP3    H264137   5.689   6.203  16.441 -1.0833  0.5509  0.2095
14216TIP3   OH264138   5.108   1.362   0.376  0.8129  0.3774 -0.1596
14216TIP3    H164139   5.027   1.395   0.415  1.2870  0.2581  0.9550
14216TIP3    H264140   5.126   1.422   0.304 -1.1516 -0.5861 -1.4771
14217TIP3   OH264141   2.327   5.367   1.233  0.0571 -0.2881  0.0901
14217TIP3    H164142   2.287   5.453   1.221 -0.7809 -0.7438 -0.4198
14217TIP3    H264143   2.264   5.318   1.285 -0.1509 -1.0699 -0.8734
14218TIP3   OH264144   0.689   0.751  12.670  0.2150 -0.2386  0.2514
14218TIP3    H164145   0.611   0.784  12.715  0.6197  0.7433  0.2362
14218TIP3    H264146   0.670   0.658  12.655 -2.1310  0.5586 -2.2339
14219TIP3   OH264147   3.838   6.687   1.117  0.6113  0.2756  0.7210
14219TIP3    H164148   3.930   6.704   1.097  0.6767 -0.5343  0.3313
14219TIP3    H264149   3.816   6.611   1.064 -1.1148  2.2746 -1.5331
14220TIP3   OH264150   3.936   1.757  11.017  0.5190  1.3938 -0.1855
14220TIP3    H164151   3.884   1.683  10.987  1.9750  0.1052  0.3902
14220TIP3    H264152   3.923   1.824  10.950  0.8602 -0.1394 -1.8361
14221TIP3   OH264153   4.645   3.390  10.668 -0.1149 -0.3055 -0.3565
14221TIP3    H164154   4.590   3.443  10.611 -0.7098 -0.5487 -0.0134
14221TIP3    H264155   4.611   3.301  10.660  0.9550 -0.6720 -1.0173
14222TIP3   OH264156   2.252   2.191  16.210 -0.0017 -0.4600  0.7223
14222TIP3    H164157   2.281   2.269  16.163  0.7792 -0.6464  0.8837
14222TIP3    H264158   2.158   2.203  16.221 -0.2272 -0.4919 -1.0153
14223TIP3   OH264159   4.906   0.505   0.930 -0.2149  0.5008  0.3348
14223TIP3    H164160   4.820   0.547   0.929  0.2490  1.4702  0.0477
14223TIP3    H264161   4.966   0.573   0.900  0.6400 -0.2010  0.4235
14224TIP3   OH264162   2.334   2.811   4.901  0.3174 -0.3087 -0.5269
14224TIP3    H164163   2.270   2.856   4.956  0.5048  1.7901 -1.9494
14224TIP3    H264164   2.281   2.753   4.845 -0.0255 -1.0866  0.5933
14225TIP3   OH264165   6.628   4.678  13.816  0.0182 -0.1620 -0.6496
14225TIP3    H164166   6.584   4.657  13.734 -3.4493 -1.3508  1.3982
14225TIP3    H264167   6.582   4.755  13.849 -0.7840 -1.5887  1.6877
14226TIP3   OH264168   2.341   0.562  13.004  0.0255 -0.0193 -0.4199
14226TIP3    H164169   2.297   0.511  13.072 -0.0545 -0.2239 -0.6233
14226TIP3    H264170   2.337   0.507  12.926  2.6400 -1.0525  0.0961
14227TIP3   OH264171   5.162   3.531  17.229 -0.3264  0.0770 -0.5813
14227TIP3    H164172   5.072   3.498  17.231 -1.2602  2.4807  4.1495
14227TIP3    H264173   5.216   3.454  17.246 -1.6414 -0.9722 -1.0978
14228TIP3   OH264174   5.512   0.925  16.528  0.2010 -0.4465  0.3898
14228TIP3    H164175   5.419   0.947  16.519 -0.4860 -3.2468  0.2378
14228TIP3    H264176   5.513   0.852  16.589  2.3727 -0.1661  0.7142
14229TIP3   OH264177   5.011   1.223  14.912  0.6398  0.0423  0.1520
14229TIP3    H164178   4.985   1.243  14.822  3.4181  1.2932 -0.4034
14229TIP3    H264179   4.981   1.298  14.963  0.5091  0.0827  0.0160
14230TIP3   OH264180   5.888   3.409   3.256  0.2353  0.7467  0.1940
14230TIP3    H164181   5.826   3.468   3.213 -0.2352 -0.3890 -0.7284
14230TIP3    H264182   5.833   3.349   3.306  0.6976  0.9283  0.9261
14231TIP3   OH264183   1.407   3.659  14.514  0.3378  0.3105  0.0719
14231TIP3    H164184   1.389   3.698  14.429  0.3781 -0.5910 -0.3506
14231TIP3    H264185   1.365   3.718  14.577  1.0413  1.4522 -0.5017
14232TIP3   OH264186   6.663   6.597   2.536 -0.1884  0.2127 -0.0045
14232TIP3    H164187   6.611   6.574   2.613  2.0547  0.0554  1.5057
14232TIP3    H264188   6.733   6.652   2.569 -1.1756  3.1151 -2.5016
14233TIP3   OH264189   1.019   5.944  11.082 -0.2352  0.4118  0.5017
14233TIP3    H164190   0.948   5.994  11.043 -1.1076 -0.0044  1.5250
14233TIP3    H264191   0.975   5.869  11.123  1.1922 -2.1197 -2.4566
14234TIP3   OH264192   6.602   3.949  14.669 -0.2112 -0.2980  0.3476
14234TIP3    H164193   6.523   3.919  14.625  0.0265  0.9985 -1.0211
14234TIP3    H264194   6.656   3.871  14.679 -1.4418 -1.0973  0.8316
14235TIP3   OH264195   4.200   3.462  13.979 -0.1553 -0.1799 -0.7648
14235TIP3    H164196   4.172   3.371  13.988 -1.4349  0.2712  0.1324
14235TIP3    H264197   4.266   3.461  13.910  0.0321 -1.8189 -0.5796
14236TIP3   OH264198   0.409   0.544  16.612 -0.0312 -0.2657 -0.1651
14236TIP3    H164199   0.483   0.581  16.659 -0.2804  0.0747 -0.0396
14236TIP3    H264200   0.333   0.568  16.664 -0.2309 -0.6086 -0.2953
14237TIP3   OH264201   1.757   3.089  13.932 -0.0129  0.4377 -0.3989
14237TIP3    H164202   1.701   3.095  14.010  1.1961  1.3509  0.4204
14237TIP3    H264203   1.788   2.999  13.931 -0.1287  0.3921  0.1098
14238TIP3   OH264204   3.041   2.396   5.161  0.4140  0.0763  0.1755
14238TIP3    H164205   3.094   2.474   5.143  0.5293  0.7045  3.0342
14238TIP3    H264206   2.978   2.425   5.226 -2.0495 -1.2589 -1.5257
14239TIP3   OH264207   3.150   4.291   1.216 -0.0208  0.4626 -0.5751
14239TIP3    H164208   3.172   4.203   1.185 -0.2412  0.0645  0.3708
14239TIP3    H264209   3.055   4.297   1.206 -0.3975 -0.5052  2.0795
14240TIP3   OH264210   4.910   0.872   1.755 -0.2879  0.4979  0.2616
14240TIP3    H164211   4.919   0.926   1.677  0.6698  2.0059  1.3807
14240TIP3    H264212   4.965   0.796   1.738  0.6428  1.2603 -0.1627
14241TIP3   OH264213   1.282   6.207  11.609  0.1397 -0.7377  0.1753
14241TIP3    H164214   1.210   6.144  11.604  0.5227 -0.9877 -5.0307
14241TIP3    H264215   1.360   6.155  11.587  1.0155  0.7879 -0.3528
14242TIP3   OH264216   2.297   3.794   2.349 -0.2617 -0.4431  0.4270
14242TIP3    H164217   2.352   3.799   2.271  0.1502 -0.7405  0.6978
14242TIP3    H264218   2.215   3.754   2.319 -0.6325  0.7365 -0.1411
14243TIP3   OH264219   5.067   0.075   1.944 -0.1225 -0.3164  0.6251
14243TIP3    H164220   5.030   0.031   1.868 -0.0682 -2.8982  2.0198
14243TIP3    H264221   4.991   0.096   1.998  0.0071 -0.5068  0.8832
14244TIP3   OH264222   4.650   2.395  16.238  0.2189  0.2278 -0.2792
14244TIP3    H164223   4.675   2.427  16.325  0.6471  2.7842 -1.2817
14244TIP3    H264224   4.711   2.324  16.220  1.7009  1.2388  0.5627
14245TIP3   OH264225   0.283   4.916  17.236  0.1067  0.3259  0.4623
14245TIP3    H164226   0.239   4.896  17.319 -1.3839  0.5973 -0.2484
14245TIP3    H264227   0.343   4.843  17.223 -0.4005 -0.2517  1.2705
14246TIP3   OH264228   5.573   6.069  15.879 -0.4528 -0.0588 -0.2059
14246TIP3    H164229   5.622   6.125  15.940  0.8905 -0.7531 -0.6163
14246TIP3    H264230   5.495   6.119  15.858  0.9168  1.8537 -0.9074
14247TIP3   OH264231   1.758   1.368  15.904  0.1894 -0.6720 -0.4350
14247TIP3    H164232   1.734   1.400  15.991  0.6247 -1.5727  0.0261
14247TIP3    H264233   1.685   1.312  15.878  0.7680 -1.6364  0.0129
14248TIP3   OH264234   4.612   2.925   0.021  0.1654 -0.1560 -0.7367
14248TIP3    H164235   4.551   2.869  -0.027  1.3567 -1.5759 -0.6304
14248TIP3    H264236   4.570   2.942   0.105 -1.3004  1.1701 -1.7202
14249TIP3   OH264237   1.109   5.759   2.786 -0.0191 -0.4179  0.6300
14249TIP3    H164238   1.120   5.736   2.878  0.2414 -0.9043  0.4814
14249TIP3    H264239   1.198   5.762   2.751 -0.1256 -0.4076  0.3572
14250TIP3   OH264240   0.484   0.500  12.853  0.0662  0.1705  0.6339
14250TIP3    H164241   0.473   0.530  12.763  0.6042  2.8413  1.4050
14250TIP3    H264242   0.396   0.502  12.890 -0.0704 -0.3389  0.3292
14251TIP3   OH264243   1.887   4.821   6.514  0.2665 -0.0370  0.4185
14251TIP3    H164244   1.955   4.884   6.492 -0.5294  0.1215 -1.7451
14251TIP3    H264245   1.812   4.848   6.461 -0.5501 -1.9257  0.5763
14252TIP3   OH264246   4.284   4.423  17.079 -0.3585  0.0983  0.0617
14252TIP3    H164247   4.372   4.389  17.059 -0.5796  0.7681 -2.1553
14252TIP3    H264248   4.250   4.363  17.145  2.0355  0.2220  1.4612
14253TIP3   OH264249   2.207   1.573  11.577 -0.0650 -0.8217 -1.2588
14253TIP3    H164250   2.154   1.570  11.497 -1.5993 -2.3079 -0.2108
14253TIP3    H264251   2.148   1.606  11.644  0.9117 -0.6331 -0.4908
14254TIP3   OH264252   2.209   5.751  14.222  0.0311  0.3365 -0.1648
14254TIP3    H164253   2.280   5.815  14.230  2.0448 -1.8527  0.0181
14254TIP3    H264254   2.150   5.789  14.157  0.1076  3.3173  1.4347
14255TIP3   OH264255   6.299   3.359   3.520 -0.3935  0.0086 -0.6257
14255TIP3    H164256   6.213   3.316   3.523 -1.5204  2.2224  0.1371
14255TIP3    H264257   6.304   3.395   3.431  0.8263 -2.1595 -1.4804
14256TIP3   OH264258   5.733   4.288  11.841  0.2830  0.0887 -0.1962
14256TIP3    H164259   5.789   4.211  11.850  0.1033 -0.0270 -0.0570
14256TIP3    H264260   5.793   4.359  11.816  0.9609  0.6034  2.6996
14257TIP3   OH264261   3.060   4.981  16.850  0.0823 -0.4463  0.4469
14257TIP3    H164262   3.055   4.919  16.778  1.5309 -1.1759  0.9494
14257TIP3    H264263   3.044   4.929  16.929 -0.9725  0.2447  0.6984
14258TIP3   OH264264   5.882   2.978  16.322  0.7024  0.1478  0.3039
14258TIP3    H164265   5.900   3.069  16.344 -0.8792  1.0501 -1.8636
14258TIP3    H264266   5.949   2.955  16.257  0.2967  0.2189 -0.1478
14259TIP3   OH264267   1.235   6.165   5.660  0.6421 -0.2387 -0.4344
14259TIP3    H164268   1.210   6.249   5.697  2.4814 -1.7950  4.7019
14259TIP3    H264269   1.156   6.134   5.615 -0.8786  2.9333 -0.0692
14260TIP3   OH264270   0.441   1.783  13.643  0.0930 -0.6992  0.3309
14260TIP3    H164271   0.537   1.779  13.635  0.1409 -0.7708  0.8793
14260TIP3    H264272   0.420   1.876  13.637  0.1463 -0.7317 -0.3425
14261TIP3   OH264273   4.795   0.277  14.942 -0.3588 -0.5232  0.1777
14261TIP3    H164274   4.773   0.369  14.961 -0.2453 -0.3240 -0.6253
14261TIP3    H264275   4.744   0.227  15.005  0.1127  0.1176  1.1014
14262TIP3   OH264276   5.282   1.403  16.249 -0.4118  0.5440  0.2496
14262TIP3    H164277   5.209   1.359  16.205 -0.9918  1.6896  0.0527
14262TIP3    H264278   5.357   1.346  16.232 -1.0403 -0.1074 -0.4345
14263TIP3   OH264279   4.959   1.520  14.953 -0.4158 -0.3766  0.5078
14263TIP3    H164280   4.967   1.576  14.876  2.2846 -2.2309 -0.6193
14263TIP3    H264281   4.963   1.581  15.027  1.1736  1.0589 -0.7337
14264TIP3   OH264282   1.483   5.573  16.404 -0.4731 -0.4797  0.0329
14264TIP3    H164283   1.459   5.542  16.317 -0.8916 -1.0380  0.3439
14264TIP3    H264284   1.418   5.639  16.425  0.4348  0.6516 -0.6464
14265TIP3   OH264285   4.166   5.996   2.611 -0.0964  0.6025 -0.3344
14265TIP3    H164286   4.221   5.966   2.540  0.1665  1.5047 -0.5134
14265TIP3    H264287   4.186   5.937   2.684  1.4493  1.2115 -0.2526
14266TIP3   OH264288   0.860   0.489   5.752  0.2132  0.2031  0.0303
14266TIP3    H164289   0.867   0.538   5.834 -0.8799 -0.5228  0.5720
14266TIP3    H264290   0.807   0.545   5.695  1.4980  0.9861 -0.4017
14267TIP3   OH264291   2.180   1.617  12.179  0.2041  0.1864 -0.0693
14267TIP3    H164292   2.120   1.689  12.157  0.4233  0.5060  0.3721
14267TIP3    H264293   2.128   1.538  12.166 -0.4771  0.4876  0.8209
14268TIP3   OH264294   0.501   2.212  15.885 -0.0061  0.3445 -0.5862
14268TIP3    H164295   0.516   2.226  15.791 -0.7571  0.4847 -0.6872
14268TIP3    H264296   0.551   2.281  15.928 -0.0502  0.5770 -0.9069
14269TIP3   OH264297   5.698   4.584   3.886 -0.5528 -0.1196 -0.1594
14269TIP3    H164298   5.642   4.568   3.810  1.7687 -2.7565 -1.4257
14269TIP3    H264299   5.641   4.570   3.962 -1.8796 -1.6724 -1.4048
14270TIP3   OH264300   6.368   3.573  10.193  0.2608  0.3969  0.0232
14270TIP3    H164301   6.416   3.492  10.181  0.7390  0.8356 -1.0830
14270TIP3    H264302   6.435   3.637  10.219  0.0418  0.6534 -0.0373
14271TIP3   OH264303   5.153   1.775  16.164  0.0192 -1.2642 -0.3039
14271TIP3    H164304   5.156   1.871  16.163  0.0041 -1.2112  2.4947
14271TIP3    H264305   5.060   1.754  16.164  0.0165 -1.2551 -0.1228
14272TIP3   OH264306   5.369   5.499  11.725 -0.4046 -0.0030 -0.2090
14272TIP3    H164307   5.453   5.464  11.696 -1.0758 -1.2587 -0.6540
14272TIP3    H264308   5.367   5.481  11.819 -0.8254 -1.3356 -0.4701
14273TIP3   OH264309   5.588   2.976  13.159  0.1220  0.3930  0.1730
14273TIP3    H164310   5.504   2.995  13.200 -0.3540 -0.6469 -0.2888
14273TIP3    H264311   5.640   3.055  13.170 -1.7387  1.9091 -1.6546
14274TIP3   OH264312   4.500   2.941  13.574  0.3637 -0.8243  0.3473
14274TIP3    H164313   4.470   2.918  13.486  0.9162 -2.3858  0.5682
14274TIP3    H264314   4.421   2.975  13.617  0.5271  1.9863 -1.3858
14275TIP3   OH264315   4.009   5.550   4.959  0.6206  0.5239 -0.2627
14275TIP3    H164316   4.086   5.538   4.903  1.3953 -0.9162  1.0840
14275TIP3    H264317   3.974   5.463   4.971 -0.7664  1.0862 -0.1997
14276TIP3   OH264318   5.534   2.511   4.275 -0.1282  0.1056  0.5267
14276TIP3    H164319   5.585   2.539   4.198 -0.6827 -0.7757 -0.1634
14276TIP3    H264320   5.507   2.422   4.255 -1.1351  0.2290  1.3152
14277TIP3   OH264321   5.976   1.356   1.297 -0.3032 -0.1178  0.0677
14277TIP3    H164322   5.984   1.441   1.253  1.1359 -0.2237  0.0924
14277TIP3    H264323   5.939   1.376   1.383 -0.1977  0.4532 -0.0206
14278TIP3   OH264324   3.352   0.558   0.636 -0.4735  1.1071  0.2379
14278TIP3    H164325   3.336   0.624   0.702 -0.2136  1.8832 -0.4618
14278TIP3    H264326   3.427   0.592   0.586 -0.4221  0.3532 -0.2083
14279TIP3   OH264327   2.368   5.882  13.509 -0.2647 -0.6447 -0.2580
14279TIP3    H164328   2.310   5.900  13.434 -1.9262 -2.5035  0.5422
14279TIP3    H264329   2.451   5.857  13.469  0.1777  2.4008 -1.4270
14280TIP3   OH264330   3.758   3.852   2.046  0.2254  0.5976  0.1584
14280TIP3    H164331   3.797   3.936   2.069  0.5084  0.6631 -0.5432
14280TIP3    H264332   3.805   3.825   1.967  1.5327 -1.1585  1.4721
14281TIP3   OH264333   6.318   5.434   1.490  0.1020  0.3884  0.2313
14281TIP3    H164334   6.329   5.420   1.584 -2.1713 -0.7016  0.3955
14281TIP3    H264335   6.339   5.349   1.451 -0.7087  0.3054 -0.0455
14282TIP3   OH264336   2.911   4.041   1.447 -0.0199 -0.2721  0.4115
14282TIP3    H164337   2.897   4.017   1.356  0.8779  0.5106  0.0708
14282TIP3    H264338   2.853   3.982   1.496  1.4196 -2.4867 -0.4731
14283TIP3   OH264339   4.667   0.439  13.436 -0.2680 -0.5559  0.1519
14283TIP3    H164340   4.760   0.438  13.460 -0.7675 -2.8774  2.1551
14283TIP3    H264341   4.622   0.466  13.517 -1.5074 -1.8810 -0.0836
14284TIP3   OH264342   0.760   2.756   4.185  0.4668  0.1097  0.0468
14284TIP3    H164343   0.701   2.795   4.250 -0.0702 -0.4551 -0.1026
14284TIP3    H264344   0.817   2.829   4.159 -0.9854  0.9865 -0.7490
14285TIP3   OH264345   2.365   2.692  16.655  0.2704 -0.0885 -0.7673
14285TIP3    H164346   2.298   2.630  16.685  0.6950  0.1794  0.7424
14285TIP3    H264347   2.426   2.638  16.604 -0.7126 -0.4500 -1.6049
14286TIP3   OH264348   2.028   3.562   3.564 -0.3156 -0.5636  0.0662
14286TIP3    H164349   1.953   3.511   3.532 -2.0114  1.2996  0.9713
14286TIP3    H264350   2.033   3.540   3.657  0.7075 -1.1981 -0.1339
14287TIP3   OH264351   0.568   1.283   0.911 -0.1414  0.4750 -0.1205
14287TIP3    H164352   0.592   1.320   0.996  2.1018 -0.5453 -0.2732
14287TIP3    H264353   0.508   1.211   0.932 -0.3229  0.8226  0.5445
14288TIP3   OH264354   4.417   2.093  10.787 -0.0418 -0.6582  0.0650
14288TIP3    H164355   4.434   2.100  10.881  1.4636 -1.8546 -0.1091
14288TIP3    H264356   4.399   2.001  10.772  0.9555 -0.6888 -1.0151
14289TIP3   OH264357   0.124   0.307  11.550  0.1697  0.5614  0.8106
14289TIP3    H164358   0.195   0.300  11.486  0.8121  3.1874  1.1919
14289TIP3    H264359   0.158   0.263  11.628  0.7121  0.3611  0.4641
14290TIP3   OH264360   4.054   3.366   6.138 -0.5277 -0.1479  0.1090
14290TIP3    H164361   4.082   3.447   6.094  0.1913 -1.6380 -2.2404
14290TIP3    H264362   4.107   3.364   6.219 -0.0371  1.3558 -0.1436
14291TIP3   OH264363   2.686   2.390   0.128  0.8649 -0.3006  0.5784
14291TIP3    H164364   2.657   2.312   0.080  1.4881  0.5498 -1.1967
14291TIP3    H264365   2.749   2.357   0.192  0.1978 -1.4170  0.6653
14292TIP3   OH264366   4.007   4.308   2.227 -0.2818 -0.1414  0.6593
14292TIP3    H164367   4.053   4.259   2.295  0.6007 -0.0200  0.1691
14292TIP3    H264368   4.040   4.398   2.237 -1.8288  0.3413  1.5043
14293TIP3   OH264369   0.783   0.479   6.242 -0.3422  0.1364  0.0750
14293TIP3    H164370   0.804   0.520   6.326 -1.0009 -0.3454  0.4717
14293TIP3    H264371   0.793   0.550   6.178  1.0222  0.2890  0.4439
14294TIP3   OH264372   1.295   2.539  14.607 -0.2894  0.4267 -0.4707
14294TIP3    H164373   1.331   2.522  14.520  1.6244  0.1435  0.3580
14294TIP3    H264374   1.246   2.459  14.628 -0.1892  0.2222 -0.9986
14295TIP3   OH264375   2.095   1.808   0.444 -0.0441 -0.2615  0.3590
14295TIP3    H164376   2.171   1.860   0.471 -0.0731 -0.0656  0.0664
14295TIP3    H264377   2.055   1.859   0.373 -1.1003  0.1971  1.2608
14296TIP3   OH264378   0.415   6.069   2.613  0.4215  0.3626  0.7182
14296TIP3    H164379   0.489   6.016   2.642  0.6091 -0.1793 -0.7210
14296TIP3    H264380   0.426   6.153   2.658  0.7946 -0.3828  2.0607
14297TIP3   OH264381   3.288   4.511  13.319 -0.0836  0.1859 -0.2263
14297TIP3    H164382   3.301   4.445  13.251  3.1454 -0.4529  0.9298
14297TIP3    H264383   3.274   4.460  13.399  2.2133  0.8528  0.6341
14298TIP3   OH264384   5.156   1.065   3.386  0.6738 -0.6947 -0.5100
14298TIP3    H164385   5.142   1.018   3.468 -0.2472 -1.3478 -1.0288
14298TIP3    H264386   5.068   1.082   3.353  0.9754  1.4669 -0.3147
14299TIP3   OH264387   4.904   4.895   1.443 -0.5339 -0.5663  0.1188
14299TIP3    H164388   4.951   4.965   1.488 -1.4795  0.3657 -0.3268
14299TIP3    H264389   4.872   4.839   1.514 -0.5886 -0.0209  0.5292
14300TIP3   OH264390   5.937   3.882   5.843 -0.4584 -0.2066 -0.1731
14300TIP3    H164391   5.978   3.862   5.927  0.1965 -0.6452 -0.5888
14300TIP3    H264392   5.954   3.975   5.828 -1.1938  0.0440  0.5081
14301TIP3   OH264393   3.073   1.766   4.265 -0.0474  0.0077 -0.1865
14301TIP3    H164394   3.065   1.751   4.171  0.1312  2.7263 -0.6683
14301TIP3    H264395   2.994   1.815   4.288  0.5492  0.5108  0.8259
14302TIP3   OH264396   4.775   0.596   0.424 -0.1386  0.4639 -0.3837
14302TIP3    H164397   4.746   0.552   0.344 -1.4536  0.8496 -0.1214
14302TIP3    H264398   4.700   0.647   0.452  0.1081 -0.1651  1.4694
14303TIP3   OH264399   2.419   3.634  14.953  0.0868  0.0501 -0.1681
14303TIP3    H164400   2.359   3.571  14.913  0.1898  0.1649 -0.5022
14303TIP3    H264401   2.371   3.717  14.953 -0.9705 -0.5126  2.4255
14304TIP3   OH264402   2.617   0.907  15.678  0.8322 -0.2162  0.1549
14304TIP3    H164403   2.569   0.824  15.670  0.1374  0.1920  0.1059
14304TIP3    H264404   2.702   0.881  15.714  0.5324 -0.9231  0.3676
14305TIP3   OH264405   6.709   0.360  12.007 -0.0986 -0.1368 -0.7304
14305TIP3    H164406   6.744   0.432  11.955 -0.6042  0.6250 -0.0290
14305TIP3    H264407   6.777   0.341  12.071  0.1558 -0.4845 -1.0982
14306TIP3   OH264408   1.954   0.514   2.121 -0.4057  0.1028 -0.1286
14306TIP3    H164409   2.016   0.460   2.169  1.2103  0.9999 -1.1403
14306TIP3    H264410   1.951   0.596   2.169 -0.8899  0.0312 -0.0316
14307TIP3   OH264411   6.791   3.234  16.533  0.4966 -0.0159  0.0636
14307TIP3    H164412   6.766   3.305  16.475 -0.7416 -0.6857 -0.2271
14307TIP3    H264413   6.875   3.262  16.570  1.0970  0.5891 -1.7247
14308TIP3   OH264414   4.372   4.520   4.217  0.5267  0.4506  0.4438
14308TIP3    H164415   4.287   4.477   4.219 -0.0219  1.4182 -1.5753
14308TIP3    H264416   4.357   4.602   4.170  2.7262  0.2865 -0.5993
14309TIP3   OH264417   3.767   0.937  11.753  0.0322  0.1847 -0.9309
14309TIP3    H164418   3.715   1.017  11.757  3.0733  2.1907  0.3966
14309TIP3    H264419   3.800   0.934  11.663 -0.0196  0.4908 -0.9613
14310TIP3   OH264420   4.294   1.577   2.259 -0.6928  0.3558 -0.0079
14310TIP3    H164421   4.283   1.643   2.327  1.6261  0.4314  0.3533
14310TIP3    H264422   4.318   1.627   2.181  0.8633 -0.0069  0.2142
14311TIP3   OH264423   4.438   1.624   4.725  0.3046 -0.4239  0.3843
14311TIP3    H164424   4.459   1.531   4.717  1.1990 -0.1936 -0.0225
14311TIP3    H264425   4.522   1.669   4.711 -0.5091  0.5485 -1.6905
14312TIP3   OH264426   5.568   2.271  14.479  0.2236  0.3451  0.0668
14312TIP3    H164427   5.519   2.268  14.561 -1.3393  0.3638 -0.8375
14312TIP3    H264428   5.620   2.350  14.485  1.2236 -0.4078  1.6406
14313TIP3   OH264429   5.357   3.295  11.737  0.5271 -0.4189  0.1558
14313TIP3    H164430   5.343   3.337  11.653  0.4027  0.8082  0.7740
14313TIP3    H264431   5.278   3.243  11.753  0.2396 -0.0745 -0.1504
14314TIP3   OH264432   4.714   5.060  16.927  0.5691  0.0859  0.1766
14314TIP3    H164433   4.661   5.045  16.849  1.5731  3.7948 -1.3248
14314TIP3    H264434   4.798   5.018  16.907  0.3010 -0.3558 -0.0435
14315TIP3   OH264435   4.368   5.140   2.136  0.4989  0.7324 -0.2593
14315TIP3    H164436   4.414   5.223   2.150  0.3900  0.6439  0.6359
14315TIP3    H264437   4.298   5.162   2.074 -0.4779  1.6665  1.1312
14316TIP3   OH264438   6.176   6.323  15.177 -0.4193  0.9430 -0.0487
14316TIP3    H164439   6.167   6.419  15.177 -1.1721  0.8789 -0.4647
14316TIP3    H264440   6.224   6.304  15.096 -2.0070  0.8384 -1.0094
14317TIP3   OH264441   4.243   3.687  14.648  0.2675  0.3968 -0.2751
14317TIP3    H164442   4.181   3.664  14.578 -0.7377  0.6257  0.5324
14317TIP3    H264443   4.209   3.643  14.726  0.8711  0.8953  0.2682
14318TIP3   OH264444   3.233   3.752   1.305 -0.0038  0.1119  0.4512
14318TIP3    H164445   3.281   3.723   1.228 -0.2660  1.3762 -0.1992
14318TIP3    H264446   3.231   3.847   1.299 -0.8135  0.1875  1.5430
14319TIP3   OH264447   1.024   3.209  11.189  0.4775  0.4168 -0.6718
14319TIP3    H164448   1.016   3.140  11.255  0.8762  0.3574 -0.6821
14319TIP3    H264449   0.945   3.201  11.136  1.2977 -1.1430 -1.7232
14320TIP3   OH264450   2.746   1.114  14.783  0.1102  0.5950  0.0890
14320TIP3    H164451   2.795   1.126  14.701 -1.7571  0.2699 -1.0997
14320TIP3    H264452   2.709   1.201  14.801 -1.6872  0.0637 -0.8851
14321TIP3   OH264453   1.920   5.580  11.218 -0.2447  0.3204  0.0546
14321TIP3    H164454   2.000   5.545  11.258 -0.9264 -0.3050  0.8635
14321TIP3    H264455   1.938   5.576  11.123 -0.1483 -1.8225  0.1404
14322TIP3   OH264456   0.004   6.746  17.042 -0.1063  0.7598 -0.3610
14322TIP3    H164457   0.000   6.653  17.065 -2.3491  0.9263  0.0232
14322TIP3    H264458  -0.006   6.747  16.946 -2.3260  0.7021 -0.1543
14323TIP3   OH264459   5.507   0.310  11.582 -0.0907  0.3599 -0.0706
14323TIP3    H164460   5.496   0.237  11.523 -0.8756 -0.7410  1.4027
14323TIP3    H264461   5.601   0.331  11.577  0.2436 -1.0849 -0.1142
14324TIP3   OH264462   3.770   5.140   2.220 -0.9407  0.9683  0.1920
14324TIP3    H164463   3.693   5.085   2.234 -2.6612  3.3845  0.5326
14324TIP3    H264464   3.783   5.185   2.303 -0.6803  2.4634 -0.6529
14325TIP3   OH264465   2.136   3.600   2.867  0.2215 -0.2388 -0.3661
14325TIP3    H164466   2.147   3.509   2.897  0.0344  0.6288  2.4620
14325TIP3    H264467   2.046   3.622   2.892  1.0922  1.5347  1.2509
14326TIP3   OH264468   4.363   1.536   6.176 -0.7389  0.4603  0.2676
14326TIP3    H164469   4.275   1.554   6.142 -2.4480 -1.1795  3.5547
14326TIP3    H264470   4.367   1.441   6.184  0.5320  0.6457  2.1755
14327TIP3   OH264471   2.702   2.569   0.435 -0.4121 -0.2194  0.8291
14327TIP3    H164472   2.740   2.482   0.423 -0.6192  0.1735 -3.1425
14327TIP3    H264473   2.757   2.610   0.503  1.6874 -2.2830  0.4216
14328TIP3   OH264474   5.981   2.758   4.335 -0.4671  0.2273  0.1810
14328TIP3    H164475   5.996   2.668   4.365  3.8122  0.1146 -1.9439
14328TIP3    H264476   5.891   2.757   4.301 -0.0442 -3.6109 -1.0749
14329TIP3   OH264477   0.643   2.143   5.292  0.1482  0.9187 -0.2109
14329TIP3    H164478   0.581   2.215   5.298 -0.6036  0.2548  0.0265
14329TIP3    H264479   0.688   2.157   5.209 -0.7436  1.0714 -0.6727
14330TIP3   OH264480   3.861   1.967   2.981  0.0815 -0.5406 -0.3585
14330TIP3    H164481   3.927   2.037   2.984  0.0338 -0.5390  0.9371
14330TIP3    H264482   3.777   2.013   2.985  0.0141 -0.5773 -1.3487
14331TIP3   OH264483   1.360   2.150  15.617 -0.1709 -0.6360 -0.2797
14331TIP3    H164484   1.425   2.080  15.612 -0.3562 -0.9291  1.2015
14331TIP3    H264485   1.403   2.220  15.666 -1.2810 -1.2054  1.5519
14332TIP3   OH264486   0.579   1.708  14.510  0.2323  0.1174  0.3318
14332TIP3    H164487   0.571   1.770  14.582  0.7633  1.4446 -0.7313
14332TIP3    H264488   0.664   1.727  14.471 -0.8980  0.8054 -1.8774
14333TIP3   OH264489   0.376   6.120  11.321  0.2334  0.2147  0.1919
14333TIP3    H164490   0.330   6.077  11.394  1.5031 -0.6119  0.5282
14333TIP3    H264491   0.412   6.047  11.270  0.1209  0.8235 -0.7654
14334TIP3   OH264492   3.772   2.252   0.079  1.0678 -0.0068 -0.0010
14334TIP3    H164493   3.739   2.173   0.123  1.5302 -0.3176 -0.2103
14334TIP3    H264494   3.782   2.225  -0.012  4.2858 -0.6697  0.5018
14335TIP3   OH264495   4.827   4.444   5.163  0.0178  0.0861  0.4718
14335TIP3    H164496   4.868   4.445   5.249  0.0635 -0.8642  0.4672
14335TIP3    H264497   4.900   4.447   5.101  0.0124 -0.0038  0.4620
14336TIP3   OH264498   1.185   4.708  15.690 -0.2381  0.3394  0.2614
14336TIP3    H164499   1.219   4.671  15.771  0.8976  1.4181  0.2728
14336TIP3    H264500   1.116   4.646  15.664  0.6693 -1.0310  1.0306
14337TIP3   OH264501   4.663   4.767   0.288 -0.4019 -0.1915  0.2618
14337TIP3    H164502   4.643   4.686   0.241 -2.2041 -0.0332  0.7037
14337TIP3    H264503   4.755   4.758   0.314  0.6548 -0.2832 -3.2440
14338TIP3   OH264504   5.939   6.424  13.691 -0.6330 -0.5968  0.0356
14338TIP3    H164505   5.980   6.508  13.706  1.4198 -1.4977 -0.3364
14338TIP3    H264506   5.952   6.375  13.772 -1.8413 -0.5507  0.2648
14339TIP3   OH264507   6.771   4.028   4.590 -0.0879 -0.4107 -0.6130
14339TIP3    H164508   6.722   3.962   4.639  0.8369 -1.3796 -0.9729
14339TIP3    H264509   6.746   4.013   4.499  2.5476 -2.4277 -1.0811
14340TIP3   OH264510   4.734   3.848   4.433  0.0481 -0.3253 -0.6132
14340TIP3    H164511   4.663   3.852   4.369 -0.3822 -1.9390 -0.2537
14340TIP3    H264512   4.795   3.784   4.396  1.0755  0.6429 -0.6523
14341TIP3   OH264513   0.545   6.247   0.461  0.0858  0.0859 -0.2178
14341TIP3    H164514   0.582   6.224   0.546 -0.4010 -0.9928 -0.2984
14341TIP3    H264515   0.589   6.189   0.399  0.0862  0.5366 -0.6434
14342TIP3   OH264516   3.702   2.389   0.890 -0.2306  0.7522  0.2435
14342TIP3    H164517   3.745   2.310   0.857 -1.2799  0.6260 -0.8572
14342TIP3    H264518   3.684   2.441   0.812 -0.5483  1.5792  0.8607
14343TIP3   OH264519   0.414   5.800   1.313  0.0061  0.5519  0.1573
14343TIP3    H164520   0.412   5.816   1.407  2.0627  0.0661  0.2955
14343TIP3    H264521   0.334   5.843   1.280 -0.3818  1.3046  2.0092
14344TIP3   OH264522   5.224   1.998  14.072 -0.6430 -0.2375  0.1991
14344TIP3    H164523   5.194   1.995  13.982 -1.3783  0.2746  0.4228
14344TIP3    H264524   5.319   2.012  14.066 -0.7063 -0.1064 -0.4838
14345TIP3   OH264525   2.532   1.752   0.402  0.0916 -0.3674 -0.3676
14345TIP3    H164526   2.463   1.716   0.458  1.7447 -3.2336 -0.0351
14345TIP3    H264527   2.498   1.741   0.313  0.6995 -3.3584 -0.3139
14346TIP3   OH264528   4.521   1.007  13.931 -0.8776 -0.9285  0.1523
14346TIP3    H164529   4.447   0.959  13.967 -0.8154 -0.4503  0.9200
14346TIP3    H264530   4.586   1.008  14.001 -1.1260  0.8145  0.3790
14347TIP3   OH264531   6.782   0.443   0.188 -0.3952 -0.4304 -1.0370
14347TIP3    H164532   6.690   0.435   0.215 -0.4171  0.3796 -0.8681
14347TIP3    H264533   6.797   0.366   0.133 -1.2722 -0.3928 -1.3415
14348TIP3   OH264534   3.988   2.433   6.172 -0.0299 -0.3548 -0.1003
14348TIP3    H164535   4.015   2.443   6.263  0.4588 -0.7996 -0.1918
14348TIP3    H264536   3.966   2.341   6.163  1.3313 -0.6191 -0.7983
14349TIP3   OH264537   2.034   5.998   2.854 -0.3816 -0.0001 -0.4121
14349TIP3    H164538   2.007   5.918   2.810 -0.4151  1.2677 -2.8093
14349TIP3    H264539   2.081   5.969   2.932  0.5456 -2.3530 -1.8110
14350TIP3   OH264540   6.801   4.562   0.370  0.4721 -0.1517  0.1218
14350TIP3    H164541   6.856   4.516   0.306 -1.0253  1.8818 -2.7333
14350TIP3    H264542   6.715   4.565   0.329 -0.0887  2.8338  1.4173
14351TIP3   OH264543   3.648   6.260  11.770 -0.5567 -0.1170  0.8594
14351TIP3    H164544   3.735   6.295  11.786 -0.4010 -0.3607  0.5525
14351TIP3    H264545   3.589   6.322  11.812 -0.3073  0.7497 -0.0609
14352TIP3   OH264546   3.056   0.562   0.900  0.1531  0.5868  0.2428
14352TIP3    H164547   3.066   0.492   0.835 -0.5658  0.0400  0.7121
14352TIP3    H264548   2.994   0.624   0.859  2.8419  2.3562 -1.3175
14353TIP3   OH264549   5.021   5.133   3.598  0.0535 -0.2287 -0.3364
14353TIP3    H164550   5.094   5.123   3.658  0.7680  0.4031 -1.1014
14353TIP3    H264551   5.059   5.172   3.520 -0.7730 -1.4852 -1.3899
14354TIP3   OH264552   5.992   5.473  12.689 -0.1324  0.3398 -0.1252
14354TIP3    H164553   5.985   5.561  12.726 -1.5592  0.3144 -0.2890
14354TIP3    H264554   5.939   5.476  12.610  2.5875  0.2828 -1.9936
14355TIP3   OH264555   4.544   1.498   2.385 -0.4415 -0.0490  0.4572
14355TIP3    H164556   4.462   1.468   2.347 -1.1736  1.2514  0.9780
14355TIP3    H264557   4.611   1.445   2.343 -1.4192 -0.0599 -1.1049
14356TIP3   OH264558   6.269   3.759  11.390 -0.9666  0.2567  0.2279
14356TIP3    H164559   6.238   3.692  11.329 -0.7293 -0.3855  0.8057
14356TIP3    H264560   6.200   3.766  11.456 -0.6167 -0.0217  0.6274
14357TIP3   OH264561   3.046   4.923   3.759 -0.1502  0.1285  0.1792
14357TIP3    H164562   3.085   4.895   3.842 -2.7197  1.6157  1.9303
14357TIP3    H264563   3.015   4.842   3.719  1.7285 -0.6844  0.2897
14358TIP3   OH264564   6.378   5.698  16.368  0.1066  0.3010 -0.3328
14358TIP3    H164565   6.335   5.687  16.283  0.6943  1.0004 -0.7208
14358TIP3    H264566   6.306   5.713  16.430 -0.4148 -1.4457 -0.4937
14359TIP3   OH264567   1.783   1.623  12.238 -0.6422 -0.1422  0.5136
14359TIP3    H164568   1.842   1.699  12.243  0.2898 -0.8102 -0.1936
14359TIP3    H264569   1.792   1.580  12.322 -0.6386  0.1350  0.6578
14360TIP3   OH264570   3.261   5.721  14.042 -0.1213  0.4410  0.5740
14360TIP3    H164571   3.198   5.686  13.979  0.4594  0.9190 -0.2995
14360TIP3    H264572   3.276   5.650  14.105  2.2658 -1.5313 -2.0605
14361TIP3   OH264573   3.923   6.284  13.812 -0.8467 -0.0196 -0.1963
14361TIP3    H164574   3.967   6.242  13.886 -0.8415 -1.0740 -0.7956
14361TIP3    H264575   3.890   6.212  13.759 -0.8840  0.7307 -1.2125
14362TIP3   OH264576   0.939   5.897   1.907 -0.2908  0.0658 -0.6929
14362TIP3    H164577   1.012   5.954   1.932 -0.3989 -0.2085  0.2608
14362TIP3    H264578   0.980   5.824   1.861 -0.1632  0.9708 -2.0432
14363TIP3   OH264579   6.381   2.746   2.621  0.7771  0.4271  0.1009
14363TIP3    H164580   6.438   2.781   2.689  1.0945 -0.7859  0.4693
14363TIP3    H264581   6.441   2.717   2.552  0.5317  0.4725 -0.1332
14364TIP3   OH264582   3.863   4.296   5.705 -0.6023  0.1359  0.0537
14364TIP3    H164583   3.880   4.203   5.719 -0.6152  0.2781  1.0522
14364TIP3    H264584   3.886   4.337   5.788 -0.0845  1.0984 -0.5599
14365TIP3   OH264585   5.865   1.905  11.273 -0.1522 -0.0078 -0.0265
14365TIP3    H164586   5.826   1.819  11.253 -0.8291  0.4903 -0.9369
14365TIP3    H264587   5.894   1.898  11.363 -0.8156 -0.9829  0.1251
14366TIP3   OH264588   1.616   3.613  13.379 -0.3214  0.3579 -0.0525
14366TIP3    H164589   1.652   3.557  13.448 -2.1571 -0.8937 -0.0817
14366TIP3    H264590   1.689   3.624  13.318  0.8433  0.1666  1.2751
14367TIP3   OH264591   4.144   1.669   1.304 -0.5845 -0.1267  0.0318
14367TIP3    H164592   4.141   1.576   1.324 -0.7747  0.0164  0.6738
14367TIP3    H264593   4.087   1.710   1.369  1.6428  0.7311  1.4841
14368TIP3   OH264594   2.743   0.967   4.713 -0.4833  0.0275 -0.4913
14368TIP3    H164595   2.665   1.012   4.748 -1.2513  1.0527 -3.4180
14368TIP3    H264596   2.739   0.879   4.752 -1.8034  0.8096  1.2192
14369TIP3   OH264597   0.911   1.761  11.553  0.1889 -0.2620 -0.3178
14369TIP3    H164598   0.830   1.793  11.513  0.1248 -1.4339 -1.1423
14369TIP3    H264599   0.882   1.686  11.606  0.1318  1.7702  2.6355
14370TIP3   OH264600   4.134   3.918  15.184 -0.4065 -0.2130  0.1336
14370TIP3    H164601   4.197   3.846  15.185  0.6635  0.6949 -0.8035
14370TIP3    H264602   4.181   3.992  15.221 -1.2640  0.2066  0.4022
14371TIP3   OH264603   6.475   4.894   3.804  0.6234  0.0543 -0.0064
14371TIP3    H164604   6.559   4.874   3.764  0.4365 -1.2895  0.2629
14371TIP3    H264605   6.411   4.881   3.734  0.3905 -1.4008  0.4643
14372TIP3   OH264606   2.233   1.925  13.341 -0.0290 -0.3527  0.4521
14372TIP3    H164607   2.193   1.840  13.359 -2.1729  0.1095 -1.7477
14372TIP3    H264608   2.267   1.917  13.252  0.3272  0.8744  0.4697
14373TIP3   OH264609   4.591   4.753   4.098 -0.1517 -0.4497 -0.2351
14373TIP3    H164610   4.656   4.824   4.102 -0.1387 -0.3811 -1.5154
14373TIP3    H264611   4.623   4.688   4.161  1.0223 -0.2890 -0.6492
14374TIP3   OH264612   2.804   2.375   2.362  0.7480 -0.3009  0.2522
14374TIP3    H164613   2.721   2.422   2.351  0.7965 -0.1264  0.6220
14374TIP3    H264614   2.779   2.294   2.406  0.6985 -0.5159 -0.1636
14375TIP3   OH264615   2.515   3.949   3.038 -0.2279 -0.2506 -0.1281
14375TIP3    H164616   2.430   3.918   3.007  0.5551 -0.5576 -2.0889
14375TIP3    H264617   2.577   3.915   2.973  1.1388  1.7516  0.0898
14376TIP3   OH264618   5.044   2.393  12.386 -0.2454  0.1170 -0.4229
14376TIP3    H164619   5.000   2.356  12.462  0.8697 -1.4667 -0.5420
14376TIP3    H264620   5.125   2.343  12.378 -0.3658  0.2537 -2.6759
14377TIP3   OH264621   3.457   4.508   2.323  0.0249  0.3507 -0.0231
14377TIP3    H164622   3.437   4.519   2.230 -1.9204  0.3178  0.3831
14377TIP3    H264623   3.460   4.413   2.336  0.5074  0.3545 -0.0815
14378TIP3   OH264624   1.074   4.814  13.543 -0.4136 -0.5350 -0.1065
14378TIP3    H164625   1.168   4.797  13.541  0.1611  2.2839  0.5829
14378TIP3    H264626   1.038   4.756  13.476  1.9720 -0.8233 -1.1991
14379TIP3   OH264627   1.912   2.902  12.529  0.9331 -0.0652  0.3167
14379TIP3    H164628   1.944   2.828  12.478  1.7257  0.2166  0.3933
14379TIP3    H264629   1.986   2.927  12.585  0.9994  1.3688 -0.3871
14380TIP3   OH264630   1.233   3.836  12.080  0.4829  0.3637 -0.9987
14380TIP3    H164631   1.162   3.823  12.142  0.8437 -1.2379 -0.9095
14380TIP3    H264632   1.190   3.870  12.001 -0.1922  0.7367 -0.4779
14381TIP3   OH264633   5.409   3.324  10.445  0.0050 -0.6919 -0.2855
14381TIP3    H164634   5.352   3.248  10.454 -1.5616  0.4371 -0.4855
14381TIP3    H264635   5.350   3.399  10.451  1.4123  0.4883 -0.9488
14382TIP3   OH264636   1.857   1.412   0.694 -0.3479  0.5060  0.4784
14382TIP3    H164637   1.864   1.318   0.710 -1.7090  0.3105 -0.0245
14382TIP3    H264638   1.790   1.442   0.755 -1.4886  0.7571 -0.8727
14383TIP3   OH264639   3.642   5.352  15.879  0.0096 -0.3740 -0.1053
14383TIP3    H164640   3.643   5.273  15.827  1.3919 -0.8463  0.5971
14383TIP3    H264641   3.572   5.405  15.842 -1.6207 -2.3509  0.0769
14384TIP3   OH264642   0.885   3.012  14.934 -0.3817 -0.3232  0.1890
14384TIP3    H164643   0.809   2.982  14.984  0.2335  0.0772  1.3855
14384TIP3    H264644   0.958   3.008  14.996  0.4291  0.0242 -0.7244
14385TIP3   OH264645   3.902   1.344  15.248  0.0295  0.0485 -0.4365
14385TIP3    H164646   3.852   1.343  15.330 -0.8040 -0.6975 -0.9419
14385TIP3    H264647   3.932   1.434  15.239  0.4976  0.0378  0.9097
14386TIP3   OH264648   5.456   0.835   5.339 -0.4496  0.1535 -0.2388
14386TIP3    H164649   5.425   0.896   5.406 -0.5344 -1.3580  1.1382
14386TIP3    H264650   5.538   0.800   5.374  0.4546  0.7000 -1.7720
14387TIP3   OH264651   0.331   3.186  14.039  0.1205 -0.0004  0.9242
14387TIP3    H164652   0.333   3.273  13.999 -2.6274 -0.7320 -0.9379
14387TIP3    H264653   0.384   3.132  13.981  1.9469  0.4163  2.1587
14388TIP3   OH264654   4.817   3.746   2.288  0.3016  0.2501  0.0804
14388TIP3    H164655   4.798   3.833   2.253 -0.8470  0.9308  2.2446
14388TIP3    H264656   4.732   3.702   2.288  0.7314 -0.5895 -0.2463
14389TIP3   OH264657   0.234   0.884  16.774  0.3847 -0.4055 -0.4319
14389TIP3    H164658   0.290   0.916  16.704 -0.0447 -0.3811 -0.7655
14389TIP3    H264659   0.233   0.955  16.839  0.2079 -0.1393 -0.7269
14390TIP3   OH264660   4.088   2.957   1.248 -0.0750  0.0118  0.4507
14390TIP3    H164661   4.182   2.974   1.242 -0.1402  0.1747 -0.2008
14390TIP3    H264662   4.082   2.874   1.296  0.5083 -1.0678 -1.2853
14391TIP3   OH264663   6.285   6.322   2.098  0.1656 -0.0069  0.9020
14391TIP3    H164664   6.279   6.376   2.019  0.2755  0.3740  1.1536
14391TIP3    H264665   6.244   6.239   2.074  3.1098 -1.0889 -0.6122
14392TIP3   OH264666   3.166   2.676  13.123  0.0161  0.0884  0.2781
14392TIP3    H164667   3.215   2.658  13.042  0.0144  1.0655  0.0528
14392TIP3    H264668   3.217   2.743  13.167 -0.0218 -0.3982  1.0664
14393TIP3   OH264669   2.254   0.369  16.090 -0.2779  0.2710 -0.0809
14393TIP3    H164670   2.231   0.322  16.011 -0.1485 -1.8786  1.1147
14393TIP3    H264671   2.321   0.314  16.132  1.1386  2.3657  0.5200
14394TIP3   OH264672   0.129   0.241   5.803  0.7331 -0.3836 -0.1033
14394TIP3    H164673   0.146   0.331   5.776  0.1184 -0.3474 -0.3954
14394TIP3    H264674   0.162   0.236   5.892  1.6321 -0.1392 -0.4104
14395TIP3   OH264675   2.860   4.489   5.080  0.1250  0.5060  0.7511
14395TIP3    H164676   2.860   4.429   5.154  0.0459 -0.3388  0.0828
14395TIP3    H264677   2.776   4.474   5.037 -0.2241  1.6599  1.0167
14396TIP3   OH264678   6.515   1.007  15.779  0.6266  0.4994  0.1955
14396TIP3    H164679   6.571   0.931  15.797  2.7510  2.1030  0.5055
14396TIP3    H264680   6.430   0.984  15.817  0.9797 -2.0666 -0.4740
14397TIP3   OH264681   5.697   5.419  14.530 -0.2625 -0.1209 -0.4870
14397TIP3    H164682   5.790   5.397  14.538 -0.0786  0.1975 -1.6328
14397TIP3    H264683   5.658   5.389  14.612  0.7070 -0.9783 -0.3321
14398TIP3   OH264684   0.499   3.027   1.125  0.0843  0.2010  0.0017
14398TIP3    H164685   0.472   3.041   1.035 -0.2433  1.1724  0.2514
14398TIP3    H264686   0.587   2.989   1.118  0.3491  0.9371 -0.6996
14399TIP3   OH264687   2.126   1.933   2.520 -0.1554  0.1440 -0.6025
14399TIP3    H164688   2.093   1.982   2.445 -1.3806 -2.9544 -2.1786
14399TIP3    H264689   2.051   1.928   2.580  0.4404  1.5195  0.2701
14400TIP3   OH264690   2.786   6.278  10.804  0.1273  0.3643  0.8045
14400TIP3    H164691   2.871   6.234  10.797  1.0089  1.9635  1.2645
14400TIP3    H264692   2.726   6.209  10.834  1.2644 -0.7632  0.5486
14401TIP3   OH264693   3.030   4.389   6.353  1.0114 -0.2581 -0.3135
14401TIP3    H164694   2.969   4.345   6.412  2.1709 -0.4742  0.7411
14401TIP3    H264695   3.003   4.481   6.356  1.1497 -0.2402  0.6805
14402TIP3   OH264696   3.770   1.768  11.683  0.0788  0.0311  0.2351
14402TIP3    H164697   3.782   1.828  11.610 -3.2032 -0.7828 -1.0188
14402TIP3    H264698   3.725   1.820  11.750  0.3846 -0.0764  0.5301
14403TIP3   OH264699   1.422   0.277  12.682 -0.3029 -0.3445 -0.1430
14403TIP3    H164700   1.394   0.190  12.656  0.4286 -1.1874  1.8492
14403TIP3    H264701   1.492   0.263  12.745 -1.2716  1.6517  1.4578
14404TIP3   OH264702   0.574   1.299   2.652 -0.3331  0.3236  0.3826
14404TIP3    H164703   0.578   1.376   2.597  0.1045 -0.2056 -0.3270
14404TIP3    H264704   0.664   1.285   2.682  0.0372 -1.2368 -1.3458
14405TIP3   OH264705   1.144   0.828  11.608 -0.6466 -0.2301 -0.3151
14405TIP3    H164706   1.190   0.860  11.686 -2.8396  1.6605  0.2804
14405TIP3    H264707   1.150   0.733  11.614 -1.3570 -0.1549  2.5709
14406TIP3   OH264708   3.897   3.915  15.583 -0.0663 -0.2630  0.2329
14406TIP3    H164709   3.956   3.925  15.658 -0.0784 -1.4758  0.4136
14406TIP3    H264710   3.810   3.937  15.618 -0.1557 -1.3706  0.7259
14407TIP3   OH264711   5.011   0.086  13.629 -0.3152 -0.0191  0.2082
14407TIP3    H164712   5.089   0.033  13.641 -0.5366  0.0695  2.1406
14407TIP3    H264713   5.025   0.130  13.545  1.2105 -0.8217  0.0256
14408TIP3   OH264714   2.447   0.031   2.953  0.7339  0.1937  0.0367
14408TIP3    H164715   2.398  -0.034   2.904  0.2865  2.1182 -2.1310
14408TIP3    H264716   2.387   0.061   3.021 -0.0273  0.3560 -0.7099
14409TIP3   OH264717   0.462   0.472  12.549  0.1742 -0.1580 -0.0124
14409TIP3    H164718   0.451   0.510  12.461  0.2013 -0.3003 -0.0758
14409TIP3    H264719   0.556   0.482  12.568 -0.1039  1.3533  0.6671
14410TIP3   OH264720   0.946   0.985  12.355 -0.0408  0.0527  0.1606
14410TIP3    H164721   0.987   1.013  12.437 -0.0763  0.0604  0.1763
14410TIP3    H264722   0.984   0.899  12.339  0.8308  0.5293 -0.4030
14411TIP3   OH264723   6.338   4.533  16.001 -0.0938 -0.3747  0.9765
14411TIP3    H164724   6.419   4.580  15.984  0.1175 -0.5406  1.4994
14411TIP3    H264725   6.335   4.466  15.932 -0.4397  0.4502  0.1846
14412TIP3   OH264726   3.994   1.532  15.735 -0.0858  0.0816 -0.7527
14412TIP3    H164727   3.965   1.504  15.821 -0.5369 -1.4396 -1.3906
14412TIP3    H264728   4.079   1.573  15.750 -0.9585  1.4198  0.6403
14413TIP3   OH264729   4.689   3.425   4.739 -0.5802 -0.2311 -0.2347
14413TIP3    H164730   4.635   3.504   4.731 -0.9566 -0.5965 -1.2858
14413TIP3    H264731   4.779   3.456   4.724 -0.8320 -0.1691 -1.6483
14414TIP3   OH264732   0.820   4.312   1.719 -0.2109 -0.0412  0.0815
14414TIP3    H164733   0.913   4.329   1.701  0.1924 -0.6827  1.4669
14414TIP3    H264734   0.799   4.234   1.667  0.6691 -1.2920  1.5554
14415TIP3   OH264735   3.198   2.572   2.789 -0.6094  0.1568 -0.2150
14415TIP3    H164736   3.116   2.550   2.745 -0.6084  0.5325 -0.4053
14415TIP3    H264737   3.176   2.645   2.846 -0.6055 -0.3115  0.3971
14416TIP3   OH264738   3.195   2.638   5.108  0.3343 -0.2844 -0.0716
14416TIP3    H164739   3.153   2.719   5.138 -1.8731  0.2198 -4.1740
14416TIP3    H264740   3.288   2.659   5.107 -0.0500  1.6308  0.6051
14417TIP3   OH264741   4.334   3.952   4.501  0.5083  0.3400 -0.4470
14417TIP3    H164742   4.331   3.869   4.550  0.4430  0.1434 -0.7842
14417TIP3    H264743   4.262   3.946   4.438 -0.0992  1.0594  0.1651
14418TIP3   OH264744   5.093   3.334  10.699 -0.1844 -0.4049  0.8334
14418TIP3    H164745   5.151   3.360  10.628  0.8284 -0.4172  1.6420
14418TIP3    H264746   5.005   3.337  10.661  0.4849 -2.2826 -0.9741
14419TIP3   OH264747   3.029   0.562   6.434  0.4603 -0.0281 -0.0909
14419TIP3    H164748   3.052   0.606   6.352  2.2289 -1.3465 -0.3581
14419TIP3    H264749   3.111   0.563   6.484 -1.2429  3.0718  2.8037
14420TIP3   OH264750   5.091   4.508  11.601  0.3653 -0.2516  0.5642
14420TIP3    H164751   5.098   4.565  11.678 -1.4093 -0.9327  1.2732
14420TIP3    H264752   5.005   4.528  11.565  0.6852 -0.8268 -0.5308
14421TIP3   OH264753   3.059   2.605  12.422 -0.0178 -0.2493 -0.0072
14421TIP3    H164754   2.968   2.609  12.449 -0.3277 -0.6070 -0.9714
14421TIP3    H264755   3.061   2.536  12.355  1.1183 -0.8521  0.6365
14422TIP3   OH264756   1.112   5.736   5.104 -0.3023  0.1589 -0.4145
14422TIP3    H164757   1.023   5.770   5.095 -0.1315  0.3312 -1.5708
14422TIP3    H264758   1.114   5.696   5.191 -1.5932 -0.0942 -0.4884
14423TIP3   OH264759   4.016   4.395  15.501  0.0161  0.2344 -0.6210
14423TIP3    H164760   4.028   4.300  15.497  1.5137  0.4425 -1.3342
14423TIP3    H264761   4.026   4.416  15.594  0.6929 -0.1842 -0.5944
14424TIP3   OH264762   3.049   3.739  12.366  0.5893 -0.4333  0.1688
14424TIP3    H164763   3.044   3.646  12.387 -2.0226 -0.1307  0.9935
14424TIP3    H264764   3.005   3.748  12.282  0.6022  0.1117  0.2184
14425TIP3   OH264765   1.494   4.371  12.224 -0.1138  0.5409 -0.4728
14425TIP3    H164766   1.450   4.353  12.140  1.1484 -1.3093 -0.7559
14425TIP3    H264767   1.427   4.415  12.276 -1.6848 -0.3888 -1.6343
14426TIP3   OH264768   1.270   6.267  11.889 -0.3601  0.0000  0.0999
14426TIP3    H164769   1.261   6.246  11.796  0.2824  0.2820 -0.0271
14426TIP3    H264770   1.245   6.359  11.896 -0.2590  0.0220  0.1799
14427TIP3   OH264771   2.694   6.702   2.887 -0.2853  0.3962 -0.0960
14427TIP3    H164772   2.769   6.722   2.943  0.4629  0.2858 -1.0546
14427TIP3    H264773   2.630   6.771   2.906  0.5368  1.1753 -0.1576
14428TIP3   OH264774   3.070   6.288   5.881  0.3597  0.2018 -0.5900
14428TIP3    H164775   3.164   6.278   5.897  0.4198  0.6898 -0.6322
14428TIP3    H264776   3.030   6.287   5.968  0.6346  2.3424 -0.4119
14429TIP3   OH264777   2.573   1.894   1.168  0.6362  0.5291 -0.1043
14429TIP3    H164778   2.552   1.821   1.227 -2.2219  1.0785 -0.3471
14429TIP3    H264779   2.504   1.891   1.102  1.7167  2.1627 -1.3434
14430TIP3   OH264780   2.788   6.122  12.169 -0.2676  0.2021  0.0999
14430TIP3    H164781   2.760   6.033  12.146 -1.2529  1.2400 -2.8835
14430TIP3    H264782   2.787   6.123  12.265  0.2847 -3.1578  0.2047
14431TIP3   OH264783   1.587   3.416  14.418  0.3513  0.3006  0.1141
14431TIP3    H164784   1.628   3.486  14.367 -0.8479  0.5929 -0.4566
14431TIP3    H264785   1.499   3.448  14.438 -0.1811 -1.0069 -0.0772
14432TIP3   OH264786   1.056   2.967   2.788  0.3666 -0.0584  0.0269
14432TIP3    H164787   1.072   3.001   2.700 -1.6000 -0.8047 -0.6602
14432TIP3    H264788   0.964   2.941   2.786  0.4206 -0.4540  2.1922
14433TIP3   OH264789   6.678   1.279   2.860 -0.4267 -0.3519 -0.7005
14433TIP3    H164790   6.592   1.313   2.885  1.0365  2.0393  1.3448
14433TIP3    H264791   6.718   1.350   2.811  1.1898 -0.6374  0.1845
14434TIP3   OH264792   6.658   5.372   4.427  0.0531  0.2402  0.1417
14434TIP3    H164793   6.588   5.420   4.471 -0.4073 -2.2490  2.2120
14434TIP3    H264794   6.724   5.359   4.495  0.7880 -0.8260 -0.7654
14435TIP3   OH264795   3.484   5.760   1.015  0.2628 -0.1927  0.0707
14435TIP3    H164796   3.502   5.794   0.927  1.6063 -3.7295 -1.0981
14435TIP3    H264797   3.402   5.712   1.006 -0.5802  1.0078  1.2241
14436TIP3   OH264798   5.030   2.371  16.711  0.0898 -0.6659 -0.3605
14436TIP3    H164799   4.992   2.422  16.783 -2.7382 -1.3363 -1.3169
14436TIP3    H264800   5.064   2.292  16.753  1.4020  0.3925  0.6433
14437TIP3   OH264801   4.951   1.460   4.519 -0.1325 -0.2980 -0.1474
14437TIP3    H164802   5.025   1.403   4.496 -1.7422 -1.6848 -2.0790
14437TIP3    H264803   4.897   1.461   4.440 -2.8451 -0.3798  1.6569
14438TIP3   OH264804   4.183   4.044   3.539 -0.6493  0.0067  0.4090
14438TIP3    H164805   4.176   4.139   3.527 -0.3339 -0.1590 -1.3262
14438TIP3    H264806   4.128   4.024   3.614  1.1852  1.8816  2.3105
14439TIP3   OH264807   2.928   6.563  15.248 -0.1868 -0.5858  0.0866
14439TIP3    H164808   2.919   6.500  15.176  4.7293 -1.9529  0.4708
14439TIP3    H264809   2.890   6.519  15.324  0.4724 -1.8469 -0.3067
14440TIP3   OH264810   6.740   3.440  13.861 -0.1385  0.5302 -0.1808
14440TIP3    H164811   6.746   3.376  13.791 -0.3571  1.3190 -0.9232
14440TIP3    H264812   6.780   3.396  13.937  1.4098  0.2250 -1.1588
14441TIP3   OH264813   3.520   6.122   2.680  0.3510  0.5230  0.2334
14441TIP3    H164814   3.530   6.204   2.729 -2.7013  1.0044  0.1432
14441TIP3    H264815   3.437   6.086   2.711 -0.4805 -0.3442 -2.8700
14442TIP3   OH264816   2.303   2.846  12.278 -0.4557  0.4541  0.3086
14442TIP3    H164817   2.279   2.934  12.306 -0.8216  0.5490 -0.2766
14442TIP3    H264818   2.239   2.825  12.209  1.7981  1.1263 -2.0720
14443TIP3   OH264819   2.108   1.716   6.101  0.3959  0.7491 -0.0138
14443TIP3    H164820   2.113   1.810   6.085  0.4809  0.7480  0.0028
14443TIP3    H264821   2.171   1.701   6.173  1.1237  0.5242 -0.6903
14444TIP3   OH264822   0.957   4.108   1.896 -0.7224 -0.2560  0.5143
14444TIP3    H164823   1.003   4.044   1.949  0.0056  0.6796  1.0370
14444TIP3    H264824   0.866   4.101   1.924 -0.5370 -0.5891  1.0508
14445TIP3   OH264825   2.222   3.125  12.332  0.1655  0.4264  0.0334
14445TIP3    H164826   2.305   3.171  12.341  0.4727  0.3567 -2.1549
14445TIP3    H264827   2.193   3.146  12.243 -2.8285  1.5392  1.2015
14446TIP3   OH264828   4.044   3.744  12.458 -0.6532  0.1845 -0.0896
14446TIP3    H164829   3.970   3.692  12.488 -0.1440 -0.8984 -0.6812
14446TIP3    H264830   4.120   3.707  12.502  0.0127 -1.0178 -2.1696
14447TIP3   OH264831   0.704   6.394   4.807  0.4845  0.1484  0.7553
14447TIP3    H164832   0.725   6.332   4.877  0.3340  0.2312  0.8729
14447TIP3    H264833   0.646   6.458   4.848 -0.9970 -0.7605  0.1198
14448TIP3   OH264834   2.756   0.820   5.910  0.1141 -0.4726  0.2565
14448TIP3    H164835   2.685   0.764   5.940  0.0450 -0.9522 -0.7735
14448TIP3    H264836   2.829   0.760   5.896  1.0077  0.1345  2.1500
14449TIP3   OH264837   1.536   0.322  14.555 -0.7588  0.1804 -0.5532
14449TIP3    H164838   1.618   0.337  14.603  1.0103 -0.9684 -3.0754
14449TIP3    H264839   1.540   0.386  14.483 -2.4851  0.6388 -0.2604
14450TIP3   OH264840   6.740   1.287   4.703 -0.7875 -0.1434  0.2050
14450TIP3    H164841   6.797   1.232   4.757  0.2333  0.7926  0.0975
14450TIP3    H264842   6.767   1.377   4.723 -3.0254  0.3839  1.0354
14451TIP3   OH264843   4.478   0.739  16.216 -0.1359  0.2329  0.0564
14451TIP3    H164844   4.395   0.779  16.190  0.6272  0.5201 -2.0573
14451TIP3    H264845   4.537   0.813  16.231 -0.3968  0.0499  2.1287
14452TIP3   OH264846   0.192   0.235  14.628  0.3776 -0.5697  0.2862
14452TIP3    H164847   0.134   0.264  14.699 -0.6076 -0.6632 -0.4718
14452TIP3    H264848   0.189   0.307  14.565  0.3420 -0.9880 -0.1867
14453TIP3   OH264849   1.189   6.442  16.726 -0.4310  0.1909  0.5166
14453TIP3    H164850   1.179   6.351  16.701  0.1595 -0.1427  1.4499
14453TIP3    H264851   1.131   6.490  16.667 -1.9960 -0.9485  1.0705
14454TIP3   OH264852   2.273   5.435  12.761 -0.8909  0.0036 -0.2678
14454TIP3    H164853   2.301   5.380  12.688 -0.0059  0.5579 -0.3509
14454TIP3    H264854   2.307   5.522  12.741 -1.3105  0.3308  0.4203
14455TIP3   OH264855   0.867   4.085  17.179  0.1888  0.5967 -0.7911
14455TIP3    H164856   0.894   4.057  17.091 -0.8681 -0.9819 -0.6346
14455TIP3    H264857   0.773   4.067  17.182  0.1140  1.1411  0.4894
14456TIP3   OH264858   0.387   5.182   0.821 -0.2456  0.1304  0.4252
14456TIP3    H164859   0.359   5.259   0.871 -0.3380  1.7661 -2.0515
14456TIP3    H264860   0.345   5.192   0.736  1.9192 -1.2278 -0.8569
14457TIP3   OH264861   1.280   6.627  16.902 -0.1099 -0.6751 -0.0495
14457TIP3    H164862   1.251   6.542  16.867 -0.4811 -0.6588  0.2165
14457TIP3    H264863   1.375   6.622  16.900 -0.1265 -0.8423 -0.6612
14458TIP3   OH264864   3.973   5.600   2.138  0.0432 -0.6777  0.6430
14458TIP3    H164865   4.057   5.603   2.091  0.3633 -0.3724  1.2192
14458TIP3    H264866   3.974   5.679   2.193 -0.0990 -1.2954  1.5405
14459TIP3   OH264867   2.226   2.175   5.682  0.0648 -0.1285  0.3774
14459TIP3    H164868   2.212   2.107   5.748  0.7453 -0.1301  0.5335
14459TIP3    H264869   2.189   2.254   5.720  0.9962  0.0057  1.0365
14460TIP3   OH264870   5.856   4.811  10.877 -0.1409 -0.1433 -0.0863
14460TIP3    H164871   5.864   4.733  10.821  0.0803 -0.3274  0.2025
14460TIP3    H264872   5.893   4.882  10.823 -2.3310  0.1823 -1.2086
14461TIP3   OH264873   3.628   3.880  10.667 -0.5061  0.4860 -0.0369
14461TIP3    H164874   3.699   3.940  10.692  1.2366 -1.3501 -0.4923
14461TIP3    H264875   3.613   3.827  10.745 -0.1232 -0.3291 -0.5116
14462TIP3   OH264876   5.565   1.944  11.878 -0.0714  0.3813 -0.4698
14462TIP3    H164877   5.603   1.863  11.913 -1.1662  0.3687  0.7377
14462TIP3    H264878   5.623   1.969  11.806  1.7356 -0.0902  0.7923
14463TIP3   OH264879   1.015   1.635  11.115 -0.3081 -0.3877  0.2680
14463TIP3    H164880   0.960   1.557  11.105 -0.1316 -0.5159  0.2769
14463TIP3    H264881   1.054   1.625  11.202  0.9857 -1.1243 -0.3666
14464TIP3   OH264882   6.134   5.792  12.457 -0.8745 -0.0962 -0.0910
14464TIP3    H164883   6.102   5.799  12.367  0.3848 -0.3371 -0.5653
14464TIP3    H264884   6.057   5.767  12.508 -1.8276  1.1020 -0.9291
14465TIP3   OH264885   4.334   6.370  15.578  0.1302  0.5001 -0.0966
14465TIP3    H164886   4.317   6.343  15.488  0.4804 -2.0387  0.5680
14465TIP3    H264887   4.327   6.290  15.630  2.9786  1.3250  1.7097
14466TIP3   OH264888   4.140   6.623   5.886  0.0322  0.2010  0.1041
14466TIP3    H164889   4.166   6.707   5.848  1.1588 -0.4880 -0.6612
14466TIP3    H264890   4.222   6.576   5.899 -0.4798 -0.2744  1.7753
14467TIP3   OH264891   1.354   0.069   0.756  0.0332 -0.1277  0.4890
14467TIP3    H164892   1.393   0.129   0.693  2.0508 -0.8102  1.0568
14467TIP3    H264893   1.412   0.071   0.832 -0.8762 -1.3765  1.2515
14468TIP3   OH264894   5.922   6.626  14.283  0.2706 -0.4594 -0.0610
14468TIP3    H164895   5.896   6.716  14.264  3.3982  0.1891 -1.6780
14468TIP3    H264896   5.871   6.573  14.222  0.0808  0.4321 -0.6890
14469TIP3   OH264897   6.182   3.844  15.528 -0.5573 -0.7897  0.7205
14469TIP3    H164898   6.222   3.874  15.609 -1.4736 -1.9995  1.6421
14469TIP3    H264899   6.088   3.840  15.548 -0.8415 -0.5940 -0.5550
14470TIP3   OH264900   1.486   2.805  13.657 -0.0612  0.3198  0.8787
14470TIP3    H164901   1.457   2.891  13.628 -1.7973 -0.7820 -0.8037
14470TIP3    H264902   1.474   2.806  13.752 -1.1810  1.5372  0.7337
14471TIP3   OH264903   6.520   3.067   1.672  0.4751  0.4649 -0.3398
14471TIP3    H164904   6.468   3.062   1.591 -2.8575  2.5125  1.5749
14471TIP3    H264905   6.579   3.142   1.658 -1.9717  2.5302  0.1016
14472TIP3   OH264906   3.617   0.781  12.045  0.1925 -0.3684 -0.4527
14472TIP3    H164907   3.713   0.782  12.041  0.2691  2.3379  1.0608
14472TIP3    H264908   3.595   0.688  12.050  2.6508 -1.1155 -2.0442
14473TIP3   OH264909   6.363   5.934   4.756 -0.1975  0.5000 -0.1923
14473TIP3    H164910   6.296   5.999   4.777  0.0208  1.2023 -1.6184
14473TIP3    H264911   6.392   5.957   4.667  0.4669 -1.0414 -0.3894
14474TIP3   OH264912   2.233   4.137   4.171 -0.3457 -0.3262  0.0120
14474TIP3    H164913   2.289   4.076   4.123  0.7658  0.7599 -0.1000
14474TIP3    H264914   2.157   4.150   4.115  0.2542 -0.2191 -0.7823
14475TIP3   OH264915   0.070   6.367  14.639  0.4642 -0.1478  0.3587
14475TIP3    H164916  -0.024   6.367  14.658  0.5632  0.5654  0.8934
14475TIP3    H264917   0.087   6.454  14.603  0.6874 -0.7377 -0.9597
14476TIP3   OH264918   2.085   4.974  12.276  0.6315 -0.2636  0.2421
14476TIP3    H164919   2.112   5.053  12.323  1.1575 -0.1932 -0.1810
14476TIP3    H264920   2.071   4.909  12.346  0.2239  0.1878  0.5854
14477TIP3   OH264921   1.323   2.401   2.254 -0.4488  0.4620  0.2523
14477TIP3    H164922   1.349   2.462   2.185  0.3020  0.6695  0.7110
14477TIP3    H264923   1.359   2.438   2.334  0.1854 -0.6744  0.5115
14478TIP3   OH264924   0.167   3.352  13.134  0.4080  0.2017 -0.4426
14478TIP3    H164925   0.185   3.333  13.042  1.9779  1.3370 -0.4066
14478TIP3    H264926   0.073   3.367  13.138  0.2362 -0.4588 -1.7471
14479TIP3   OH264927   0.775   4.463  13.166 -0.3616 -0.8480 -0.1187
14479TIP3    H164928   0.778   4.406  13.243 -0.7676 -1.0430 -0.2429
14479TIP3    H264929   0.683   4.462  13.140 -0.5885  0.7636  0.5488
14480TIP3   OH264930   0.976   1.279  11.389 -0.8171 -0.3940 -0.3129
14480TIP3    H164931   0.906   1.322  11.339  0.5133  1.1979 -0.8444
14480TIP3    H264932   1.027   1.232  11.323  0.6864  1.3556 -0.4400
14481TIP3   OH264933   0.016   5.897  13.905  0.4369  0.0280 -0.2994
14481TIP3    H164934  -0.010   5.988  13.921 -2.5408 -0.6754 -0.7349
14481TIP3    H264935  -0.027   5.875  13.822 -0.3054 -2.2758  0.6471
14482TIP3   OH264936   2.855   2.109  13.082 -0.8508 -0.2769  0.3324
14482TIP3    H164937   2.916   2.086  13.011 -1.8559  0.6293 -0.8537
14482TIP3    H264938   2.910   2.109  13.161  0.1286 -2.0217 -0.3262
14483TIP3   OH264939   5.664   6.314  14.195  0.3454 -0.0456  0.0770
14483TIP3    H164940   5.623   6.228  14.189 -0.3030  0.2137  0.7281
14483TIP3    H264941   5.743   6.307  14.140 -0.4404 -0.6136 -1.0030
14484TIP3   OH264942   5.501   5.084   0.916  0.2467 -0.3304  0.3329
14484TIP3    H164943   5.567   5.101   0.983 -0.4006  0.2771  0.8252
14484TIP3    H264944   5.426   5.048   0.964 -1.4303  3.1179  0.4039
14485TIP3   OH264945   4.040   2.458   3.624  0.3055  0.0838 -0.0618
14485TIP3    H164946   3.962   2.435   3.574  1.2505 -0.6883 -1.1883
14485TIP3    H264947   4.019   2.433   3.714 -1.1627  0.9156 -0.1582
14486TIP3   OH264948   4.553   3.612   0.927 -0.3017 -0.3246 -0.5114
14486TIP3    H164949   4.567   3.639   1.018 -0.4851  1.4842 -1.0005
14486TIP3    H264950   4.639   3.622   0.886 -0.0762 -1.7199 -0.4087
14487TIP3   OH264951   1.406   0.312  12.263  0.4649  0.0684 -0.4611
14487TIP3    H164952   1.485   0.325  12.211  0.7349 -0.5867 -0.2170
14487TIP3    H264953   1.431   0.248  12.330 -0.0581  0.4281  0.0865
14488TIP3   OH264954   4.682   0.152  15.792  0.0146 -0.0133  0.2564
14488TIP3    H164955   4.771   0.160  15.759 -0.1401  0.2762 -0.0999
14488TIP3    H264956   4.677   0.214  15.865  0.0495  0.1087  0.1572
14489TIP3   OH264957   4.340   1.367  12.779 -0.2771  0.1007 -0.2945
14489TIP3    H164958   4.385   1.283  12.767 -0.7998 -0.1955 -0.1858
14489TIP3    H264959   4.276   1.370  12.708 -0.7599  0.0731  0.1367
14490TIP3   OH264960   3.911   6.584  14.847  0.2438  0.2384  0.2986
14490TIP3    H164961   3.878   6.533  14.773  1.3875  0.2349 -0.2209
14490TIP3    H264962   3.978   6.641  14.809  1.4556 -0.3825  1.4601
14491TIP3   OH264963   1.562   3.113  14.520 -1.0452  0.1236  0.0918
14491TIP3    H164964   1.621   3.100  14.445 -1.0557 -2.1057  0.4525
14491TIP3    H264965   1.577   3.204  14.547  0.0995  0.4638 -1.6296
14492TIP3   OH264966   5.065   2.595   0.383  0.2060  0.4118 -0.5246
14492TIP3    H164967   5.143   2.648   0.367  0.8240 -0.5322 -0.6560
14492TIP3    H264968   5.097   2.504   0.384 -0.7739  0.0641  0.0949
14493TIP3   OH264969   0.489   6.290   4.422  0.3628  0.8406 -0.0240
14493TIP3    H164970   0.572   6.318   4.462  1.4403  0.2189 -1.7529
14493TIP3    H264971   0.515   6.225   4.356 -1.5500  0.3316 -0.3125
14494TIP3   OH264972   0.860   6.158   6.368  0.4897  0.4364 -0.5383
14494TIP3    H164973   0.840   6.084   6.425  3.4168  0.6853  0.8725
14494TIP3    H264974   0.890   6.227   6.427 -0.7430  2.2582 -1.9810
14495TIP3   OH264975   3.098   2.866  15.192  0.3286  0.3773 -0.3403
14495TIP3    H164976   3.076   2.911  15.110  0.9176 -0.5761 -1.0274
14495TIP3    H264977   3.053   2.782  15.186 -1.7282  1.2984  1.4554
14496TIP3   OH264978   5.473   1.588  15.341  0.0582 -0.1666  0.2490
14496TIP3    H164979   5.503   1.507  15.299 -0.4901  0.8878 -2.2547
14496TIP3    H264980   5.390   1.565  15.382 -1.8127 -0.1318 -3.3176
14497TIP3   OH264981   5.000   1.822   3.841 -0.1571  0.9338 -0.1628
14497TIP3    H164982   4.911   1.803   3.871 -0.0805 -0.1876 -0.6113
14497TIP3    H264983   4.991   1.902   3.790 -1.0157  0.5136 -0.6917
14498TIP3   OH264984   4.587   3.550  13.714  0.0490  0.0872  0.4211
14498TIP3    H164985   4.531   3.606  13.661  0.2980 -1.4535 -1.5025
14498TIP3    H264986   4.589   3.593  13.800 -2.1416  1.4125 -0.1619
14499TIP3   OH264987   3.519   2.343   3.336  0.3870  0.0016 -0.0018
14499TIP3    H164988   3.538   2.271   3.275 -0.4765  1.3440 -1.8836
14499TIP3    H264989   3.576   2.414   3.308 -0.3197  0.7843  0.5146
14500TIP3   OH264990   6.182   4.605  10.950  0.7023  0.5198 -0.2569
14500TIP3    H164991   6.090   4.587  10.971  0.7487 -1.3017 -1.4652
14500TIP3    H264992   6.232   4.556  11.015  0.8134  0.9055 -0.0539
14501TIP3   OH264993   4.705   5.167  13.216 -0.6859  0.0159 -0.3255
14501TIP3    H164994   4.785   5.212  13.190 -0.4897  0.2170  0.5919
14501TIP3    H264995   4.703   5.089  13.160  0.8203 -0.6412  0.4865
14502TIP3   OH264996   5.286   2.666  15.774  0.4819  0.9333 -0.3216
14502TIP3    H164997   5.380   2.687  15.778  0.8368 -0.3442 -1.7084
14502TIP3    H264998   5.262   2.680  15.682 -0.6195  0.8973 -0.0484
14503TIP3   OH264999   4.446   5.543   4.595  0.6269  0.4193  0.7081
14503TIP3    H165000   4.363   5.522   4.553  0.2403 -0.7720  2.0293
14503TIP3    H265001   4.436   5.634   4.624 -0.0886  0.3934  0.5462
14504TIP3   OH265002   0.564   0.905  14.083 -0.1533  0.6586 -0.3243
14504TIP3    H165003   0.520   0.929  14.164 -1.7084 -0.2776 -0.8707
14504TIP3    H265004   0.561   0.984  14.029 -0.5830  0.7926 -0.1054
14505TIP3   OH265005   1.685   3.639   4.194 -0.0677  0.1749 -0.1792
14505TIP3    H165006   1.705   3.639   4.288  0.5118  1.8951 -0.2890
14505TIP3    H265007   1.590   3.646   4.190 -0.0772  0.3238  0.2704
14506TIP3   OH265008   6.805   3.748  14.176  0.4368  0.6421  0.1033
14506TIP3    H165009   6.888   3.702  14.175  0.8035  1.2747  0.6206
14506TIP3    H265010   6.778   3.748  14.268  0.7201  1.9260  0.2025
14507TIP3   OH265011   4.595   2.148  15.240  0.1402 -0.0012 -0.1565
14507TIP3    H165012   4.529   2.205  15.201  0.9268 -0.3168 -1.9910
14507TIP3    H265013   4.672   2.204  15.248  0.7789 -0.6561 -1.5532
14508TIP3   OH265014   0.800   4.814  15.812 -0.4445  0.0003 -0.1805
14508TIP3    H165015   0.715   4.835  15.852 -0.7952  2.3425 -1.9900
14508TIP3    H265016   0.864   4.830  15.881 -1.2802  0.7755  0.4331
14509TIP3   OH265017   5.537   5.661   6.229 -0.6339 -0.1338 -0.1817
14509TIP3    H165018   5.459   5.614   6.259 -1.0923  1.3226  0.9929
14509TIP3    H265019   5.508   5.708   6.151 -0.7436 -0.1458 -0.1484
14510TIP3   OH265020   3.997   1.306   4.466 -0.5367  0.1337  0.4562
14510TIP3    H165021   4.065   1.322   4.531 -2.7888  0.2272  2.8337
14510TIP3    H265022   3.983   1.391   4.425  0.7747  0.1079 -0.0753
14511TIP3   OH265023   0.056   0.047  10.950 -0.6501 -0.2111 -0.6416
14511TIP3    H165024   0.121  -0.019  10.926  1.8493  2.2168 -0.7821
14511TIP3    H265025   0.006   0.062  10.870  1.8656  1.4360 -1.9600
14512TIP3   OH265026   1.460   4.704   3.294  0.2302 -0.0977  0.5330
14512TIP3    H165027   1.430   4.699   3.385  0.1579 -1.7037  0.4378
14512TIP3    H265028   1.387   4.746   3.247  0.5771  1.4487  1.3265
14513TIP3   OH265029   4.766   4.290   1.728  0.1203  0.2771 -0.1641
14513TIP3    H165030   4.727   4.377   1.719  0.3483  0.3387 -0.5838
14513TIP3    H265031   4.839   4.304   1.788 -0.0539  0.3075  0.0417
14514TIP3   OH265032   4.775   3.023  15.304  0.5541 -0.1192 -0.2357
14514TIP3    H165033   4.735   3.009  15.390  1.0578  1.3466  0.2600
14514TIP3    H265034   4.748   2.948  15.252 -0.4124 -0.6237  0.9719
14515TIP3   OH265035   4.173   6.383   5.106  0.7657  0.4421  0.1764
14515TIP3    H165036   4.189   6.288   5.108  0.3145  0.3559 -0.2155
14515TIP3    H265037   4.103   6.394   5.042  2.1673  1.2525 -1.2570
14516TIP3   OH265038   0.872   3.440   0.368  0.1099 -0.0835 -0.0903
14516TIP3    H165039   0.928   3.473   0.438  0.7018 -0.3283 -0.4430
14516TIP3    H265040   0.800   3.503   0.363 -0.0511 -0.1767  0.8757
14517TIP3   OH265041   1.533   5.510  12.481 -0.1233 -0.1222  0.5537
14517TIP3    H165042   1.622   5.475  12.476 -0.4330 -0.8132 -0.3423
14517TIP3    H265043   1.477   5.438  12.451 -1.1021 -0.1650  2.3883
14518TIP3   OH265044   6.165   5.565   2.133  0.0616 -0.1852 -0.1518
14518TIP3    H165045   6.167   5.597   2.042  1.9978  0.9373  0.2556
14518TIP3    H265046   6.172   5.470   2.125  1.0914 -0.0409 -1.1640
14519TIP3   OH265047   5.929   1.411  15.873  0.8142 -0.1404 -0.7714
14519TIP3    H165048   5.874   1.426  15.796  0.2893 -0.9707 -0.5547
14519TIP3    H265049   5.941   1.316  15.877  1.0964 -0.0791 -0.0125
14520TIP3   OH265050   1.765   1.990  11.055  0.4961  0.0738  0.3968
14520TIP3    H165051   1.817   1.916  11.026  0.2169 -0.7886  2.0442
14520TIP3    H265052   1.819   2.067  11.036  2.0440 -0.7578  1.3811
14521TIP3   OH265053   4.494   4.147   4.434 -0.3772  0.3398  0.3440
14521TIP3    H165054   4.558   4.107   4.376 -1.2079 -0.6042  0.0703
14521TIP3    H265055   4.433   4.076   4.456 -2.7960  1.7919 -1.4165
14522TIP3   OH265056   3.337   1.173  12.937 -0.4546 -0.5055  0.1932
14522TIP3    H165057   3.414   1.226  12.957 -1.4405  0.4835  1.4628
14522TIP3    H265058   3.368   1.082  12.941  1.0267 -0.0797 -1.0778
14523TIP3   OH265059   0.907   3.616  16.899 -0.2279 -0.0219 -0.6154
14523TIP3    H165060   0.950   3.562  16.833  1.1258 -0.5287  0.6228
14523TIP3    H265061   0.864   3.552  16.956  1.7235  0.1134  1.0945
14524TIP3   OH265062   3.080   5.558  14.503  0.2415  0.0280 -0.1179
14524TIP3    H165063   3.005   5.598  14.459 -0.7200 -0.3235  1.1691
14524TIP3    H265064   3.044   5.483  14.550  1.3668 -0.0541  0.6461
14525TIP3   OH265065   1.432   6.486   4.464  0.2642 -0.1573 -0.1304
14525TIP3    H165066   1.474   6.409   4.501 -0.3752 -0.9518 -1.0431
14525TIP3    H265067   1.441   6.553   4.532  0.9834 -0.9762  0.5912
14526TIP3   OH265068   5.491   5.355  16.540 -0.0927  0.1173 -0.2466
14526TIP3    H165069   5.564   5.299  16.514 -0.5695 -0.2886 -0.7251
14526TIP3    H265070   5.514   5.441  16.506  0.9907  0.3792  1.1299
14527TIP3   OH265071   4.470   2.625   2.429  0.4085  0.0407  0.0037
14527TIP3    H165072   4.540   2.590   2.373  1.8139 -0.7566  2.1518
14527TIP3    H265073   4.516   2.661   2.504 -1.2229  4.2435 -0.9180
14528TIP3   OH265074   6.725   5.317   1.855 -0.6130  1.1141 -0.2373
14528TIP3    H165075   6.767   5.396   1.888  0.3341  1.0280 -1.2069
14528TIP3    H265076   6.643   5.347   1.816 -0.8310  1.4578  0.4831
14529TIP3   OH265077   2.853   0.793   5.114 -0.0901 -0.1261 -0.0980
14529TIP3    H165078   2.857   0.888   5.102 -0.8880  0.1505  1.6054
14529TIP3    H265079   2.914   0.776   5.185 -0.3941 -0.8138 -0.0004
14530TIP3   OH265080   6.012   4.181   5.944  1.1132  0.8633 -0.1706
14530TIP3    H165081   6.057   4.175   5.860  0.7268  0.3250 -0.3449
14530TIP3    H265082   5.951   4.253   5.934  0.7787  0.5372 -0.4915
14531TIP3   OH265083   5.116   5.209  11.888 -0.4518  0.3358 -0.4005
14531TIP3    H165084   5.052   5.147  11.854 -0.7867  0.3802  0.1344
14531TIP3    H265085   5.077   5.295  11.873  0.6504  0.4998 -2.4424
14532TIP3   OH265086   5.190   5.618   2.622 -0.4228 -0.4433  0.0566
14532TIP3    H165087   5.245   5.633   2.545 -1.2341 -2.8190 -1.0335
14532TIP3    H265088   5.128   5.691   2.622  0.7723  0.5938 -0.4405
14533TIP3   OH265089   4.793   2.610   0.261 -0.2500 -0.0810  0.1165
14533TIP3    H165090   4.872   2.558   0.274 -1.0069 -1.1928  0.2455
14533TIP3    H265091   4.805   2.687   0.317 -0.2094 -1.2821  1.7661
14534TIP3   OH265092   1.691   4.203   3.001 -0.1349  0.1442 -0.0686
14534TIP3    H165093   1.684   4.148   3.078 -0.3348 -1.6731 -1.3481
14534TIP3    H265094   1.610   4.186   2.952  0.5553  0.2988 -1.2921
14535TIP3   OH265095   4.776   2.618  16.429 -0.0541 -0.7849 -0.3770
14535TIP3    H165096   4.862   2.576  16.429  1.4744  2.2230  0.4471
14535TIP3    H265097   4.770   2.661  16.514 -1.3439  1.0490 -1.3627
14536TIP3   OH265098   1.328   4.236  14.550 -0.1558 -0.6979 -0.5131
14536TIP3    H165099   1.286   4.214  14.467 -1.6613  0.7362 -0.1614
14536TIP3    H265100   1.367   4.323  14.536  1.4100 -1.3511 -0.3557
14537TIP3   OH265101   4.502   5.824   5.216 -0.5244  0.2133  0.0196
14537TIP3    H165102   4.500   5.729   5.212  0.8118  0.1881 -0.3151
14537TIP3    H265103   4.413   5.849   5.240 -1.3018 -1.0388 -1.5098
14538TIP3   OH265104   6.146   2.300   2.797  0.3575 -0.7185  0.0145
14538TIP3    H165105   6.177   2.360   2.730 -0.4738 -0.6786 -0.3358
14538TIP3    H265106   6.053   2.322   2.809  0.6037 -0.4022  1.5052
14539TIP3   OH265107   5.222   5.722   1.087 -0.0451  0.2358  0.0580
14539TIP3    H165108   5.258   5.763   1.165 -0.6989  0.4508  0.2477
14539TIP3    H265109   5.299   5.697   1.036  0.3762  0.8031  0.4013
14540TIP3   OH265110   6.579   4.264   1.080  0.1169  0.4944  0.1426
14540TIP3    H165111   6.567   4.191   1.141 -1.6135  0.9689  0.3980
14540TIP3    H265112   6.612   4.223   1.000 -2.0757 -0.7714 -0.1480
14541TIP3   OH265113   4.875   5.378   4.086 -0.6018  0.1471  0.3262
14541TIP3    H165114   4.906   5.465   4.109  0.1645  0.0253 -0.2241
14541TIP3    H265115   4.895   5.369   3.992 -1.1844 -0.4021  0.2499
14542TIP3   OH265116   6.371   3.425   1.808 -0.2907  0.8483 -0.1984
14542TIP3    H165117   6.444   3.485   1.791 -0.3448  1.4288  1.5020
14542TIP3    H265118   6.413   3.341   1.828 -0.1799  0.5829 -1.4787
14543TIP3   OH265119   5.115   2.901  16.543  0.2741 -0.3246  0.4719
14543TIP3    H165120   5.087   2.844  16.615  1.4671 -1.0825  0.3465
14543TIP3    H265121   5.100   2.849  16.464 -2.0626  0.9013  0.0451
14544TIP3   OH265122   1.783   2.428  13.297  0.1134 -0.5925 -0.3352
14544TIP3    H165123   1.824   2.485  13.233 -0.6966  0.1864 -0.1604
14544TIP3    H265124   1.857   2.390  13.346  0.6342  0.5791 -0.2094
14545TIP3   OH265125   2.353   2.579   4.411 -0.1239 -0.1701  0.3264
14545TIP3    H165126   2.312   2.517   4.350  0.7491 -0.5641  0.1368
14545TIP3    H265127   2.284   2.601   4.473 -1.2234  0.7255 -1.1716
14546TIP3   OH265128   5.822   6.086   3.813  0.1255 -0.0048  0.2260
14546TIP3    H165129   5.744   6.125   3.851 -0.6998  0.6150 -2.0496
14546TIP3    H265130   5.872   6.160   3.779  1.1583 -0.4989  0.6292
14547TIP3   OH265131   6.567   0.831   3.490 -0.3673  0.2050 -0.1375
14547TIP3    H165132   6.573   0.818   3.584  1.5286  0.2864 -0.2423
14547TIP3    H265133   6.651   0.801   3.455 -1.0000  0.2732 -1.7951
14548TIP3   OH265134   6.140   2.283  15.145  1.0083 -0.8377  0.1168
14548TIP3    H165135   6.216   2.334  15.176  1.6845 -1.0612 -1.1400
14548TIP3    H265136   6.153   2.196  15.184 -0.4659  0.0762  2.7592
14549TIP3   OH265137   4.900   2.002  13.664 -0.6947  0.8269  0.2798
14549TIP3    H165138   4.854   2.062  13.605  0.2145  0.1869 -1.0948
14549TIP3    H265139   4.830   1.952  13.707 -1.3160  0.1876 -1.4387
14550TIP3   OH265140   6.458   0.737  12.463  0.5803 -0.3853  0.1756
14550TIP3    H165141   6.384   0.797  12.458 -0.8925 -2.0069  1.6482
14550TIP3    H265142   6.486   0.725  12.372  1.9060  3.6285 -0.0555
14551TIP3   OH265143   5.918   5.796   0.328  0.2136  0.3356  0.5674
14551TIP3    H165144   5.862   5.804   0.250  2.6118  0.1427 -1.2352
14551TIP3    H265145   5.984   5.731   0.304  0.7828 -0.0020  2.9239
14552TIP3   OH265146   3.562   4.284  11.976  0.3334  0.3659 -0.3212
14552TIP3    H165147   3.467   4.274  11.979  0.3657  0.1013 -0.1165
14552TIP3    H265148   3.577   4.366  11.929  0.0251 -0.0194 -1.1065
14553TIP3   OH265149   0.988   0.026   5.285  0.4122 -0.0405 -0.2673
14553TIP3    H165150   0.963   0.051   5.374 -1.8698 -0.9032 -0.6334
14553TIP3    H265151   1.062  -0.033   5.296  3.0742  3.2812  0.8146
14554TIP3   OH265152   0.665   3.058   1.603  0.3556  0.2154 -0.1324
14554TIP3    H165153   0.615   2.982   1.630  0.8323  0.1282  0.5151
14554TIP3    H265154   0.599   3.124   1.583 -0.0622 -0.3960 -0.8005
14555TIP3   OH265155   6.768   3.616  14.700  0.0122 -0.0585 -0.1550
14555TIP3    H165156   6.833   3.678  14.667 -1.1527  0.5823 -1.3053
14555TIP3    H265157   6.770   3.628  14.795  0.1974  1.3467 -0.3237
14556TIP3   OH265158   0.030   0.678  14.750 -0.4791 -0.8224  0.0837
14556TIP3    H165159  -0.038   0.740  14.775 -0.4357 -0.9946  0.6317
14556TIP3    H265160   0.050   0.700  14.659 -1.0531 -0.5784  0.0144
14557TIP3   OH265161   3.197   2.503   5.428  0.1309 -0.1249  0.4887
14557TIP3    H165162   3.254   2.575   5.403  0.2543 -0.5219 -0.3956
14557TIP3    H265163   3.225   2.430   5.374 -2.1613  0.0557 -1.0130
14558TIP3   OH265164   0.552   1.226   3.489 -0.0525 -0.6064 -0.0038
14558TIP3    H165165   0.470   1.239   3.443 -1.2360  0.0374  2.1974
14558TIP3    H265166   0.616   1.277   3.440 -1.7439  1.9905  0.3691
14559TIP3   OH265167   4.920   1.741  15.461  0.3455 -0.1961 -0.1584
14559TIP3    H165168   4.948   1.675  15.525  2.1388  0.0513 -0.6665
14559TIP3    H265169   4.908   1.692  15.380 -0.6232 -0.2767  0.0203
14560TIP3   OH265170   1.037   0.909  17.235  0.3684  0.4257 -0.1149
14560TIP3    H165171   1.050   0.817  17.255 -0.1581  0.4090  0.1655
14560TIP3    H265172   0.947   0.927  17.261  0.3731  0.9463 -0.4438
14561TIP3   OH265173   3.947   0.419  10.542 -0.2311 -0.4553  0.7870
14561TIP3    H165174   3.922   0.335  10.581 -0.7457 -0.2448  0.9169
14561TIP3    H265175   4.040   0.429  10.563 -0.3099 -0.7216  1.2620
14562TIP3   OH265176   4.412   2.783  11.323 -0.0024 -0.1274 -0.0209
14562TIP3    H165177   4.472   2.774  11.249 -1.2066 -1.2455 -0.8821
14562TIP3    H265178   4.363   2.863  11.305 -0.1601 -0.2952 -0.3405
14563TIP3   OH265179   1.865   5.077  16.669  0.5662 -0.6179 -0.1310
14563TIP3    H165180   1.923   5.151  16.688 -1.8702  0.8677  1.8397
14563TIP3    H265181   1.860   5.073  16.574 -0.0647  2.4501 -0.2732
14564TIP3   OH265182   1.154   0.915  12.550 -0.4000  0.2877 -0.0810
14564TIP3    H165183   1.078   0.913  12.608 -0.0894  0.3996  0.3328
14564TIP3    H265184   1.194   0.828  12.559  0.0213  0.5213  0.3837
14565TIP3   OH265185   6.650   2.143  11.025 -0.1200 -0.1587 -0.0144
14565TIP3    H165186   6.574   2.155  10.969 -0.6387 -0.0029  0.7201
14565TIP3    H265187   6.718   2.109  10.967 -1.3246 -2.1708 -0.3141
14566TIP3   OH265188   2.572   1.295   4.158  0.3388 -0.7110 -0.3860
14566TIP3    H165189   2.607   1.214   4.121 -1.4362 -0.4152 -2.9081
14566TIP3    H265190   2.620   1.365   4.113 -0.1607 -0.3530 -0.3692
14567TIP3   OH265191   5.366   3.441   0.373  0.4196 -0.0710  0.0464
14567TIP3    H165192   5.391   3.528   0.343  1.0451 -0.6963 -1.2574
14567TIP3    H265193   5.327   3.456   0.460 -0.4735  1.6215 -0.6268
14568TIP3   OH265194   0.196   2.380  12.778  0.6865  0.0716  0.5907
14568TIP3    H165195   0.129   2.317  12.752  2.3583 -0.9522 -1.5268
14568TIP3    H265196   0.264   2.327  12.819  1.4342  0.6964  0.1806
14569TIP3   OH265197   5.119   2.433  15.367 -0.1733 -0.1921 -0.2809
14569TIP3    H165198   5.053   2.364  15.366  1.1207 -1.5053  1.4978
14569TIP3    H265199   5.091   2.491  15.439  0.7959 -0.9846  0.7621
14570TIP3   OH265200   2.695   5.711   2.942 -0.1591  0.2191 -0.1667
14570TIP3    H165201   2.638   5.682   3.013  0.4663  0.9727  0.6599
14570TIP3    H265202   2.713   5.631   2.892 -2.3531  0.0861 -0.7603
14571TIP3   OH265203   5.280   5.683   0.560  0.7243  0.1364  0.1955
14571TIP3    H165204   5.307   5.749   0.496  1.6524  0.4243  0.8787
14571TIP3    H265205   5.326   5.604   0.534  0.8822  0.1801  0.3404
14572TIP3   OH265206   3.386   5.610  16.172 -0.1821  0.4127 -0.3746
14572TIP3    H165207   3.365   5.654  16.254 -0.7088  0.3385 -0.4678
14572TIP3    H265208   3.301   5.588  16.134  0.0608  0.2961 -0.8563
14573TIP3   OH265209   0.488   0.138  12.345 -0.5625  0.4975 -0.2859
14573TIP3    H165210   0.532   0.148  12.261 -1.4438  0.5325 -0.7495
14573TIP3    H265211   0.443   0.054  12.340 -1.5219  0.9985 -0.2789
14574TIP3   OH265212   0.493   6.473   5.716  0.5226 -0.6574 -0.0540
14574TIP3    H165213   0.476   6.548   5.659  0.0762 -0.5548  0.2038
14574TIP3    H265214   0.519   6.403   5.657  3.5115  0.4039 -0.0805
14575TIP3   OH265215   3.920   1.394  11.157  0.2180 -0.0917  0.2775
14575TIP3    H165216   4.002   1.400  11.108  1.7104  0.2626  2.6777
14575TIP3    H265217   3.854   1.370  11.093  2.2410 -0.5033 -1.6936
14576TIP3   OH265218   2.719   6.085   2.707 -0.4541 -0.1383 -0.1527
14576TIP3    H165219   2.707   6.147   2.779  1.6008 -0.2438  0.3263
14576TIP3    H265220   2.788   6.124   2.653  0.8584 -1.9819  0.1381
14577TIP3   OH265221   6.578   0.995  12.312 -0.1369  0.0477 -0.1852
14577TIP3    H165222   6.659   0.945  12.315  0.6514  1.2898 -0.7160
14577TIP3    H265223   6.582   1.053  12.388 -0.5663  0.0558 -0.1665
14578TIP3   OH265224   0.010   5.485   0.821  0.4181 -0.3226 -0.1987
14578TIP3    H165225  -0.055   5.542   0.863  0.5946  0.6919 -1.2840
14578TIP3    H265226  -0.034   5.453   0.742  1.1951  0.3093 -0.8978
14579TIP3   OH265227   4.486   3.294   6.520  0.0262  0.1955  0.4630
14579TIP3    H165228   4.518   3.208   6.545  2.8890 -0.6621 -5.4402
14579TIP3    H265229   4.554   3.355   6.550  0.8915 -0.2487 -0.5838
14580TIP3   OH265230   0.907   5.581   3.013  0.1909  0.0524  0.4142
14580TIP3    H165231   0.918   5.511   2.948 -0.8353 -0.9951  1.3490
14580TIP3    H265232   0.816   5.607   3.005  0.1415  0.1319  1.2093
14581TIP3   OH265233   2.827   1.573  12.631 -0.2685  0.1656 -0.1309
14581TIP3    H165234   2.755   1.611  12.579 -0.1944 -0.0410 -0.3836
14581TIP3    H265235   2.804   1.481  12.641 -1.4811  0.6850  2.2232
14582TIP3   OH265236   6.118   4.219  13.357 -0.2686 -0.1504  0.3320
14582TIP3    H165237   6.034   4.263  13.341 -0.1176 -0.2454 -0.7483
14582TIP3    H265238   6.097   4.151  13.422 -1.0897 -0.3805 -0.1720
14583TIP3   OH265239   5.482   3.013   3.642  0.3310 -0.0142 -0.0552
14583TIP3    H165240   5.409   3.059   3.601  0.2589  0.5120  0.6583
14583TIP3    H265241   5.447   2.928   3.666  0.9746 -1.2128 -3.1289
14584TIP3   OH265242   1.307   4.452  13.474 -0.5260  0.3143  0.4823
14584TIP3    H165243   1.294   4.528  13.532  1.5196  1.5521 -0.6452
14584TIP3    H265244   1.295   4.487  13.386  2.0778 -0.2866 -0.1471
14585TIP3   OH265245   3.317   4.821  16.537 -0.0900  0.0030 -0.0131
14585TIP3    H165246   3.250   4.778  16.485  1.7862 -1.7446 -1.0278
14585TIP3    H265247   3.321   4.910  16.503 -0.0434 -0.6518 -1.7262
14586TIP3   OH265248   0.960   5.214   3.556 -0.1782  0.0425 -0.0654
14586TIP3    H165249   0.900   5.248   3.490 -2.3901 -1.3000  1.2104
14586TIP3    H265250   0.972   5.122   3.533 -1.5573 -0.6316  1.7812
14587TIP3   OH265251   0.813   5.595   2.093  1.0783 -0.8094  0.1884
14587TIP3    H165252   0.838   5.659   2.160 -0.2665 -0.1610  0.0856
14587TIP3    H265253   0.762   5.645   2.030 -1.7630 -2.3453  1.1648
14588TIP3   OH265254   2.059   4.111  12.705 -0.1230  0.2356  0.3745
14588TIP3    H165255   1.994   4.041  12.697  0.2905 -0.4159  2.3131
14588TIP3    H265256   2.020   4.185  12.659 -1.8515 -0.4352  0.7072
14589TIP3   OH265257   3.859   1.974  11.515 -0.1208  0.4364 -0.0172
14589TIP3    H165258   3.819   2.056  11.485 -0.9210 -0.0586 -0.3081
14589TIP3    H265259   3.952   1.985  11.496 -0.1860  1.3883  0.1885
14590TIP3   OH265260   0.557   2.308   3.616  0.0643  0.4576  0.2263
14590TIP3    H165261   0.525   2.375   3.677  0.3303  1.1499 -0.4050
14590TIP3    H265262   0.518   2.226   3.649 -1.0953  1.0638  0.3911
14591TIP3   OH265263   3.640   3.117   5.315 -0.2841 -0.0238 -0.3683
14591TIP3    H165264   3.569   3.079   5.263 -1.3768 -0.6605  1.5173
14591TIP3    H265265   3.715   3.059   5.299 -1.4098 -1.9222  0.9580
14592TIP3   OH265266   1.668   5.413  13.773 -0.3575  0.2373  0.1290
14592TIP3    H165267   1.762   5.401  13.759 -0.6183 -0.4790 -1.1129
14592TIP3    H265268   1.655   5.396  13.866  0.4262 -1.7557 -0.1058
14593TIP3   OH265269   1.728   3.611  17.266 -0.4496 -0.1758 -0.1790
14593TIP3    H165270   1.744   3.516  17.265  2.2417  0.2241 -0.4431
14593TIP3    H265271   1.733   3.636  17.174  0.2952  0.4155  0.0178
14594TIP3   OH265272   6.432   5.197  12.574 -0.2387 -0.2789 -0.4281
14594TIP3    H165273   6.392   5.179  12.489  1.7594 -1.5329 -1.1545
14594TIP3    H265274   6.444   5.111  12.613  1.2821  0.0907 -0.0425
14595TIP3   OH265275   5.228   4.657   2.884 -0.1981 -0.2279 -0.0016
14595TIP3    H165276   5.168   4.731   2.891 -0.6727 -0.6646  0.5500
14595TIP3    H265277   5.248   4.633   2.974  0.1905 -0.5829 -0.1789
14596TIP3   OH265278   1.238   3.417  15.791 -0.5738  0.2416 -0.0797
14596TIP3    H165279   1.228   3.412  15.696 -1.8138  0.7638  0.0098
14596TIP3    H265280   1.270   3.506  15.807 -0.9222  0.3500  0.0263
14597TIP3   OH265281   0.061   5.030   2.358 -0.5336 -0.0514 -0.1862
14597TIP3    H165282   0.004   5.021   2.282 -0.5999  1.2579 -0.3070
14597TIP3    H265283   0.136   5.081   2.326  0.5009 -1.3812  0.0757
14598TIP3   OH265284   6.045   6.389   1.557 -0.1508  0.3078  0.0099
14598TIP3    H165285   6.111   6.430   1.501  2.1539 -1.2918  1.4575
14598TIP3    H265286   6.072   6.412   1.646 -1.4460 -0.5407  0.6342
14599TIP3   OH265287   5.570   1.535   0.238  0.2553  0.4080  0.1639
14599TIP3    H165288   5.581   1.462   0.177  0.3375  0.6401 -0.1037
14599TIP3    H265289   5.574   1.495   0.325 -0.2399  0.0220  0.0089
14600TIP3   OH265290   0.252   4.841   5.306 -0.5262 -0.3509  0.6296
14600TIP3    H165291   0.223   4.801   5.388 -1.1902 -1.3766 -0.0962
14600TIP3    H265292   0.242   4.772   5.240  1.3647  0.0058 -0.0668
14601TIP3   OH265293   4.736   1.770  12.230 -0.4950  0.1959  0.2607
14601TIP3    H165294   4.706   1.693  12.278 -0.6945 -1.5512 -2.5565
14601TIP3    H265295   4.691   1.843  12.271 -2.6805 -1.5275  1.0489
14602TIP3   OH265296   4.761   2.138  13.453 -0.2964 -0.1078 -0.0485
14602TIP3    H165297   4.794   2.121  13.365 -0.4941 -1.5672  0.1560
14602TIP3    H265298   4.666   2.134  13.445 -0.3125 -0.3506  0.2624
14603TIP3   OH265299   0.780   1.595  10.314  0.0489  0.3173  0.0403
14603TIP3    H165300   0.838   1.520  10.305 -1.0358 -0.3000 -2.1651
14603TIP3    H265301   0.692   1.560  10.300 -0.6578  1.6830  0.8508
14604TIP3   OH265302   1.596   3.376  10.747  0.1720  0.5933 -0.1310
14604TIP3    H165303   1.612   3.286  10.776  1.9208  1.1343  0.6214
14604TIP3    H265304   1.512   3.371  10.701 -2.2563 -0.4543  4.1555
14605TIP3   OH265305   0.535   2.273  15.388 -0.1953 -0.1061 -0.2681
14605TIP3    H165306   0.544   2.270  15.484  0.2893  0.5765 -0.2897
14605TIP3    H265307   0.488   2.354  15.371 -1.1036 -0.6854 -0.5527
14606TIP3   OH265308   2.353   4.814   0.187  0.1742  0.6443 -0.3248
14606TIP3    H165309   2.262   4.794   0.166 -0.2172  2.7124 -0.6999
14606TIP3    H265310   2.379   4.745   0.248 -1.7053  0.1676 -0.0168
14607TIP3   OH265311   5.917   3.510   1.310 -0.7995 -0.0525  0.1668
14607TIP3    H165312   5.949   3.596   1.282 -0.2773  0.3515  1.9348
14607TIP3    H265313   5.832   3.528   1.350 -0.3930 -0.2613  1.1325
14608TIP3   OH265314   3.078   5.709   1.932  0.3281 -0.2166 -0.0199
14608TIP3    H165315   3.047   5.757   2.009 -1.4815  0.0739 -0.9021
14608TIP3    H265316   3.166   5.743   1.916  0.1250  0.8138  1.0200
14609TIP3   OH265317   3.268   4.830   2.408  0.7855  0.0625  0.5546
14609TIP3    H165318   3.215   4.901   2.372  2.6146  1.1784  0.0005
14609TIP3    H265319   3.205   4.774   2.453 -0.7515  1.8010  0.6351
14610TIP3   OH265320   1.439   5.941   1.738 -0.3116  0.9064  0.3813
14610TIP3    H165321   1.413   5.884   1.811  0.4585  0.0258 -0.0247
14610TIP3    H265322   1.357   5.961   1.693 -0.4638 -0.7750 -0.1193
14611TIP3   OH265323   1.707   2.214   2.098  0.2359 -0.0272  0.2110
14611TIP3    H165324   1.770   2.156   2.056  0.3810  0.6201 -0.4861
14611TIP3    H265325   1.625   2.164   2.098 -0.0501  0.3724 -1.9037
14612TIP3   OH265326   4.848   3.596   4.398 -0.4633  0.5726  0.2724
14612TIP3    H165327   4.941   3.601   4.421 -0.0244 -0.0577 -1.3418
14612TIP3    H265328   4.818   3.514   4.437 -0.8236  1.6595  2.3948
14613TIP3   OH265329   0.083   3.788  16.282  0.4758 -0.1291  0.2586
14613TIP3    H165330   0.096   3.881  16.264  0.4878  0.5322  3.3305
14613TIP3    H265331   0.131   3.743  16.213  2.5047  2.1591  0.0944
14614TIP3   OH265332   4.784   2.937  10.971  0.0711  0.0984  0.6755
14614TIP3    H165333   4.801   2.912  11.062 -0.1173 -0.4545  0.5618
14614TIP3    H265334   4.726   2.868  10.937  0.0173  0.3820  0.1840
14615TIP3   OH265335   4.640   0.025   1.209  0.4238 -0.1209 -0.0207
14615TIP3    H165336   4.657  -0.067   1.188  0.7528 -0.0127 -0.2230
14615TIP3    H265337   4.545   0.034   1.201  0.4640 -0.2709 -0.6904
14616TIP3   OH265338   3.215   5.547  13.039  0.0505  0.0965  0.7669
14616TIP3    H165339   3.241   5.639  13.038  1.0818 -0.1881  1.2323
14616TIP3    H265340   3.294   5.499  13.018 -0.5353 -0.6826  0.3088
14617TIP3   OH265341   2.562   2.158   4.416 -0.0037  0.2831 -0.2075
14617TIP3    H165342   2.596   2.235   4.461 -0.5820  0.6604 -0.4053
14617TIP3    H265343   2.466   2.167   4.421 -0.0767 -0.4665 -0.1568
14618TIP3   OH265344   5.746   4.629  15.294  0.0705  0.3078 -0.3007
14618TIP3    H165345   5.725   4.711  15.340  0.3823 -0.5523  1.4443
14618TIP3    H265346   5.663   4.603  15.253  0.0891  1.7384 -1.2907
14619TIP3   OH265347   2.625   1.404  11.956 -0.0423  0.2666 -0.1143
14619TIP3    H165348   2.546   1.433  12.002 -0.3387  0.5624 -0.8075
14619TIP3    H265349   2.679   1.363  12.024  0.1376  1.9400  0.7765
14620TIP3   OH265350   0.727   4.351  14.736  0.6107  0.3876 -0.5984
14620TIP3    H165351   0.800   4.356  14.675 -0.2551  0.6819 -1.6317
14620TIP3    H265352   0.747   4.415  14.804  1.8560 -0.3479 -0.2619
14621TIP3   OH265353   0.119   2.936   0.182 -0.2239 -0.1416  0.1029
14621TIP3    H165354   0.071   2.992   0.243  2.3635  0.0401  2.0987
14621TIP3    H265355   0.129   2.853   0.229  0.8403 -0.3710 -0.5074
14622TIP3   OH265356   4.980   3.783   6.359  0.2996  0.0947  0.6289
14622TIP3    H165357   4.885   3.787   6.353  0.1786 -0.3616  2.0695
14622TIP3    H265358   5.011   3.832   6.283 -1.0824 -1.2469 -0.8127
14623TIP3   OH265359   6.347   2.997   4.170 -0.1272  0.0853 -0.0410
14623TIP3    H165360   6.313   2.908   4.184 -1.4612  0.7832  1.3390
14623TIP3    H265361   6.277   3.042   4.122  1.2502 -0.0848 -2.2397
14624TIP3   OH265362   2.189   5.091  13.076 -0.3096 -0.0220 -0.4185
14624TIP3    H165363   2.202   5.186  13.070 -0.9094  0.0676 -0.3402
14624TIP3    H265364   2.182   5.062  12.985 -0.3962  0.0473 -0.4336
14625TIP3   OH265365   5.833   5.834   6.127 -0.1067  0.6861 -0.3060
14625TIP3    H165366   5.752   5.868   6.091 -1.0207 -0.7644  0.3344
14625TIP3    H265367   5.891   5.822   6.051 -0.3052  2.1834 -0.7009
14626TIP3   OH265368   2.016   0.841  15.151 -0.2523  0.4266 -0.6640
14626TIP3    H165369   2.094   0.866  15.200 -0.3070 -0.0494 -0.3378
14626TIP3    H265370   1.999   0.751  15.176 -2.1762  1.1955  0.9669
14627TIP3   OH265371   6.093   2.776  13.423  0.1932  0.1538  0.7787
14627TIP3    H165372   6.182   2.809  13.411 -0.1426  0.4524 -1.1430
14627TIP3    H265373   6.053   2.786  13.336 -2.4454  2.2638  2.1767
14628TIP3   OH265374   6.131   4.337  16.149 -0.1703  0.2889 -0.1658
14628TIP3    H165375   6.143   4.322  16.243  2.7715 -0.3917 -0.5900
14628TIP3    H265376   6.119   4.432  16.141  0.3436  0.4497  0.8533
14629TIP3   OH265377   0.092   5.530   1.437 -0.1150 -0.2373 -0.1511
14629TIP3    H165378   0.125   5.589   1.505  0.3658 -0.7739  0.0855
14629TIP3    H265379   0.019   5.485   1.479 -0.4665  0.1732 -0.3237
14630TIP3   OH265380   3.969   2.216  12.399 -0.1231  0.1714 -0.4716
14630TIP3    H165381   3.986   2.220  12.305 -0.0260  0.0161 -0.4606
14630TIP3    H265382   3.888   2.165  12.407  0.5644 -0.9297 -0.3882
14631TIP3   OH265383   1.060   6.012   4.979  0.7207  0.5090 -0.0560
14631TIP3    H165384   0.982   6.028   4.925  0.5718 -1.1561 -0.3760
14631TIP3    H265385   1.128   5.990   4.916  0.8228 -0.4034  0.3719
14632TIP3   OH265386   2.514   5.439   0.162  0.4813  0.7057  0.4528
14632TIP3    H165387   2.470   5.366   0.206  0.1702  0.8369  0.3543
14632TIP3    H265388   2.462   5.516   0.183  0.6284  0.8513  0.2894
14633TIP3   OH265389   5.483   6.613   4.391  0.2258 -0.0073  0.0405
14633TIP3    H165390   5.433   6.689   4.421 -0.0723  0.0997 -0.7193
14633TIP3    H265391   5.436   6.582   4.314  1.3342  0.1031 -0.7001
14634TIP3   OH265392   4.459   6.254  15.040 -0.1089 -0.1141  0.6986
14634TIP3    H165393   4.484   6.164  15.061 -0.4536 -0.7080 -1.3636
14634TIP3    H265394   4.538   6.292  15.001  0.6982  1.1472  3.4292
14635TIP3   OH265395   1.999   2.187   6.255  0.1702 -0.3300 -0.1387
14635TIP3    H165396   2.011   2.234   6.337  2.0531  1.0632 -1.1760
14635TIP3    H265397   1.914   2.217   6.223  0.2325  0.4862  0.4387
14636TIP3   OH265398   0.189   0.125   1.694  0.0694 -0.1911  0.4242
14636TIP3    H165399   0.262   0.147   1.637  0.3953 -0.5870  0.6896
14636TIP3    H265400   0.212   0.040   1.732  0.2983  0.4899  1.8652
14637TIP3   OH265401   2.640   0.540  15.994  0.1876  0.1512  0.3119
14637TIP3    H165402   2.591   0.598  15.936  2.0693  0.6107 -0.8495
14637TIP3    H265403   2.616   0.452  15.965  0.2912  0.3759 -0.4757
14638TIP3   OH265404   1.574   2.090  15.356  0.8072  0.1062 -1.2027
14638TIP3    H165405   1.551   2.044  15.436 -1.2173  0.5998 -1.4760
14638TIP3    H265406   1.608   2.022  15.297  1.7191 -0.3495 -0.1632
14639TIP3   OH265407   5.111   1.879   4.086  0.4570 -0.3091 -0.5194
14639TIP3    H165408   5.121   1.974   4.082  1.3719 -0.2830  1.5846
14639TIP3    H265409   5.085   1.853   3.997 -1.5986  2.0954 -0.6842
14640TIP3   OH265410   6.271   1.241   2.141 -0.3414  0.1123  0.9920
14640TIP3    H165411   6.291   1.158   2.099  1.8278  1.2280 -0.3079
14640TIP3    H265412   6.323   1.241   2.222 -0.9593 -0.1137  1.3948
14641TIP3   OH265413   3.000   2.179  11.833 -0.3515 -0.0633  0.3901
14641TIP3    H165414   3.095   2.184  11.838 -0.4281  0.1018  2.1454
14641TIP3    H265415   2.982   2.099  11.782  0.7154 -0.6530  0.9269
14642TIP3   OH265416   0.198   0.913   2.764 -0.4240 -0.4963 -0.3375
14642TIP3    H165417   0.286   0.950   2.773 -0.9811  1.0738 -1.1632
14642TIP3    H265418   0.211   0.831   2.716  0.7696 -1.1635  1.0599
14643TIP3   OH265419   6.078   0.259  15.915  0.2313  0.0873  0.4701
14643TIP3    H165420   6.094   0.186  15.856 -1.4202  0.3584 -0.3456
14643TIP3    H265421   6.132   0.241  15.992 -1.6179 -2.9710  1.1054
14644TIP3   OH265422   6.178   6.273   1.140  0.5957 -0.3059 -0.7927
14644TIP3    H165423   6.103   6.236   1.186  1.8900 -1.3488  0.5071
14644TIP3    H265424   6.147   6.288   1.051 -2.1692  2.3529  0.5328
14645TIP3   OH265425   2.432   2.598  12.164 -0.6366  0.1763  0.3392
14645TIP3    H165426   2.507   2.539  12.177  0.4998  1.1696 -1.4135
14645TIP3    H265427   2.449   2.671  12.223 -1.1802 -0.4489  1.2825
14646TIP3   OH265428   6.597   0.029  16.120 -0.5885 -0.1439 -0.4326
14646TIP3    H165429   6.554  -0.039  16.171  1.0627 -0.0517  1.1037
14646TIP3    H265430   6.668   0.060  16.175 -0.8427  2.3192 -1.4204
14647TIP3   OH265431   3.884   0.959  15.367  0.1336 -0.1356  0.3820
14647TIP3    H165432   3.855   1.024  15.431  0.3157  0.6138 -0.2953
14647TIP3    H265433   3.968   0.992  15.336  0.4877 -0.9759  0.4362
14648TIP3   OH265434   3.359   3.756   1.063  0.0981 -0.1477  0.2764
14648TIP3    H165435   3.344   3.792   0.976  1.2819  1.2253  0.6194
14648TIP3    H265436   3.437   3.802   1.095  0.9960 -2.2594  1.1774
14649TIP3   OH265437   1.371   6.191   4.594  0.3216  0.0261 -0.5639
14649TIP3    H165438   1.418   6.135   4.532 -0.7631 -0.2619 -1.1239
14649TIP3    H265439   1.284   6.203   4.556  0.1226  1.0505  0.1799
14650TIP3   OH265440   4.011   1.914  14.337 -0.1251 -0.0102 -0.7787
14650TIP3    H165441   3.925   1.877  14.357 -0.1081  0.3400 -0.0330
14650TIP3    H265442   4.053   1.925  14.422  0.4519  0.3184 -1.0985
14651TIP3   OH265443   1.126   5.866  12.262  0.8110  0.0655  0.2189
14651TIP3    H165444   1.123   5.777  12.298 -0.5876 -0.1771 -0.4800
14651TIP3    H265445   1.157   5.855  12.172  3.8835  0.6349  1.1168
14652TIP3   OH265446   2.976   0.239  15.393 -0.1191 -0.6543  0.1553
14652TIP3    H165447   2.882   0.240  15.414 -0.4992  1.0123 -1.5570
14652TIP3    H265448   2.993   0.148  15.368 -1.4363 -0.8113 -0.2390
14653TIP3   OH265449   1.116   5.689   1.822  0.2206 -0.5614 -0.1692
14653TIP3    H165450   1.198   5.641   1.808  0.6213  0.3195 -0.9267
14653TIP3    H265451   1.120   5.762   1.759 -0.6657  0.0868  0.5109
14654TIP3   OH265452   4.941   3.619   2.952 -0.3090 -0.3342 -0.3164
14654TIP3    H165453   4.856   3.575   2.954 -1.0117  0.9163 -1.4929
14654TIP3    H265454   5.002   3.553   2.921 -1.0518 -0.9408 -0.5036
14655TIP3   OH265455   5.843   3.564   5.422 -0.3371 -0.0883  0.1617
14655TIP3    H165456   5.909   3.625   5.390 -0.2175 -0.6146 -0.6273
14655TIP3    H265457   5.760   3.610   5.411 -0.2941 -0.2546 -0.9168
14656TIP3   OH265458   4.693   4.811  15.799  0.2374  0.8288  0.0195
14656TIP3    H165459   4.677   4.741  15.863  1.3480 -0.0409 -0.6525
14656TIP3    H265460   4.613   4.813  15.746  0.2721 -0.0509 -0.0727
14657TIP3   OH265461   5.016   4.840   2.845 -0.5985 -0.3715 -0.2587
14657TIP3    H165462   4.974   4.824   2.929 -1.5133 -0.1402 -0.6577
14657TIP3    H265463   4.971   4.781   2.784  0.1128 -0.6023 -0.5741
14658TIP3   OH265464   5.897   5.755   1.524 -0.2163 -0.2183 -0.1770
14658TIP3    H165465   5.919   5.746   1.617 -0.0467 -1.2931 -0.3210
14658TIP3    H265466   5.915   5.847   1.505 -0.2272  0.0093  0.8471
14659TIP3   OH265467   0.660   4.022  16.781 -0.3186 -0.3410  0.1723
14659TIP3    H165468   0.643   3.995  16.691 -1.2275  1.0630 -0.0901
14659TIP3    H265469   0.736   4.079  16.775  0.0521 -0.8108  0.3885
14660TIP3   OH265470   3.999   1.229   4.960  0.2049  0.1060 -0.8765
14660TIP3    H165471   3.993   1.211   5.053  0.4937 -0.2168 -0.9188
14660TIP3    H265472   4.081   1.277   4.950  1.7907 -2.5957 -1.3709
14661TIP3   OH265473   5.717   1.116  12.887  0.3053 -0.3969 -0.3123
14661TIP3    H165474   5.673   1.135  12.970 -0.4311  0.3533 -0.8643
14661TIP3    H265475   5.705   1.022  12.874 -0.3874 -0.3451 -0.0376
14662TIP3   OH265476   0.849   0.306   5.365 -0.0676  0.1883  0.8583
14662TIP3    H165477   0.816   0.251   5.293  0.4373  0.0113  0.7590
14662TIP3    H265478   0.778   0.369   5.381  0.2961  0.9957 -0.6028
14663TIP3   OH265479   1.778   1.142  12.152 -0.2001  0.0591  0.4227
14663TIP3    H165480   1.727   1.171  12.227 -0.4313  2.4207 -0.5996
14663TIP3    H265481   1.751   1.200  12.080  1.8279 -0.5132 -0.8521
14664TIP3   OH265482   6.019   4.766   0.299  0.0481 -0.3398  0.0194
14664TIP3    H165483   6.028   4.859   0.275  0.7297 -0.4831 -0.2919
14664TIP3    H265484   5.959   4.767   0.374 -1.5989  0.1551 -1.2659
14665TIP3   OH265485   6.077   6.117  15.798 -0.2082 -0.3505  0.2389
14665TIP3    H165486   6.077   6.146  15.889  1.8202 -0.0914  0.1786
14665TIP3    H265487   6.161   6.146  15.763 -0.6035 -1.1859 -1.4812
14666TIP3   OH265488   3.106   6.004   0.575 -0.0560  0.5730  0.0515
14666TIP3    H165489   3.172   5.967   0.518  1.6466  1.1396  1.6040
14666TIP3    H265490   3.028   5.950   0.561  1.2251 -1.1265 -0.5831
14667TIP3   OH265491   4.257   0.919  17.186 -0.3583  0.0767  0.5890
14667TIP3    H165492   4.306   0.927  17.104  0.3238  1.0442  1.0707
14667TIP3    H265493   4.240   1.010  17.212  0.8905 -0.1582  2.3641
14668TIP3   OH265494   1.067   2.738  17.153 -0.6970  0.2545  0.5775
14668TIP3    H165495   1.151   2.780  17.132 -0.2878 -1.1054 -0.5831
14668TIP3    H265496   1.091   2.651  17.185 -1.7050 -0.5783 -0.8773
14669TIP3   OH265497   1.672   6.255   4.517  0.1764 -0.2372 -0.0166
14669TIP3    H165498   1.718   6.265   4.434  0.6961  0.7462  0.3717
14669TIP3    H265499   1.616   6.179   4.505  1.5944 -1.2112 -0.6580
14670TIP3   OH265500   4.249   4.785   2.091  0.2816 -1.0035  0.0139
14670TIP3    H165501   4.344   4.792   2.101  0.4649 -1.3691 -1.3232
14670TIP3    H265502   4.232   4.820   2.004 -0.6241 -2.3696 -0.3787
14671TIP3   OH265503   0.411   0.682  12.034 -0.6421 -0.1408 -0.0460
14671TIP3    H165504   0.500   0.647  12.023 -0.0537  1.1019  0.6513
14671TIP3    H265505   0.377   0.689  11.945  0.4120  0.5195 -0.4057
14672TIP3   OH265506   1.401   5.764  14.718  0.0374  0.4124 -0.2993
14672TIP3    H165507   1.438   5.779  14.805  0.7229 -0.7527 -0.3785
14672TIP3    H265508   1.343   5.838  14.703 -0.4650  0.3665  1.3629
14673TIP3   OH265509   1.745   5.664   1.382 -0.7411  0.0978 -0.0930
14673TIP3    H165510   1.840   5.662   1.369 -0.8094 -0.9771 -0.4856
14673TIP3    H265511   1.716   5.576   1.356 -1.5909 -0.2609  1.9627
14674TIP3   OH265512   1.486   4.025  16.919 -0.1191 -0.0326  0.0513
14674TIP3    H165513   1.395   4.009  16.946 -0.5260  1.5772 -0.3232
14674TIP3    H265514   1.489   3.996  16.828 -0.4944  0.7820 -0.2186
14675TIP3   OH265515   1.790   5.887  11.212  0.0291 -0.6180  0.2032
14675TIP3    H165516   1.711   5.834  11.202  0.1401 -0.8506  0.5425
14675TIP3    H265517   1.819   5.870  11.302 -0.3157  0.5627  0.5333
14676TIP3   OH265518   0.348   5.733  14.568 -0.5751 -0.3432  0.5631
14676TIP3    H165519   0.261   5.736  14.529 -0.5263 -0.6895  0.4179
14676TIP3    H265520   0.333   5.709  14.660 -0.5755 -1.3114  0.3172
14677TIP3   OH265521   0.485   6.754   1.738 -0.4859 -0.0457  0.4650
14677TIP3    H165522   0.401   6.763   1.783 -2.0270  1.5810 -2.5720
14677TIP3    H265523   0.461   6.739   1.646  2.5496 -2.1360 -0.0679
14678TIP3   OH265524   3.485   4.148  10.856 -0.0453 -0.1765 -0.0984
14678TIP3    H165525   3.486   4.099  10.773  0.2619 -1.1385  0.4599
14678TIP3    H265526   3.577   4.159  10.878 -0.0403  2.9597 -1.5360
14679TIP3   OH265527   1.692   5.576  11.364  0.1055  0.0768 -0.3785
14679TIP3    H165528   1.768   5.576  11.305  0.2059 -0.8250 -0.2491
14679TIP3    H265529   1.621   5.612  11.310 -0.3844 -2.9113 -1.8207
14680TIP3   OH265530   0.264   0.146  14.252 -0.2345  0.5164  0.6272
14680TIP3    H165531   0.345   0.198  14.243  1.5723 -1.9110  2.1001
14680TIP3    H265532   0.282   0.065  14.203 -2.3610  0.5440 -0.2486
14681TIP3   OH265533   3.893   0.067  14.077 -0.4405  0.2975  0.1679
14681TIP3    H165534   3.939  -0.006  14.119 -0.0212  1.0182  0.9808
14681TIP3    H265535   3.907   0.141  14.136  0.0393  1.3026 -1.1774
14682TIP3   OH265536   6.535   5.313   4.085 -0.1323  0.4080  0.5525
14682TIP3    H165537   6.547   5.407   4.091  0.0487  0.5810 -1.9342
14682TIP3    H265538   6.478   5.301   4.008  1.0319 -1.5666 -0.0472
14683TIP3   OH265539   5.926   3.021   4.772 -0.1597 -0.0902 -0.2847
14683TIP3    H165540   5.896   3.023   4.681 -0.9341  0.2166 -0.0253
14683TIP3    H265541   5.851   2.989   4.821 -0.2125  1.1349  0.4321
14684TIP3   OH265542   3.752   3.071  16.152  0.1945 -0.0997 -0.0565
14684TIP3    H165543   3.791   3.127  16.085  0.8046 -1.1930 -0.6349
14684TIP3    H265544   3.660   3.064  16.128  0.6634 -1.5490 -1.5646
14685TIP3   OH265545   6.382   3.262  10.979 -0.0987 -0.0838 -0.4230
14685TIP3    H165546   6.395   3.233  10.889  1.0708 -0.3246 -0.1799
14685TIP3    H265547   6.287   3.272  10.987 -0.2336 -0.3526 -1.5869
14686TIP3   OH265548   3.510   3.022  17.133 -0.5140 -0.4605  0.0355
14686TIP3    H165549   3.436   2.993  17.187 -0.8752  0.3584 -0.0100
14686TIP3    H265550   3.504   2.969  17.054 -1.5962  0.1999 -0.3514
14687TIP3   OH265551   4.269   3.462  13.327  0.1117 -0.4039 -0.0878
14687TIP3    H165552   4.331   3.416  13.270  0.7679  0.8123 -0.3785
14687TIP3    H265553   4.209   3.507  13.267 -0.3760 -0.6714  0.1927
14688TIP3   OH265554   2.347   6.208   0.233 -0.2936 -0.2246  0.0373
14688TIP3    H165555   2.392   6.267   0.294 -2.0848 -1.2627  2.4479
14688TIP3    H265556   2.392   6.124   0.245  0.5306 -0.0055 -1.4437
14689TIP3   OH265557   0.553   6.389   3.810 -0.1691 -0.0699  0.2370
14689TIP3    H165558   0.591   6.333   3.878 -0.8073  1.1822  1.6475
14689TIP3    H265559   0.463   6.357   3.800 -0.1326 -0.1357  0.1220
14690TIP3   OH265560   6.734   5.851  11.120  0.3353  0.5982  0.3202
14690TIP3    H165561   6.717   5.874  11.211  0.6285  1.6814  0.1155
14690TIP3    H265562   6.651   5.817  11.088  0.3957 -0.3653  1.1552
14691TIP3   OH265563   3.422   4.917   1.216 -0.7051 -0.9310 -0.5460
14691TIP3    H165564   3.465   4.924   1.301 -1.7280 -2.4309  0.0933
14691TIP3    H265565   3.371   4.998   1.208  0.5691 -0.0975 -0.4025
14692TIP3   OH265566   5.475   5.982   2.480 -0.5278 -0.3500 -0.1142
14692TIP3    H165567   5.515   6.044   2.419  2.7295 -1.2679  0.9919
14692TIP3    H265568   5.445   5.909   2.425 -0.4922  0.2497 -0.9363
14693TIP3   OH265569   6.066   4.999  15.191  0.0878  0.3067  0.2648
14693TIP3    H165570   6.148   5.042  15.164  0.2847 -0.9808 -1.2869
14693TIP3    H265571   6.082   4.906  15.175 -1.3703 -0.0406  0.8027
14694TIP3   OH265572   0.156   4.888   2.751  0.5925 -0.4409  0.3119
14694TIP3    H165573   0.214   4.858   2.822  1.7578  0.4555 -0.2316
14694TIP3    H265574   0.209   4.878   2.672 -0.3693 -0.5604 -0.3181
14695TIP3   OH265575   0.374   5.796  17.054  0.2903  0.3672 -0.1405
14695TIP3    H165576   0.382   5.876  17.105  2.9050 -0.1836  0.4145
14695TIP3    H265577   0.418   5.815  16.971 -0.3393 -0.0248 -0.5699
14696TIP3   OH265578   4.620   3.969   4.669 -0.1915 -0.9149  0.0216
14696TIP3    H165579   4.575   4.046   4.634  0.0048 -1.4863 -1.5563
14696TIP3    H265580   4.660   3.929   4.592  1.1343 -1.6488  1.0884
14697TIP3   OH265581   4.155   2.089   5.069  0.4373 -0.7047  0.3362
14697TIP3    H165582   4.161   2.161   5.005 -1.8031  0.2375  1.1504
14697TIP3    H265583   4.085   2.033   5.035 -1.0325  0.0060  2.1427
14698TIP3   OH265584   2.416   4.273  15.595  1.0097 -0.2342 -0.3242
14698TIP3    H165585   2.442   4.300  15.507 -0.1796 -1.5524 -1.1090
14698TIP3    H265586   2.462   4.333  15.653  1.5176  0.8942 -1.8562
14699TIP3   OH265587   0.738   2.044  12.805 -0.2654  0.2494  0.2021
14699TIP3    H165588   0.656   1.999  12.784  0.9022 -1.5227 -0.7615
14699TIP3    H265589   0.783   2.052  12.721  1.7534 -1.3398  1.0797
14700TIP3   OH265590   6.398   3.681   3.827  0.8290 -0.5738 -0.0427
14700TIP3    H165591   6.361   3.768   3.836  1.4377 -0.1394 -1.5698
14700TIP3    H265592   6.391   3.642   3.914 -0.8558  0.4286  0.2848
14701TIP3   OH265593   1.182   2.048   5.428  0.2534 -0.4815  0.2151
14701TIP3    H165594   1.132   1.971   5.457  1.5724 -1.4924 -0.1652
14701TIP3    H265595   1.246   2.062   5.497 -0.1111  0.3968  0.3717
14702TIP3   OH265596   2.230   2.985   4.018 -0.0243  0.0281 -0.0080
14702TIP3    H165597   2.171   2.929   4.069 -0.6150  0.1143 -0.5922
14702TIP3    H265598   2.173   3.053   3.981  0.6015  0.7021  0.2449
14703TIP3   OH265599   0.860   2.781   5.786 -0.6188  0.1313 -0.5059
14703TIP3    H165600   0.805   2.859   5.776 -0.7362  0.2586  1.0335
14703TIP3    H265601   0.830   2.741   5.867  0.7919 -0.4345 -0.2510
14704TIP3   OH265602   0.445   2.660  11.833  0.0252 -0.5061  0.4369
14704TIP3    H165603   0.458   2.688  11.923 -0.4116  2.2260 -0.3079
14704TIP3    H265604   0.531   2.631  11.804  0.3804 -0.4295  1.3950
14705TIP3   OH265605   5.171   5.920   3.663 -0.3560  0.0376 -0.1604
14705TIP3    H165606   5.139   5.882   3.581 -0.7264  1.0893 -0.5149
14705TIP3    H265607   5.107   5.893   3.729  0.1351 -1.1097 -0.1450
14706TIP3   OH265608   1.438   2.954  14.852  0.4583  0.7712 -0.1430
14706TIP3    H165609   1.352   2.993  14.865  0.5472  1.3712 -1.3207
14706TIP3    H265610   1.420   2.863  14.830  0.1008  1.0742 -1.0962
14707TIP3   OH265611   1.259   4.920   2.855 -0.2247 -0.6499 -0.0552
14707TIP3    H165612   1.190   4.918   2.788 -0.7026  0.1869  0.4043
14707TIP3    H265613   1.337   4.886   2.810 -0.7674 -0.9455 -0.7770
14708TIP3   OH265614   5.723   6.011  10.671 -0.4499  0.0003  0.0986
14708TIP3    H165615   5.756   5.966  10.749 -0.9752  0.7452  0.7497
14708TIP3    H265616   5.784   5.985  10.602  0.6137  0.1402  0.9645
14709TIP3   OH265617   1.304   0.151   0.337  0.9654 -0.1940 -0.4928
14709TIP3    H165618   1.222   0.142   0.385  0.4671 -0.2814 -1.3634
14709TIP3    H265619   1.284   0.123   0.248  1.6365  0.9077 -1.0128
14710TIP3   OH265620   5.125   4.935  12.112  0.1941 -0.4722  0.1879
14710TIP3    H165621   5.142   4.859  12.168  4.0579  0.1974  0.0575
14710TIP3    H265622   5.131   5.010  12.172  0.8995  0.0060 -0.4676
14711TIP3   OH265623   4.601   1.362  14.808 -0.1777 -0.0042  0.6631
14711TIP3    H165624   4.596   1.439  14.751 -0.6193 -1.4440 -1.3138
14711TIP3    H265625   4.653   1.391  14.883  1.5091  1.6181 -1.0577
14712TIP3   OH265626   1.804   1.516  11.981  0.2365  0.5237 -0.3156
14712TIP3    H165627   1.849   1.434  12.003 -1.6756 -0.3918  0.3822
14712TIP3    H265628   1.788   1.558  12.065 -2.4465 -0.4373 -0.2786
14713TIP3   OH265629   5.834   0.580   1.502 -0.0815  0.0603 -0.1146
14713TIP3    H165630   5.909   0.633   1.528 -1.2330  1.4974  0.3920
14713TIP3    H265631   5.855   0.492   1.530  1.5534  0.3859 -0.2701
14714TIP3   OH265632   4.383   1.154  13.152  0.2512  0.0087 -0.5257
14714TIP3    H165633   4.408   1.139  13.061 -0.0898  1.5787 -0.8826
14714TIP3    H265634   4.318   1.086  13.170  0.5441 -0.5017 -1.3661
14715TIP3   OH265635   4.080   3.467  15.639 -0.7044 -0.2531 -0.7226
14715TIP3    H165636   4.161   3.415  15.636  0.0533  0.7902  1.0056
14715TIP3    H265637   4.103   3.548  15.593 -0.7902  0.0142 -0.2930
14716TIP3   OH265638   6.767   1.072  12.000  0.1169  0.2609 -0.6035
14716TIP3    H165639   6.778   1.111  12.086 -0.8423  0.4744 -0.5720
14716TIP3    H265640   6.750   1.146  11.942  2.0676  0.2557 -1.2244
14717TIP3   OH265641   4.064   1.761   5.526 -0.4172 -0.3296  0.4524
14717TIP3    H165642   4.056   1.765   5.431  0.7252  0.2596  0.3713
14717TIP3    H265643   4.013   1.684   5.551  0.7055 -1.5219 -0.8155
14718TIP3   OH265644   3.241   2.631  11.830 -0.0142  0.2955  0.0209
14718TIP3    H165645   3.283   2.687  11.895  0.1671 -0.7465  0.8045
14718TIP3    H265646   3.304   2.628  11.757 -0.4819  1.9479 -0.4707
14719TIP3   OH265647   0.166   0.047   4.948 -0.5538  0.1011 -0.1380
14719TIP3    H165648   0.234   0.112   4.933 -0.4543  1.0506  3.7972
14719TIP3    H265649   0.134   0.066   5.036 -1.9570 -3.8962  0.3209
14720TIP3   OH265650   1.546   2.288   5.498  0.3940 -0.2678  0.3452
14720TIP3    H165651   1.530   2.283   5.592 -0.5983  3.0084  0.4365
14720TIP3    H265652   1.641   2.303   5.491  0.3673  0.1693  0.8658
14721TIP3   OH265653   4.074   1.959  12.607  0.2975 -0.0564 -0.2096
14721TIP3    H165654   4.010   1.952  12.677 -0.0410 -1.2277 -0.6322
14721TIP3    H265655   4.134   1.886  12.621  0.6370  0.1222 -0.7246
14722TIP3   OH265656   0.691   1.342  16.765 -0.0913 -0.3762 -0.3161
14722TIP3    H165657   0.640   1.423  16.760  0.2011 -0.1677  0.0440
14722TIP3    H265658   0.782   1.372  16.764  0.0403 -0.5154  2.4034
14723TIP3   OH265659   2.491   2.466  14.506 -0.0247 -0.0465  0.2268
14723TIP3    H165660   2.462   2.548  14.546  0.1164  0.5935 -0.9671
14723TIP3    H265661   2.456   2.397  14.563 -2.2991  0.7653 -0.1421
14724TIP3   OH265662   1.811   0.190  14.549  0.1337 -0.1083 -0.6417
14724TIP3    H165663   1.730   0.157  14.587  1.5786 -1.6460  1.1402
14724TIP3    H265664   1.807   0.163  14.457 -1.8971  0.8964 -0.8909
14725TIP3   OH265665   6.749   2.590  11.781 -0.1473  0.4162 -0.3718
14725TIP3    H165666   6.667   2.624  11.817 -0.1859 -0.5248  0.4761
14725TIP3    H265667   6.781   2.658  11.722 -1.5174  0.8119 -0.6706
14726TIP3   OH265668   3.241   0.186  12.441  0.3587  0.3521  0.3368
14726TIP3    H165669   3.175   0.130  12.400  0.4748  0.3874  0.1024
14726TIP3    H265670   3.221   0.181  12.535 -1.6428  2.4329  0.0841
14727TIP3   OH265671   5.756   4.081  15.172  0.0726 -0.3964  0.0756
14727TIP3    H165672   5.702   4.010  15.207 -0.1493 -0.7370 -0.9397
14727TIP3    H265673   5.765   4.061  15.079  0.0159  0.9102 -0.2209
14728TIP3   OH265674   0.050   5.345  16.041  0.1464 -0.2786 -0.1672
14728TIP3    H165675   0.127   5.291  16.063 -0.4319  0.3591  3.6999
14728TIP3    H265676   0.086   5.419  15.992  1.8087 -0.6770  0.4252
14729TIP3   OH265677   5.191   0.518  10.938 -0.0990  0.2358  0.2928
14729TIP3    H165678   5.266   0.496  10.884 -1.4853  0.7557 -1.9124
14729TIP3    H265679   5.207   0.608  10.966  0.8203 -0.1749  1.1186
14730TIP3   OH265680   2.246   2.967   5.777 -0.5225  0.0775 -0.2479
14730TIP3    H165681   2.187   2.996   5.707 -0.4490  1.7987  0.3844
14730TIP3    H265682   2.313   3.035   5.782 -0.4412 -0.1137  1.4015
14731TIP3   OH265683   1.681   5.758   2.071  0.2173  0.1010 -1.0241
14731TIP3    H165684   1.754   5.775   2.131 -0.8980  0.2918  0.3121
14731TIP3    H265685   1.692   5.822   2.001  0.3670  1.2583  0.0429
14732TIP3   OH265686   3.015   3.038  11.760 -0.1369  0.6149 -0.6554
14732TIP3    H165687   3.016   2.962  11.701 -0.7640  2.6807 -3.4346
14732TIP3    H265688   2.925   3.071  11.755 -0.2940  0.6538  1.7567
14733TIP3   OH265689   3.931   0.259   6.065  0.3775 -0.2123  0.4910
14733TIP3    H165690   3.880   0.324   6.113 -4.0881 -2.5970 -0.7209
14733TIP3    H265691   3.931   0.182   6.122  3.6760  0.0504  0.9286
14734TIP3   OH265692   1.572   6.078  12.871  0.4145  0.2305 -0.2174
14734TIP3    H165693   1.522   6.106  12.794 -0.4338 -3.4218 -1.0882
14734TIP3    H265694   1.506   6.062  12.938  0.5820 -2.1011 -0.5667
14735TIP3   OH265695   3.969   2.334  15.060 -0.4329  0.0140  0.4286
14735TIP3    H165696   3.917   2.282  15.121 -0.7351 -0.2475 -0.0469
14735TIP3    H265697   4.021   2.270  15.012 -1.1802  0.1032 -0.5098
14736TIP3   OH265698   0.380   3.074   2.011 -0.0198  0.3469 -0.0915
14736TIP3    H165699   0.433   3.144   1.975  0.1321  0.6855  0.7733
14736TIP3    H265700   0.423   3.052   2.094  1.0932 -2.1175 -1.2762
14737TIP3   OH265701   0.915   4.981   0.284  0.9701  0.1748 -0.4829
14737TIP3    H165702   0.915   4.887   0.299  3.1951  0.0894 -0.8011
14737TIP3    H265703   0.916   5.020   0.372 -0.0179 -0.0922 -0.3526
14738TIP3   OH265704   1.407   2.028   1.498 -0.6962 -0.1002  0.0397
14738TIP3    H165705   1.464   2.049   1.423 -0.4328 -2.2494 -0.3919
14738TIP3    H265706   1.321   2.063   1.473 -0.2903  0.4125 -0.6639
14739TIP3   OH265707   0.884   2.514   3.879 -0.3570  0.7415 -0.5348
14739TIP3    H165708   0.834   2.510   3.961  0.4978 -0.1096 -0.0566
14739TIP3    H265709   0.827   2.563   3.819 -0.4171  2.5548  0.9622
14740TIP3   OH265710   3.736   3.339  16.344 -0.0094  0.4083  0.2227
14740TIP3    H165711   3.749   3.286  16.423  0.5794  1.9721  1.1944
14740TIP3    H265712   3.793   3.298  16.279 -1.3045 -1.5415  0.2595
14741TIP3   OH265713   2.034   0.162   1.549  0.1589 -0.6339  0.8952
14741TIP3    H165714   1.974   0.104   1.596  0.3813 -1.1889  0.4998
14741TIP3    H265715   2.089   0.103   1.496  0.6560 -0.0947  0.7974
14742TIP3   OH265716   5.738   2.822   0.573 -0.1134 -0.1108 -0.3839
14742TIP3    H165717   5.683   2.749   0.545  0.6969  0.0437 -2.4341
14742TIP3    H265718   5.815   2.781   0.613  0.0587 -0.3845 -0.9913
14743TIP3   OH265719   4.332   5.547   4.285 -0.2130 -0.0314  0.3246
14743TIP3    H165720   4.419   5.553   4.245 -0.1219 -1.0513  0.3559
14743TIP3    H265721   4.290   5.474   4.240 -0.8390  0.0845  0.7156
14744TIP3   OH265722   5.072   2.779   6.433 -0.5936 -0.5096  0.2784
14744TIP3    H165723   5.010   2.745   6.497  0.1005 -1.0427  0.6755
14744TIP3    H265724   5.156   2.779   6.479 -0.4200  0.8624 -0.0212
14745TIP3   OH265725   0.474   5.717  13.718  0.1754  0.0368  0.3783
14745TIP3    H165726   0.480   5.799  13.766 -2.4756  0.3268  0.3131
14745TIP3    H265727   0.487   5.649  13.784  1.5770  0.4888  0.5722
14746TIP3   OH265728   4.660   1.484  15.335  0.0198 -0.0219 -0.4199
14746TIP3    H165729   4.714   1.518  15.407  0.6451  2.6843 -2.0703
14746TIP3    H265730   4.585   1.543  15.331 -0.3208 -0.5139 -1.5707
14747TIP3   OH265731   6.727   6.663  16.420 -0.5618  0.6020  0.2759
14747TIP3    H165732   6.633   6.683  16.411 -1.0136 -2.2435 -1.9415
14747TIP3    H265733   6.729   6.571  16.445  1.6642 -0.7915 -4.4232
14748TIP3   OH265734   4.818   3.737   4.844  0.5651 -0.4689  0.4862
14748TIP3    H165735   4.768   3.740   4.762 -0.1670  0.2232  0.9552
14748TIP3    H265736   4.870   3.657   4.837 -0.4381 -1.0760 -0.1005
14749TIP3   OH265737   0.386   2.075   0.066 -0.6076 -0.3123 -0.1433
14749TIP3    H165738   0.348   2.141   0.007 -0.4791  0.8094  1.0010
14749TIP3    H265739   0.336   2.085   0.147 -1.5100 -2.5743 -0.3880
14750TIP3   OH265740   2.156   0.326   5.818 -0.2433 -0.0421  0.0639
14750TIP3    H165741   2.154   0.237   5.781  0.1734  0.2456 -0.6637
14750TIP3    H265742   2.199   0.315   5.903 -0.5732 -0.6026  0.1640
14751TIP3   OH265743   2.947   1.885  15.988 -0.7073 -0.2806 -0.6615
14751TIP3    H165744   3.002   1.819  15.944 -1.9457 -0.8268 -1.4080
14751TIP3    H265745   2.863   1.880  15.943 -0.6345  2.2625 -1.1408
14752TIP3   OH265746   2.532   2.393  13.125  0.0191  0.2618  0.3778
14752TIP3    H165747   2.456   2.443  13.096 -1.6093 -3.0307 -1.2734
14752TIP3    H265748   2.509   2.365  13.214 -0.5642 -0.3539  0.0452
14753TIP3   OH265749   2.607   5.468   4.758 -0.1250  0.1738  0.1827
14753TIP3    H165750   2.560   5.551   4.759  0.5597  0.5632  0.1065
14753TIP3    H265751   2.626   5.449   4.849 -3.5936 -1.8044  0.5945
14754TIP3   OH265752   5.472   5.574  13.987 -0.2888 -0.5015 -0.3951
14754TIP3    H165753   5.544   5.610  13.936  0.3619 -2.0790 -0.6288
14754TIP3    H265754   5.506   5.567  14.076 -1.0607  1.2350  0.0556
14755TIP3   OH265755   1.013   0.611  12.910  0.0783 -0.2575 -0.0966
14755TIP3    H165756   1.065   0.553  12.854  1.0888 -2.3351  2.8828
14755TIP3    H265757   0.934   0.561  12.929 -1.3542  1.3851 -1.4820
14756TIP3   OH265758   4.344   0.966  16.902  0.4459  0.0476 -0.1044
14756TIP3    H165759   4.420   0.954  16.845  1.6250 -0.9055  1.6174
14756TIP3    H265760   4.298   1.042  16.865  0.7103 -1.0402 -2.7868
14757TIP3   OH265761   0.391   0.937   3.499 -0.6311 -0.4229 -0.0683
14757TIP3    H165762   0.373   0.861   3.443  0.7414 -0.5239 -0.3963
14757TIP3    H265763   0.397   0.900   3.588  1.1897 -0.9089 -0.3650
14758TIP3   OH265764   0.940   5.263  16.400  0.2460 -0.5510  0.0278
14758TIP3    H165765   0.861   5.220  16.434  0.6508  1.3908  3.6414
14758TIP3    H265766   0.914   5.354  16.390  1.9204  0.0090  0.7919
14759TIP3   OH265767   6.127   5.777  15.166  0.3344  0.6510  0.1885
14759TIP3    H165768   6.219   5.785  15.193  0.2577 -0.4609  0.8286
14759TIP3    H265769   6.131   5.742  15.077  0.5336 -0.0870  0.4799
14760TIP3   OH265770   2.405   3.040   3.685  0.5583 -0.0846  0.2391
14760TIP3    H165771   2.415   3.027   3.779  0.3721 -0.3517  0.2245
14760TIP3    H265772   2.494   3.032   3.650  1.3077  4.3614  0.8845
14761TIP3   OH265773   6.312   4.408   0.464  0.2292 -0.5732  0.3166
14761TIP3    H165774   6.362   4.474   0.416  0.6636  0.0030  1.5486
14761TIP3    H265775   6.221   4.438   0.460  0.5025  0.4214  1.3749
14762TIP3   OH265776   3.957   6.079  15.981 -0.1873  0.2294  0.1651
14762TIP3    H165777   3.891   6.022  15.943  0.1609 -0.6589  0.8691
14762TIP3    H265778   3.908   6.138  16.038 -0.2356 -1.4150  1.8633
14763TIP3   OH265779   0.498   6.126  12.399 -0.0171 -0.0178  0.1680
14763TIP3    H165780   0.531   6.043  12.435  1.1944  0.8030  1.0160
14763TIP3    H265781   0.561   6.149  12.331  2.1787  2.3775  2.8811
14764TIP3   OH265782   4.249   0.019  15.516  0.4789 -0.2190  0.1548
14764TIP3    H165783   4.200   0.031  15.598 -0.2883 -0.8043 -0.2123
14764TIP3    H265784   4.255  -0.076  15.506  0.7417 -0.1462 -0.3729
14765TIP3   OH265785   3.450   4.059  10.574 -0.4437  0.5308  0.0034
14765TIP3    H165786   3.382   4.005  10.534 -0.1351 -0.6417  1.0203
14765TIP3    H265787   3.522   3.998  10.592 -1.0226  0.7507  3.4308
14766TIP3   OH265788   0.731   0.964   5.002  0.0443 -0.7119 -0.6347
14766TIP3    H165789   0.732   0.973   4.907 -1.1279 -1.5892 -0.7461
14766TIP3    H265790   0.638   0.958   5.025  0.2540  0.8065  0.7098
14767TIP3   OH265791   2.696   3.128  14.597 -0.0282 -0.2704  0.1132
14767TIP3    H165792   2.673   3.218  14.573 -0.4613 -0.7488 -1.3015
14767TIP3    H265793   2.698   3.081  14.514  0.6989 -1.4608  0.8006
14768TIP3   OH265794   3.076   3.876   5.129  0.1102 -0.0472  0.0436
14768TIP3    H165795   3.076   3.863   5.034  0.8280  0.5967 -0.0445
14768TIP3    H265796   3.131   3.953   5.143  1.2391 -1.0214  1.0960
14769TIP3   OH265797   1.677   3.811  12.949 -0.2736 -0.3128  0.1466
14769TIP3    H165798   1.640   3.830  13.034 -1.9018 -0.1041 -0.5949
14769TIP3    H265799   1.645   3.724  12.927 -1.7347  0.5477 -1.2382
14770TIP3   OH265800   4.235   3.112  15.609 -0.7076 -0.4381 -0.2864
14770TIP3    H165801   4.227   3.193  15.659 -0.4866 -1.9707  2.2696
14770TIP3    H265802   4.196   3.133  15.524 -0.0069  2.5417  0.0882
14771TIP3   OH265803   5.531   4.888  11.548  0.2472  0.3496  0.4773
14771TIP3    H165804   5.565   4.975  11.569  2.0276 -0.2594  0.1911
14771TIP3    H265805   5.520   4.888  11.453  1.2206 -0.0695  0.3583
14772TIP3   OH265806   3.643   0.705  15.056  0.0337 -0.2966  0.5215
14772TIP3    H165807   3.723   0.712  15.107  0.0596 -0.1710  0.4642
14772TIP3    H265808   3.659   0.758  14.978 -0.4088  0.3789  0.8907
14773TIP3   OH265809   6.670   0.928   1.101  0.1723  0.1824  0.1146
14773TIP3    H165810   6.702   0.962   1.184  1.3051  0.2396 -0.3309
14773TIP3    H265811   6.675   0.833   1.111  1.1788  0.1951 -0.2070
14774TIP3   OH265812   0.249   4.656   5.099 -0.3687  0.9403  0.1065
14774TIP3    H165813   0.255   4.584   5.162  0.0033  1.3077  0.4947
14774TIP3    H265814   0.328   4.649   5.046 -1.0356  0.1812 -0.8167
14775TIP3   OH265815   3.255   3.810   2.158  0.0775 -0.3382  0.1632
14775TIP3    H165816   3.310   3.866   2.213 -2.9713  1.9648  1.0128
14775TIP3    H265817   3.223   3.868   2.089 -0.8636 -1.7501 -0.6142
14776TIP3   OH265818   4.617   0.251   0.993 -0.1234 -0.0387  0.2731
14776TIP3    H165819   4.560   0.175   0.989  1.2990 -1.1329  0.5149
14776TIP3    H265820   4.652   0.251   1.082  1.7775 -0.5284 -0.4439
14777TIP3   OH265821   0.718   0.252  14.046 -0.0246  0.3721  0.6274
14777TIP3    H165822   0.775   0.329  14.046 -0.1110  0.4362  0.6724
14777TIP3    H265823   0.631   0.286  14.063  0.0891  0.1579  1.6932
14778TIP3   OH265824   4.761   3.899  14.069  0.4009 -0.7181  0.1378
14778TIP3    H165825   4.707   3.826  14.040 -1.2726  0.1060  1.0477
14778TIP3    H265826   4.838   3.897  14.012 -0.5258 -2.0134 -1.0997
14779TIP3   OH265827   4.325   6.088  16.392 -0.2849 -0.6112 -0.3580
14779TIP3    H165828   4.414   6.110  16.420 -0.1679 -2.1171  0.4635
14779TIP3    H265829   4.270   6.156  16.432  0.3273 -0.5327  0.3632
14780TIP3   OH265830   6.013   2.467  16.400 -0.6825 -0.0454  0.2473
14780TIP3    H165831   6.099   2.484  16.361 -0.9685 -0.6574 -0.6623
14780TIP3    H265832   5.972   2.553  16.407 -0.9058 -0.0014 -1.4478
14781TIP3   OH265833   0.568   1.498  11.568 -0.1038 -0.0289  0.1853
14781TIP3    H165834   0.512   1.451  11.506 -1.0277  0.5499  0.5890
14781TIP3    H265835   0.510   1.560  11.612  0.8196  0.4829  0.6977
14782TIP3   OH265836   5.019   0.820  16.664 -0.0268 -0.0103 -0.0172
14782TIP3    H165837   4.999   0.739  16.617 -0.8453  0.5670 -0.6979
14782TIP3    H265838   5.114   0.820  16.673 -0.1250 -1.7363  1.2664
14783TIP3   OH265839   0.886   4.978   1.121 -0.4763  0.1671  0.4450
14783TIP3    H165840   0.802   5.011   1.154 -0.3501  0.5769  0.3576
14783TIP3    H265841   0.949   5.000   1.190 -0.2464  0.8540  0.0198
14784TIP3   OH265842   1.780   3.713   4.463  0.2264  0.3579  0.2582
14784TIP3    H165843   1.871   3.686   4.450  0.6430  1.6517  0.4600
14784TIP3    H265844   1.784   3.775   4.536 -0.8855  0.0598  0.5818
14785TIP3   OH265845   3.573   1.485   4.948 -0.0679 -0.1705  0.1158
14785TIP3    H165846   3.597   1.516   4.861 -0.4735 -0.2569 -0.0253
14785TIP3    H265847   3.582   1.562   5.004  1.4921 -0.4238  0.2445
14786TIP3   OH265848   4.411   2.922  16.900  0.5422  0.4018  0.0273
14786TIP3    H165849   4.333   2.897  16.950  0.2615 -0.3173 -0.7599
14786TIP3    H265850   4.425   3.014  16.923 -0.4760  0.5120  0.2576
14787TIP3   OH265851   3.497   0.415   5.208  0.3094  0.1891 -0.2112
14787TIP3    H165852   3.491   0.330   5.164  2.3225 -0.4134  0.6109
14787TIP3    H265853   3.427   0.413   5.272  0.4076 -0.9104 -0.1181
14788TIP3   OH265854   3.653   0.356   5.984 -0.2948  0.2572  0.1997
14788TIP3    H165855   3.699   0.396   6.057  0.9222 -1.1093  0.1971
14788TIP3    H265856   3.717   0.353   5.913 -1.9451  3.1544 -1.5421
14789TIP3   OH265857   1.161   1.329   4.832  0.1800  0.5585 -0.2134
14789TIP3    H165858   1.244   1.282   4.827 -1.0397 -1.6880  0.2244
14789TIP3    H265859   1.172   1.389   4.906  1.3268  0.1565 -0.0458
14790TIP3   OH265860   3.860   4.052  17.231  0.2452 -0.6047 -0.4751
14790TIP3    H165861   3.934   4.080  17.177  0.7186 -0.3668  0.2840
14790TIP3    H265862   3.785   4.097  17.193  1.0136  1.8886  0.8285
14791TIP3   OH265863   1.986   0.557   4.962  0.5550  0.1301  0.1450
14791TIP3    H165864   2.061   0.508   4.995  1.0028  0.3299 -0.5643
14791TIP3    H265865   2.008   0.649   4.979 -0.1992  0.1041  1.3082
14792TIP3   OH265866   2.716   6.250  14.584  0.0100 -0.3026 -0.6917
14792TIP3    H165867   2.812   6.248  14.589 -0.0369  0.7964  1.5416
14792TIP3    H265868   2.689   6.159  14.598  0.7467 -0.7041 -1.8843
14793TIP3   OH265869   4.207   5.789  17.160 -0.0094  0.2619 -0.0936
14793TIP3    H165870   4.291   5.816  17.197  1.1005 -0.9312 -1.6592
14793TIP3    H265871   4.190   5.852  17.090 -0.6109  0.7463  0.4953
14794TIP3   OH265872   1.637   4.608   5.411  0.4818  0.0121 -0.0748
14794TIP3    H165873   1.611   4.560   5.489  0.0124 -0.0542 -0.2724
14794TIP3    H265874   1.729   4.632   5.427  0.8442 -1.2840 -0.1531
14795TIP3   OH265875   5.541   3.258   3.184  1.0357  0.0682 -0.4732
14795TIP3    H165876   5.619   3.270   3.239  1.8471  0.1738 -1.6338
14795TIP3    H265877   5.509   3.171   3.206  2.6227 -0.7716 -1.3981
14796TIP3   OH265878   3.171   5.290  14.893  0.0261 -0.1114  0.2837
14796TIP3    H165879   3.153   5.225  14.826  0.9625  0.2661 -0.3383
14796TIP3    H265880   3.099   5.353  14.886  0.1073 -0.0917 -0.3332
14797TIP3   OH265881   5.534   2.597   5.528 -0.0586  0.1999 -0.1012
14797TIP3    H165882   5.592   2.636   5.593 -2.0416  0.9914  1.2502
14797TIP3    H265883   5.518   2.508   5.560 -1.8745  0.9334  1.0966
14798TIP3   OH265884   0.213   0.890  17.229  1.0681  0.7322  0.5372
14798TIP3    H165885   0.192   0.806  17.189 -0.7400  2.2553 -1.8730
14798TIP3    H265886   0.205   0.874  17.323  0.5180 -1.7312  0.1106
14799TIP3   OH265887   0.924   2.075  12.567 -0.3837  0.1167  0.3272
14799TIP3    H165888   1.010   2.039  12.588 -0.3124  0.8322  1.2576
14799TIP3    H265889   0.941   2.166  12.546 -1.1225  0.6603  2.0554
14800TIP3   OH265890   1.259   0.146  15.123 -0.3441 -0.4671  0.5448
14800TIP3    H165891   1.242   0.174  15.213 -1.2520 -0.4301  0.3683
14800TIP3    H265892   1.335   0.089  15.130 -0.2591 -0.2706  1.3055
14801TIP3   OH265893   0.370   3.544  15.691 -0.0049  0.0858 -0.3388
14801TIP3    H165894   0.354   3.498  15.608 -0.6938  0.2920 -0.3272
14801TIP3    H265895   0.296   3.604  15.699 -0.0139 -0.0309  0.4902
14802TIP3   OH265896   2.829   1.966  12.514  0.6998 -1.0999  0.7118
14802TIP3    H165897   2.749   1.951  12.462  0.9777  1.5866 -0.5807
14802TIP3    H265898   2.805   2.036  12.575  2.6830  1.3687 -1.2441
14803TIP3   OH265899   0.733   5.078   5.266 -0.1505 -0.6446  0.4464
14803TIP3    H165900   0.747   5.001   5.212  1.4673 -0.5869  0.7615
14803TIP3    H265901   0.788   5.064   5.343 -0.4313  0.4728  0.8659
14804TIP3   OH265902   2.247   6.650  12.575 -0.4010  0.6976  0.0686
14804TIP3    H165903   2.165   6.600  12.568 -0.9995  1.4975  1.2487
14804TIP3    H265904   2.278   6.633  12.664  1.4990 -0.7827 -0.8564
14805TIP3   OH265905   4.712   3.751   1.721  0.4203  0.6178  0.4330
14805TIP3    H165906   4.719   3.796   1.637 -2.3815  0.9452  0.3485
14805TIP3    H265907   4.671   3.667   1.700 -1.5798  1.2707  1.6374
14806TIP3   OH265908   6.536   4.224   5.362  0.1112  0.3742  0.9487
14806TIP3    H165909   6.619   4.235   5.317  0.3032  0.1990  1.2585
14806TIP3    H265910   6.550   4.259   5.450  0.4245 -1.3230  1.6055
14807TIP3   OH265911   1.545   1.980   2.188 -0.8634  0.0438 -0.6951
14807TIP3    H165912   1.490   2.043   2.235 -0.0806 -0.1491  0.4933
14807TIP3    H265913   1.631   1.987   2.230 -0.4973 -1.0833 -1.2410
14808TIP3   OH265914   1.915   1.275  14.365  0.1658 -0.1661 -0.1065
14808TIP3    H165915   1.978   1.238  14.303 -1.3658 -0.6315 -1.4105
14808TIP3    H265916   1.954   1.358  14.391  1.4063 -0.5223 -0.7405
14809TIP3   OH265917   2.462   2.214   0.382  0.4087 -0.1095  0.8218
14809TIP3    H165918   2.456   2.247   0.472  1.1198  2.2435  0.0305
14809TIP3    H265919   2.551   2.180   0.375 -0.2365 -2.0783  1.5470
14810TIP3   OH265920   1.871   0.482   1.244 -0.4378  0.3967  0.6499
14810TIP3    H165921   1.813   0.470   1.169 -1.3724 -0.0382  1.4366
14810TIP3    H265922   1.907   0.395   1.261  0.7519  0.7368 -0.0738
14811TIP3   OH265923   1.981   3.559   5.550  0.1091 -0.2009  0.2070
14811TIP3    H165924   1.901   3.507   5.558  1.1417 -1.7499  0.6770
14811TIP3    H265925   2.000   3.559   5.457 -0.9419  0.9617 -0.0188
14812TIP3   OH265926   4.416   4.007   0.341  0.0684 -0.1135  0.2844
14812TIP3    H165927   4.420   4.101   0.359  0.1928 -0.0191 -0.2147
14812TIP3    H265928   4.344   3.975   0.396 -3.3307  1.1519 -3.1392
14813TIP3   OH265929   1.860   2.010  12.754  0.2068 -0.0756  0.4092
14813TIP3    H165930   1.810   1.934  12.726 -1.0422 -0.1333  2.6403
14813TIP3    H265931   1.946   1.975  12.777 -0.5731 -0.9677  2.0727
14814TIP3   OH265932   0.242   5.748   0.106 -0.3660  0.6212 -0.2948
14814TIP3    H165933   0.239   5.844   0.099  1.7702  0.6696 -0.7760
14814TIP3    H265934   0.225   5.730   0.198  1.4886  1.6098  0.2631
14815TIP3   OH265935   3.595   6.747  15.296  0.6337  0.3393  0.5942
14815TIP3    H165936   3.601   6.827  15.244 -0.4626  1.4384  2.1441
14815TIP3    H265937   3.504   6.721  15.290  1.4809 -2.2667 -2.0257
14816TIP3   OH265938   4.250   3.972  13.527 -0.6633 -0.0405 -0.3963
14816TIP3    H165939   4.271   3.907  13.594  0.0704  0.5401 -0.0619
14816TIP3    H265940   4.167   3.941  13.489 -1.0496 -0.4008  0.7225
14817TIP3   OH265941   6.225   0.760   0.935 -0.2527  0.1284  0.4144
14817TIP3    H165942   6.183   0.845   0.923 -2.7873 -1.1467  0.0155
14817TIP3    H265943   6.255   0.760   1.025 -1.3869  0.9644  0.7925
14818TIP3   OH265944   0.531   5.439   5.565 -0.1156  0.1551 -0.4370
14818TIP3    H165945   0.574   5.353   5.570  0.8290  0.7245  1.9365
14818TIP3    H265946   0.439   5.419   5.549  0.1589 -1.2783 -0.3009
14819TIP3   OH265947   6.113   5.368  11.115  0.3064 -0.7794 -0.0133
14819TIP3    H165948   6.099   5.462  11.128  0.5071 -0.7940  0.2925
14819TIP3    H265949   6.040   5.341  11.059 -0.7820 -0.8164  1.4064
14820TIP3   OH265950   0.444   5.559   1.780 -0.3278 -0.1170  0.3313
14820TIP3    H165951   0.435   5.629   1.845 -0.7023  0.6695 -0.5647
14820TIP3    H265952   0.409   5.481   1.824  0.6945  0.1102  1.5644
14821TIP3   OH265953   2.211   0.684  12.305 -0.5322  0.5866  0.1290
14821TIP3    H165954   2.154   0.760  12.314 -0.5636  0.6331 -0.4345
14821TIP3    H265955   2.168   0.615  12.355  0.2813  1.3719  1.9386
14822TIP3   OH265956   2.305   1.501  14.922  0.0177  0.2704  0.2418
14822TIP3    H165957   2.364   1.447  14.974  1.2676  0.1513 -1.2794
14822TIP3    H265958   2.222   1.453  14.924  0.2176 -0.0477  1.5823
14823TIP3   OH265959   6.354   5.666  12.547 -0.2035 -0.2327 -0.3701
14823TIP3    H165960   6.304   5.642  12.625 -0.0135  1.5315  0.3187
14823TIP3    H265961   6.293   5.718  12.494  0.1143 -0.1934 -0.6980
14824TIP3   OH265962   4.922   5.163   5.164 -0.0741 -0.0543 -0.6948
14824TIP3    H165963   4.996   5.149   5.223  0.8502 -1.2617 -2.0981
14824TIP3    H265964   4.845   5.163   5.221  0.7400 -1.8376  0.4453
14825TIP3   OH265965   6.352   3.267   4.318 -0.7951 -0.0190 -0.1645
14825TIP3    H165966   6.332   3.349   4.272 -1.4938  0.1796  0.4928
14825TIP3    H265967   6.322   3.198   4.259  0.6390  0.1615 -1.1356
14826TIP3   OH265968   1.713   0.568  15.069 -0.0384 -0.2100  0.6617
14826TIP3    H165969   1.741   0.582  14.978  0.8065  2.7639  1.3195
14826TIP3    H265970   1.623   0.538  15.062 -0.0383  0.1186 -1.1528
14827TIP3   OH265971   3.745   1.568   2.291  0.4738 -0.1417  0.4638
14827TIP3    H165972   3.660   1.557   2.333  0.0347  1.0013 -0.1152
14827TIP3    H265973   3.736   1.521   2.208  0.4672 -0.1619  0.4756
14828TIP3   OH265974   0.218   0.530   6.635  0.5204  0.1696 -0.0626
14828TIP3    H165975   0.149   0.509   6.573  0.2566  0.0889  0.2578
14828TIP3    H265976   0.206   0.467   6.707 -0.5982  1.7307  1.1643
14829TIP3   OH265977   0.963   2.851  11.128 -0.0572  0.1838 -0.0753
14829TIP3    H165978   0.928   2.796  11.197  0.7201 -0.5856 -0.2865
14829TIP3    H265979   0.925   2.816  11.047  0.4358 -0.0537 -0.2092
14830TIP3   OH265980   6.201   5.911   3.503  0.1619 -0.3243  0.3226
14830TIP3    H165981   6.212   5.941   3.593  2.7100  0.6457 -0.2640
14830TIP3    H265982   6.191   5.992   3.452  0.7776 -0.7691 -0.5166
14831TIP3   OH265983   4.030   3.375  13.228 -0.0451 -0.1331 -0.1421
14831TIP3    H165984   4.083   3.406  13.154  0.8783  0.4860  0.7433
14831TIP3    H265985   3.993   3.455  13.266 -1.8052 -0.5810 -0.8741
14832TIP3   OH265986   5.499   0.848  17.189  0.3044  0.1803  0.1887
14832TIP3    H165987   5.558   0.923  17.175 -2.0008  1.5826 -2.5308
14832TIP3    H265988   5.430   0.883  17.246  0.3864 -0.5221  0.7200
14833TIP3   OH265989   4.147   2.934  14.353 -0.3157 -0.3726  0.1835
14833TIP3    H165990   4.078   2.996  14.328 -0.4043 -0.4339  0.2724
14833TIP3    H265991   4.207   2.985  14.406 -0.0484 -0.2048 -0.2755
14834TIP3   OH265992   3.062   0.399   4.647  0.0505  0.1606 -0.5038
14834TIP3    H165993   3.133   0.413   4.709  0.0879  0.0052 -0.5109
14834TIP3    H265994   3.070   0.471   4.584 -0.6456  0.9260  0.2780
14835TIP3   OH265995   3.365   0.576  13.215 -0.3456  0.3357  0.6517
14835TIP3    H165996   3.299   0.555  13.149  0.3912 -0.4776  0.1714
14835TIP3    H265997   3.371   0.671  13.214  0.7013  0.2752 -1.4981
14836TIP3   OH265998   2.840   4.827   2.864  0.5332 -0.0223 -1.2188
14836TIP3    H165999   2.886   4.902   2.827 -0.0850  0.2783 -1.3853
14836TIP3    H266000   2.779   4.800   2.796 -1.0680  0.9313 -0.2031
14837TIP3   OH266001   2.710   0.222  15.123 -0.1941  0.2031 -0.2090
14837TIP3    H166002   2.664   0.185  15.198 -1.2356 -0.1375 -1.0068
14837TIP3    H266003   2.667   0.185  15.047  0.2287  1.2874 -0.9975
14838TIP3   OH266004   6.785   6.074  17.052  0.3015 -0.5819  0.4594
14838TIP3    H166005   6.825   5.987  17.053  1.4177 -0.1377 -2.0473
14838TIP3    H266006   6.711   6.067  17.112 -0.4464 -3.6558 -0.7331
14839TIP3   OH266007   0.476   1.730   0.072  0.4788  0.6705 -0.8158
14839TIP3    H166008   0.400   1.673   0.082 -0.8392  2.4063 -0.7943
14839TIP3    H266009   0.451   1.792   0.003  0.8498  2.8993  1.0023
14840TIP3   OH266010   4.793   4.313  12.660 -0.5072  0.2208  0.6088
14840TIP3    H166011   4.870   4.363  12.633 -0.7465 -0.4678 -1.3994
14840TIP3    H266012   4.719   4.371  12.642 -0.6331 -0.0587  0.2195
14841TIP3   OH266013   6.303   4.033  13.172 -0.2880 -0.0623  0.1914
14841TIP3    H166014   6.239   4.102  13.187  0.1966  0.2300  0.9404
14841TIP3    H266015   6.286   4.003  13.083 -1.0796  0.4162  0.1800
14842TIP3   OH266016   3.452   6.561  15.950  0.5708 -0.5085  0.0513
14842TIP3    H166017   3.411   6.513  15.878  0.2053 -0.1160 -0.0074
14842TIP3    H266018   3.436   6.653  15.929  1.6078 -0.3471 -0.0429
14843TIP3   OH266019   6.232   3.365  16.368  0.3161 -0.0216  0.2330
14843TIP3    H166020   6.185   3.286  16.397 -2.1858  1.8434  1.4775
14843TIP3    H266021   6.229   3.423  16.445  1.7384  1.4454 -0.8051
14844TIP3   OH266022   3.671   1.770   3.308  0.3462 -0.9497  0.2671
14844TIP3    H166023   3.658   1.780   3.214  0.5863  2.1914  0.4919
14844TIP3    H266024   3.760   1.802   3.323  0.2692 -1.3206  1.5518
14845TIP3   OH266025   6.218   1.879   4.754 -0.3280  0.0934 -0.6243
14845TIP3    H166026   6.285   1.862   4.688 -0.5240  0.3201 -0.8799
14845TIP3    H266027   6.136   1.853   4.713 -0.3271 -0.7843 -0.0830
14846TIP3   OH266028   4.945   2.742   1.118 -0.2337  0.5726 -0.5264
14846TIP3    H166029   4.856   2.774   1.129 -0.4315 -0.0861 -0.1622
14846TIP3    H266030   4.999   2.821   1.116 -1.1016  1.1337 -3.6303
14847TIP3   OH266031   5.081   3.395   2.901 -0.2103 -1.0443  0.0919
14847TIP3    H166032   5.163   3.422   2.942 -0.7012  0.2314  0.2347
14847TIP3    H266033   5.109   3.349   2.821  0.6484 -0.7979  0.2434
14848TIP3   OH266034   3.464   4.659  17.035  0.4625 -0.3734  0.0145
14848TIP3    H166035   3.442   4.702  16.952 -0.5705 -0.9227 -0.0023
14848TIP3    H266036   3.533   4.713  17.073  0.7277  0.0533 -1.0601
14849TIP3   OH266037   3.483   4.941  13.371  0.6533  0.1096  0.3559
14849TIP3    H166038   3.538   4.883  13.318  1.0870 -0.1209  1.0457
14849TIP3    H266039   3.508   5.029  13.344 -1.0885 -0.0128 -1.7861
14850TIP3   OH266040   5.003   5.067   1.658  0.1857  0.2931  0.0066
14850TIP3    H166041   5.047   5.085   1.574 -0.0147  0.3034 -0.0971
14850TIP3    H266042   5.021   5.145   1.711  3.1343 -1.0946  1.1718
14851TIP3   OH266043   0.846   5.768   6.129 -0.3518 -0.1518 -0.6136
14851TIP3    H166044   0.918   5.709   6.154 -1.0645 -0.9862 -0.4770
14851TIP3    H266045   0.887   5.853   6.117  0.6158 -0.5615 -0.2578
14852TIP3   OH266046   6.044   6.301  14.578  0.4667 -0.1619 -0.4629
14852TIP3    H166047   5.972   6.323  14.637 -1.3969 -1.1731 -2.2646
14852TIP3    H266048   6.004   6.241  14.514  3.1620 -1.4981 -0.9402
14853TIP3   OH266049   5.394   4.106   6.090  0.4298  0.3251  0.1384
14853TIP3    H166050   5.310   4.139   6.120  0.8971 -0.1042  1.9639
14853TIP3    H266051   5.450   4.107   6.167  2.0661  0.4661 -1.0128
14854TIP3   OH266052   4.410   5.964  11.503  0.2875  0.1131  0.3070
14854TIP3    H166053   4.380   5.969  11.594 -0.9014 -0.7641 -0.0318
14854TIP3    H266054   4.382   6.046  11.463  1.6946  0.9462  0.9788
14855TIP3   OH266055   5.081   4.069  10.684  0.1809 -0.3422  0.0800
14855TIP3    H166056   5.152   4.086  10.622  0.4143 -1.3735  0.0575
14855TIP3    H266057   5.004   4.054  10.628  0.6485 -2.5100 -0.0372
14856TIP3   OH266058   1.344   5.034  16.684 -0.2857 -0.0240  0.7488
14856TIP3    H166059   1.422   5.088  16.683 -1.3314  1.5009  0.4582
14856TIP3    H266060   1.302   5.049  16.600 -0.4283 -1.5379  0.5337
14857TIP3   OH266061   0.059   4.744  12.671  0.1636  0.0067 -0.6494
14857TIP3    H166062   0.096   4.694  12.598  0.0627  0.1510 -0.7993
14857TIP3    H266063   0.104   4.828  12.667 -0.6363  0.4165 -1.2264
14858TIP3   OH266064   5.021   6.642   4.765 -0.1777 -0.1262  0.5965
14858TIP3    H166065   5.117   6.641   4.771 -0.1414  0.0104  0.0669
14858TIP3    H266066   4.998   6.735   4.767 -0.3302 -0.1699  1.1042
14859TIP3   OH266067   3.530   4.350  11.491  0.1368  0.4806 -0.5457
14859TIP3    H166068   3.570   4.431  11.524 -0.7892  1.0290 -0.7238
14859TIP3    H266069   3.503   4.303  11.570  1.8108 -0.2535 -0.4052
14860TIP3   OH266070   3.530   4.397   3.841 -0.0702  0.1967 -0.2204
14860TIP3    H166071   3.557   4.374   3.752 -1.1905 -1.8503 -0.0470
14860TIP3    H266072   3.532   4.493   3.842  1.9685  0.2039 -1.7996
14861TIP3   OH266073   1.172   1.591   0.350 -0.1092  0.1732  0.6169
14861TIP3    H166074   1.254   1.551   0.321  0.1097 -1.3433  3.1497
14861TIP3    H266075   1.196   1.680   0.374  0.9359 -0.4112  1.8000
14862TIP3   OH266076   3.270   3.372  15.710 -0.2122  0.0181 -0.1483
14862TIP3    H166077   3.321   3.438  15.662 -0.6937  1.0522  0.7240
14862TIP3    H266078   3.322   3.354  15.788 -1.0399  0.9040  0.6280
14863TIP3   OH266079   0.130   6.121   6.212  0.4012  0.0893  0.3397
14863TIP3    H166080   0.082   6.159   6.286 -0.4342 -0.3835  0.0431
14863TIP3    H266081   0.222   6.127   6.238  0.0300 -1.6253  2.1666
14864TIP3   OH266082   6.096   6.304   0.877 -0.2152  0.1065 -0.4785
14864TIP3    H166083   6.047   6.250   0.815 -0.5249  0.0089 -0.1495
14864TIP3    H266084   6.041   6.381   0.889 -0.0781  0.1991 -0.4476
14865TIP3   OH266085   0.457   4.022  16.520 -0.4867 -0.3041  0.4874
14865TIP3    H166086   0.452   3.927  16.520 -0.7486 -0.2931  1.4147
14865TIP3    H266087   0.476   4.045  16.429  0.4080 -1.2873  0.4145
14866TIP3   OH266088   0.472   0.491   4.377 -0.3646 -0.3925 -0.2151
14866TIP3    H166089   0.540   0.484   4.311 -0.6642 -2.1885 -0.3596
14866TIP3    H266090   0.457   0.401   4.407 -1.0423  0.2491  1.4688
14867TIP3   OH266091   1.334   4.769  12.851  0.4749 -0.2100  0.0826
14867TIP3    H166092   1.404   4.805  12.796 -0.5063  1.8272  0.1125
14867TIP3    H266093   1.328   4.831  12.924  0.7411 -2.0714  1.7168
14868TIP3   OH266094   1.663   4.808   0.236  0.3326 -0.6943 -0.2316
14868TIP3    H166095   1.656   4.843   0.148 -0.6862 -1.6093 -0.5224
14868TIP3    H266096   1.589   4.846   0.283  1.0524  0.0431  0.3318
14869TIP3   OH266097   0.160   0.573  13.606  0.0522  0.4822 -0.5519
14869TIP3    H166098   0.140   0.664  13.583  0.9814  1.1077  1.0190
14869TIP3    H266099   0.084   0.543  13.656 -0.0140  0.5740 -0.5961
14870TIP3   OH266100   5.849   5.361  12.011  0.9703 -0.1643 -0.0203
14870TIP3    H166101   5.938   5.354  12.045  0.5158  1.1289  1.5426
14870TIP3    H266102   5.797   5.307  12.070  0.7047 -0.8558 -0.8864
14871TIP3   OH266103   4.781   0.915   4.018  0.0821  0.2466  0.3173
14871TIP3    H166104   4.846   0.902   3.950 -0.7446 -0.8500 -0.2718
14871TIP3    H266105   4.716   0.847   4.003  1.2467 -1.7872  3.8408
14872TIP3   OH266106   1.702   4.649   3.489  0.3406 -0.3344  0.6105
14872TIP3    H166107   1.628   4.617   3.541  0.0267 -0.2975  0.1861
14872TIP3    H266108   1.664   4.672   3.404  0.4953  1.5047  1.0219
14873TIP3   OH266109   1.842   2.824   3.296 -0.2608 -0.4092  0.1423
14873TIP3    H166110   1.784   2.750   3.312  0.7086 -1.2160 -0.0426
14873TIP3    H266111   1.849   2.868   3.380 -0.7530 -0.5930  0.2789
14874TIP3   OH266112   3.390   4.460   4.819  0.2612 -0.5456 -0.0340
14874TIP3    H166113   3.413   4.477   4.727  1.0124  0.8852  0.4016
14874TIP3    H266114   3.474   4.442   4.861  0.1018  0.5140  0.7287
14875TIP3   OH266115   0.296   6.485   5.399 -0.3013 -0.7045 -0.0012
14875TIP3    H166116   0.324   6.575   5.416  1.4712 -1.4574  1.1876
14875TIP3    H266117   0.224   6.470   5.461  0.0840 -0.4425  0.5121
14876TIP3   OH266118   2.849   2.310   3.272  0.2659 -0.0033 -0.2113
14876TIP3    H166119   2.774   2.348   3.317  0.8554  2.4044 -1.1844
14876TIP3    H266120   2.811   2.247   3.211 -0.9510  0.9125 -0.4205
14877TIP3   OH266121   5.402   0.454  13.201 -0.3406 -0.2980 -0.1231
14877TIP3    H166122   5.448   0.538  13.208 -1.4949  0.3310 -0.0954
14877TIP3    H266123   5.341   0.465  13.129 -0.9228 -0.9112  0.2698
14878TIP3   OH266124   0.839   2.178  13.710 -0.4243  0.2145  0.2727
14878TIP3    H166125   0.835   2.164  13.804 -1.1957 -1.4072  0.0163
14878TIP3    H266126   0.925   2.142  13.684  0.2335  1.6130  0.5059
14879TIP3   OH266127   2.532   4.687   1.473 -0.7036  0.3148  0.2596
14879TIP3    H166128   2.605   4.660   1.530  0.4193 -0.3490 -1.4611
14879TIP3    H266129   2.527   4.782   1.485 -1.2569  0.0593  2.3500
14880TIP3   OH266130   5.306   6.152  14.112  0.0458 -0.9476 -0.5474
14880TIP3    H166131   5.298   6.181  14.021 -0.2073  1.0536  0.0750
14880TIP3    H266132   5.249   6.213  14.161 -0.0757 -2.2033  0.9024
14881TIP3   OH266133   6.601   6.199  12.712 -0.2987  0.5507 -0.3465
14881TIP3    H166134   6.531   6.138  12.690 -1.8479  2.5336 -1.2025
14881TIP3    H266135   6.661   6.195  12.638 -0.3385 -0.0387 -0.3421
14882TIP3   OH266136   2.920   6.433   5.037  0.1205  0.2496  0.3434
14882TIP3    H166137   2.869   6.506   5.072 -0.1215 -0.1765  0.8930
14882TIP3    H266138   2.855   6.365   5.018 -0.1020  1.4672 -3.6230
14883TIP3   OH266139   0.836   6.020  15.163  0.3569 -0.1826 -0.4156
14883TIP3    H166140   0.772   5.975  15.217 -0.5257 -1.4675 -2.4647
14883TIP3    H266141   0.811   5.998  15.073  3.0823  0.0618 -1.2819
14884TIP3   OH266142   2.699   1.078   3.980 -0.2549 -0.0469 -0.1772
14884TIP3    H166143   2.721   1.067   4.072 -1.6388 -0.1795  0.1517
14884TIP3    H266144   2.783   1.094   3.937  0.3276  0.6874  1.1997
14885TIP3   OH266145   6.580   6.452  11.489 -0.4788  0.2359  0.4252
14885TIP3    H166146   6.605   6.545  11.486  0.0559  0.1600  2.2786
14885TIP3    H266147   6.520   6.446  11.562  0.4086 -1.1029  1.0622
14886TIP3   OH266148   1.372   0.144  13.104 -0.0946 -0.2663  0.4113
14886TIP3    H166149   1.301   0.103  13.054 -1.0986  0.3463  1.2966
14886TIP3    H266150   1.342   0.234  13.118  0.7956 -0.0430  0.9301
14887TIP3   OH266151   1.507   4.005   2.876 -0.1242 -0.1915 -0.2081
14887TIP3    H166152   1.586   3.968   2.914  0.6351  1.5461 -0.0521
14887TIP3    H266153   1.436   3.952   2.912  0.7636 -0.0908  1.7484
14888TIP3   OH266154   2.102   3.341   4.623  0.2432 -0.0288 -0.4876
14888TIP3    H166155   2.184   3.324   4.668 -0.3077  1.0988  0.9906
14888TIP3    H266156   2.038   3.287   4.670 -0.1242  0.2714 -0.6432
14889TIP3   OH266157   2.177   5.446   2.041  0.4890  0.4712 -0.2547
14889TIP3    H166158   2.083   5.450   2.053  0.8146  1.4498  2.4379
14889TIP3    H266159   2.203   5.537   2.023  1.0022  0.4080  0.1231
14890TIP3   OH266160   6.269   2.123   5.087 -0.6867  0.1108 -0.0341
14890TIP3    H166161   6.300   2.192   5.145  0.2445 -0.9664  0.7795
14890TIP3    H266162   6.198   2.081   5.135 -0.0429 -0.6574  0.2692
14891TIP3   OH266163   3.026   1.782   6.040 -0.2387 -0.2781 -0.4630
14891TIP3    H166164   2.959   1.847   6.020 -0.2274  0.0155  0.4499
14891TIP3    H266165   3.101   1.833   6.070  0.3417 -0.6125 -1.3337
14892TIP3   OH266166   2.425   6.213   1.416  0.1522  0.3582  0.1580
14892TIP3    H166167   2.443   6.297   1.458 -0.3855 -0.2074  1.5576
14892TIP3    H266168   2.396   6.236   1.328  1.0564  1.5811  0.1644
14893TIP3   OH266169   3.001   0.319   0.350 -0.0483 -0.8571 -0.1716
14893TIP3    H166170   2.996   0.294   0.258 -0.1623  0.1084 -0.4324
14893TIP3    H266171   2.912   0.306   0.383  0.5156 -3.4358  0.4006
14894TIP3   OH266172   5.900   3.049  16.623  0.7890  0.2995 -0.4168
14894TIP3    H166173   5.929   2.994  16.695  1.1925  0.5210 -0.4106
14894TIP3    H266174   5.806   3.032  16.615  1.2901 -2.0283 -1.8090
14895TIP3   OH266175   5.328   0.252  14.383 -0.7940  0.0702  0.0959
14895TIP3    H166176   5.335   0.307  14.461  1.2104 -0.1192  0.0723
14895TIP3    H266177   5.415   0.255  14.343 -1.3808 -1.0385 -1.3285
14896TIP3   OH266178   3.999   0.722  16.142  0.4428  0.1502 -0.2875
14896TIP3    H166179   3.975   0.700  16.052  0.0851 -0.1258 -0.1286
14896TIP3    H266180   3.932   0.786  16.169 -0.2879 -0.8164  0.2490
14897TIP3   OH266181   2.440   1.073  12.124 -0.2244  0.1588 -0.1043
14897TIP3    H166182   2.465   1.144  12.183 -1.7600  0.2579  0.4418
14897TIP3    H266183   2.439   1.113  12.037 -0.0921  0.5442  0.0709
14898TIP3   OH266184   4.693   5.427   1.895 -0.3388  0.4197 -0.4043
14898TIP3    H166185   4.731   5.340   1.880  1.4677  1.1764 -0.2939
14898TIP3    H266186   4.635   5.441   1.820 -0.3871 -0.7215 -0.5966
14899TIP3   OH266187   1.080   0.764   4.437  0.1484  0.0833 -1.3510
14899TIP3    H166188   1.095   0.781   4.344  0.5541  0.6505 -1.1846
14899TIP3    H266189   1.115   0.841   4.481  1.5764 -0.9773 -0.6062
14900TIP3   OH266190   4.034   1.769  16.783 -0.3410  0.6009 -0.0415
14900TIP3    H166191   4.098   1.826  16.741  0.3569 -0.0746  0.1052
14900TIP3    H266192   4.075   1.741  16.865 -0.4505 -0.5274 -0.3526
14901TIP3   OH266193   0.834   6.287  15.101  0.2482 -0.3277  0.4814
14901TIP3    H166194   0.910   6.328  15.143  1.4390  0.4132 -2.2675
14901TIP3    H266195   0.840   6.195  15.125  1.4063 -0.0809  1.1829
14902TIP3   OH266196   6.059   5.366   3.791  0.8968  0.2402 -0.1091
14902TIP3    H166197   5.998   5.381   3.719  0.6024  1.8073  0.4450
14902TIP3    H266198   6.054   5.272   3.809 -1.2941  0.3492 -0.1204
14903TIP3   OH266199   5.169   2.788  12.505 -0.0236 -0.1702 -0.0295
14903TIP3    H166200   5.139   2.862  12.453 -0.9132 -0.3158  0.2671
14903TIP3    H266201   5.250   2.819  12.546 -1.2369  1.2244  1.3756
14904TIP3   OH266202   6.628   6.788   0.484 -0.2542 -0.8576 -0.0320
14904TIP3    H166203   6.690   6.745   0.543  0.7639  0.1514 -0.3513
14904TIP3    H266204   6.649   6.881   0.491 -2.2594 -0.4065  0.4600
14905TIP3   OH266205   1.168   4.582  11.971 -0.5265  0.3935 -0.0928
14905TIP3    H166206   1.161   4.568  11.876 -1.4476  0.8594 -0.0964
14905TIP3    H266207   1.213   4.504  12.003 -0.1229  0.2729 -0.9217
14906TIP3   OH266208   4.031   2.433   0.174 -0.0717  0.1757 -0.3178
14906TIP3    H166209   3.965   2.398   0.114  0.9074  0.4799 -1.6049
14906TIP3    H266210   4.107   2.376   0.162  0.4971  0.8924 -0.1503
14907TIP3   OH266211   5.319   6.540  13.591  0.0031 -0.4447  0.2952
14907TIP3    H166212   5.313   6.458  13.640 -1.8694  0.6794  1.9952
14907TIP3    H266213   5.412   6.553  13.578  0.5075 -1.1690  2.8977
14908TIP3   OH266214   1.114   0.834  13.939 -0.1595 -0.4716 -0.5643
14908TIP3    H166215   1.021   0.836  13.960  0.0073 -0.4717  0.1820
14908TIP3    H266216   1.137   0.925  13.922  0.0220 -0.2728  0.6841
14909TIP3   OH266217   0.553   4.994  13.302 -0.3774 -0.3423 -0.0477
14909TIP3    H166218   0.632   4.996  13.248  0.1953 -2.0091  0.7044
14909TIP3    H266219   0.481   4.989  13.238  0.1470  0.2692 -0.7042
14910TIP3   OH266220   3.901   1.216  13.834 -0.2201 -0.5579 -0.1480
14910TIP3    H166221   3.834   1.155  13.804 -0.5903  0.1943 -0.8586
14910TIP3    H266222   3.879   1.299  13.792  2.3229 -0.7673 -1.9752
14911TIP3   OH266223   5.836   0.494  12.742  0.1832 -0.5335  0.6786
14911TIP3    H166224   5.813   0.471  12.652  2.3456  2.0205 -0.5983
14911TIP3    H266225   5.873   0.414  12.779  0.6119 -1.2194 -1.1777
14912TIP3   OH266226   6.000   6.431  15.606  0.2175  0.0468  0.1385
14912TIP3    H166227   6.021   6.497  15.672  1.0213 -1.7986  1.7913
14912TIP3    H266228   5.906   6.439  15.593  0.3228  1.5827  0.2382
14913TIP3   OH266229   3.025   4.214  14.132  0.8384  0.6496 -1.4115
14913TIP3    H166230   3.056   4.302  14.150  0.7619  0.5095 -0.5806
14913TIP3    H266231   2.934   4.226  14.104 -0.3404  0.5852  2.1019
14914TIP3   OH266232   3.847   2.266  15.351  0.5314  0.0815  0.4511
14914TIP3    H166233   3.774   2.320  15.382 -0.5002  1.4394 -3.8854
14914TIP3    H266234   3.814   2.176  15.354  0.0008  0.3235  1.9188
14915TIP3   OH266235   2.373   4.000   0.602 -0.1024 -0.1244 -0.0064
14915TIP3    H166236   2.281   4.028   0.604  0.2802  1.1612 -0.1619
14915TIP3    H266237   2.398   4.008   0.511  0.5559  0.7847  0.2577
14916TIP3   OH266238   2.621   3.983   6.782  0.3283  0.2254  0.2844
14916TIP3    H166239   2.690   3.916   6.784  0.4394  0.2972 -0.7222
14916TIP3    H266240   2.649   4.044   6.714 -1.3881 -0.4675 -1.0891
14917TIP3   OH266241   0.654   2.657  12.047  0.0312  1.0303  0.8480
14917TIP3    H166242   0.621   2.568  12.033 -0.2367  1.3239 -0.4577
14917TIP3    H266243   0.691   2.655  12.135  0.1568 -0.4133  0.7796
14918TIP3   OH266244   1.476   2.536   3.064  0.5113 -0.0275  0.6049
14918TIP3    H166245   1.560   2.509   3.100  0.8168  0.3872  0.2190
14918TIP3    H266246   1.494   2.555   2.972  0.0912  0.4657  0.6158
14919TIP3   OH266247   1.308   1.401   4.394  0.4405 -0.5550 -0.6348
14919TIP3    H166248   1.375   1.464   4.364 -0.8929  0.7236 -0.9996
14919TIP3    H266249   1.247   1.396   4.321  0.1038 -1.6818 -0.2776
14920TIP3   OH266250   4.672   5.656   2.137 -0.0381  0.2812 -0.6184
14920TIP3    H166251   4.758   5.654   2.180 -1.1748 -1.7191  1.6909
14920TIP3    H266252   4.673   5.580   2.080  0.1567  0.9475 -1.5106
14921TIP3   OH266253   2.450   4.197   5.343  0.4325  0.0764  0.0578
14921TIP3    H166254   2.482   4.286   5.363 -1.3667  0.8013 -0.1509
14921TIP3    H266255   2.428   4.160   5.429 -0.6750  0.5933  0.0179
14922TIP3   OH266256   2.045   5.299   1.251  0.4721  0.3774 -0.2191
14922TIP3    H166257   2.015   5.367   1.190  0.0530 -1.3878 -2.0691
14922TIP3    H266258   2.065   5.224   1.194 -0.1078 -1.3952  1.8400
14923TIP3   OH266259   4.358   1.578  14.493 -0.1688  0.6651  0.0524
14923TIP3    H166260   4.406   1.565  14.411 -0.7200 -0.9578 -0.0362
14923TIP3    H266261   4.371   1.671  14.514 -0.3470  1.2073 -2.0821
14924TIP3   OH266262   5.319   5.506  16.233  0.2472 -0.1144 -0.1879
14924TIP3    H166263   5.368   5.447  16.176  0.1766  0.7375 -1.1451
14924TIP3    H266264   5.364   5.591  16.224  0.4392 -0.0399  1.2764
14925TIP3   OH266265   1.058   0.085  14.936 -0.1934 -0.0579  0.2817
14925TIP3    H166266   1.123   0.118  14.997 -1.5595 -0.2655  1.8918
14925TIP3    H266267   1.069  -0.010  14.938 -0.4819 -0.0896  0.5078
14926TIP3   OH266268   4.989   3.532   5.846 -0.3865  0.6589  0.4123
14926TIP3    H166269   4.949   3.483   5.918  2.0266 -0.4262  1.0781
14926TIP3    H266270   5.013   3.464   5.782 -0.5241  1.3964 -0.4318
14927TIP3   OH266271   4.262   4.901  14.135 -0.0052  0.0556 -0.3500
14927TIP3    H166272   4.197   4.869  14.073 -0.6874  3.3841 -1.4950
14927TIP3    H266273   4.338   4.846  14.121 -0.8761 -0.6219 -2.6609
14928TIP3   OH266274   2.239   1.487   0.921 -0.6400  0.0663 -0.7274
14928TIP3    H166275   2.317   1.542   0.925 -0.0579 -0.8162  0.1517
14928TIP3    H266276   2.220   1.464   1.012 -0.6163 -1.5488 -1.1211
14929TIP3   OH266277   0.145   4.950  14.773  0.2951 -0.5805  0.6235
14929TIP3    H166278   0.157   4.966  14.867  0.8152 -0.2797  0.5063
14929TIP3    H266279   0.227   4.909  14.745  1.1151  1.5769 -0.2158
14930TIP3   OH266280   2.197   0.208  14.773  0.3931 -0.2340  0.1843
14930TIP3    H166281   2.171   0.117  14.758 -1.2542  0.2926 -0.2040
14930TIP3    H266282   2.283   0.201  14.815  0.4450 -1.9572 -0.1554
14931TIP3   OH266283   1.154   0.893   2.180  0.3568  0.1765 -0.2839
14931TIP3    H166284   1.171   0.814   2.232  0.6360  1.2139  1.2206
14931TIP3    H266285   1.234   0.945   2.189  0.1401  0.6726 -1.2165
14932TIP3   OH266286   2.766   1.900   3.558  0.4659 -0.0194 -0.1647
14932TIP3    H166287   2.764   1.840   3.483 -3.3188  1.0626 -1.0391
14932TIP3    H266288   2.734   1.848   3.632  1.2567 -0.2318  0.0335
14933TIP3   OH266289   1.441   0.511   3.246  0.3418 -0.2274 -0.6579
14933TIP3    H166290   1.406   0.569   3.314 -1.7024 -1.7712 -0.3497
14933TIP3    H266291   1.377   0.517   3.175  0.9234 -0.9388 -1.2417
14934TIP3   OH266292   3.948   1.643   4.933 -0.4602 -0.7111  0.3311
14934TIP3    H166293   4.038   1.642   4.901 -0.1461  0.4923  1.1562
14934TIP3    H266294   3.896   1.605   4.862  1.0022 -3.7591  0.8238
14935TIP3   OH266295   1.716   2.412   3.148  0.5061  0.2065 -0.6368
14935TIP3    H166296   1.707   2.365   3.066  1.4579  0.7073 -1.0410
14935TIP3    H266297   1.762   2.493   3.125 -0.0436  0.7784  0.2329
14936TIP3   OH266298   5.332   0.703   2.094  0.1331 -0.4343  0.0455
14936TIP3    H166299   5.352   0.640   2.163 -0.6081 -0.5571  0.1448
14936TIP3    H266300   5.291   0.651   2.025  0.4360 -0.2287 -0.2942
14937TIP3   OH266301   0.045   0.753   4.093  0.2369  0.4015 -0.3082
14937TIP3    H166302   0.108   0.736   4.162 -2.6646 -1.4111  2.0276
14937TIP3    H266303   0.037   0.849   4.090  1.6264  0.5606  0.6719
14938TIP3   OH266304   5.105   3.377   4.961 -0.2203 -0.2501 -0.1052
14938TIP3    H166305   5.044   3.376   5.035  0.3662  3.7714  0.5374
14938TIP3    H266306   5.189   3.349   4.998 -0.7407 -1.9490 -0.1449
14939TIP3   OH266307   6.097   3.442  13.145  0.1785 -0.3652  0.4266
14939TIP3    H166308   6.074   3.413  13.057  0.5659  0.1925  0.1390
14939TIP3    H266309   6.024   3.414  13.200  0.2021 -1.2273  0.0334
14940TIP3   OH266310   5.805   0.590   0.065 -0.6108 -0.0275  0.5339
14940TIP3    H166311   5.776   0.587   0.156  1.4516 -0.7932  1.2092
14940TIP3    H266312   5.895   0.622   0.070 -0.6138  0.3437 -1.2849
14941TIP3   OH266313   1.095   6.499   0.553  0.5202  0.3346 -0.9947
14941TIP3    H166314   1.187   6.516   0.573  0.5346 -0.3844 -0.4370
14941TIP3    H266315   1.064   6.445   0.626 -0.0107 -0.4872 -1.8241
14942TIP3   OH266316   6.358   0.807  15.255  0.0695  0.4446 -0.1592
14942TIP3    H166317   6.432   0.840  15.203  0.2212 -1.1508 -0.9992
14942TIP3    H266318   6.384   0.822  15.346  0.2076  2.4276 -0.4958
14943TIP3   OH266319   4.499   5.393   0.456  0.2772 -0.0807  0.2612
14943TIP3    H166320   4.544   5.309   0.467 -0.2115 -0.2208  1.3026
14943TIP3    H266321   4.456   5.408   0.541 -3.1536 -0.8372 -1.2451
14944TIP3   OH266322   1.185   3.627  12.871  0.5221  0.0051  0.2265
14944TIP3    H166323   1.258   3.685  12.850 -1.4438  2.5252  0.1178
14944TIP3    H266324   1.197   3.604  12.963  1.2236  0.6993  0.3112
14945TIP3   OH266325   2.714   2.656   5.062 -0.2661  0.5065  0.5255
14945TIP3    H166326   2.723   2.569   5.023 -0.9893  1.3185 -1.5167
14945TIP3    H266327   2.787   2.707   5.025 -1.1581  1.3834 -0.0551
14946TIP3   OH266328   2.351   0.569   1.294  0.0175  0.1133  0.3409
14946TIP3    H166329   2.355   0.590   1.388  0.6635 -1.4589  0.6782
14946TIP3    H266330   2.262   0.592   1.269  0.0165  1.1145  1.2046
14947TIP3   OH266331   5.923   3.655   0.940  0.4955  0.2364 -0.2980
14947TIP3    H166332   6.003   3.604   0.926  0.8398  1.5663 -3.4021
14947TIP3    H266333   5.910   3.704   0.859 -0.9904  3.5224  1.8222
14948TIP3   OH266334   4.815   1.600   2.231 -0.6008 -1.2381  0.1202
14948TIP3    H166335   4.887   1.635   2.179  0.3855  0.7050  2.6653
14948TIP3    H266336   4.854   1.527   2.279 -0.4688 -0.5417  1.0768
14949TIP3   OH266337   4.464   2.534   5.573 -0.4774  0.0164  0.6429
14949TIP3    H166338   4.521   2.477   5.521 -0.9910  0.3883 -0.3222
14949TIP3    H266339   4.489   2.623   5.547 -1.5511  0.1786  0.1639
14950TIP3   OH266340   5.668   6.481   1.830  0.1354  0.4777 -0.0807
14950TIP3    H166341   5.717   6.557   1.862 -1.4418  1.4688  0.0851
14950TIP3    H266342   5.587   6.519   1.795 -0.5298 -1.1115 -0.2956
14951TIP3   OH266343   6.657   1.578  11.207 -0.2911  0.0939  0.3398
14951TIP3    H166344   6.658   1.629  11.126  1.1426 -1.2980 -0.5322
14951TIP3    H266345   6.569   1.541  11.211 -0.8679  1.3990  0.2285
14952TIP3   OH266346   4.399   5.390  12.122  0.5016 -0.3763  0.2227
14952TIP3    H166347   4.382   5.459  12.057  0.4414 -0.7143 -0.1196
14952TIP3    H266348   4.491   5.369  12.111  0.0895 -1.6116 -0.9000
14953TIP3   OH266349   3.731   2.970  11.274 -0.7298  0.1490  0.7160
14953TIP3    H166350   3.745   2.890  11.224  1.1359  1.2594 -0.5829
14953TIP3    H266351   3.645   3.001  11.247 -0.7994 -0.5923  0.0727
14954TIP3   OH266352   1.449   2.470  17.044  1.1908  0.3153  0.2710
14954TIP3    H166353   1.375   2.490  17.102  1.4720 -0.2178  0.8326
14954TIP3    H266354   1.524   2.511  17.086  1.9618 -2.6648  1.9996
14955TIP3   OH266355   2.944   0.977  12.854  0.4542 -0.0085  0.8041
14955TIP3    H166356   2.860   0.940  12.884 -0.1096  0.2221 -0.4598
14955TIP3    H266357   2.996   0.901  12.828 -0.5064  0.0136 -1.2865
14956TIP3   OH266358   3.812   3.327  12.235 -0.6219 -0.9983  0.2327
14956TIP3    H166359   3.891   3.364  12.195 -0.4829 -1.6876 -0.1406
14956TIP3    H266360   3.748   3.322  12.163 -1.4247  0.7196  0.8074
14957TIP3   OH266361   5.189   5.798  12.610 -0.2604  0.4556 -0.2744
14957TIP3    H166362   5.157   5.789  12.700  0.2755 -0.1302 -0.1397
14957TIP3    H266363   5.146   5.727  12.562  0.1426  0.2217 -0.2882
14958TIP3   OH266364   2.560   1.755   4.858  0.5015 -0.6960 -0.2293
14958TIP3    H166365   2.604   1.753   4.943 -0.0198  0.3385  0.0758
14958TIP3    H266366   2.538   1.663   4.840  1.4894 -1.0370  0.2890
14959TIP3   OH266367   2.756   6.717   3.698 -0.1417 -0.1193 -0.0783
14959TIP3    H166368   2.729   6.753   3.783 -1.5450 -0.7946 -0.2275
14959TIP3    H266369   2.822   6.651   3.721  1.0916  1.2265  0.3195
14960TIP3   OH266370   0.603   3.436   2.376 -0.2537 -0.0005 -0.2748
14960TIP3    H166371   0.522   3.480   2.405  0.3937  0.1452  1.3852
14960TIP3    H266372   0.624   3.477   2.292  0.5041  3.1524  1.3551
14961TIP3   OH266373   2.169   1.112  12.611 -0.4838 -0.3712  0.0536
14961TIP3    H166374   2.251   1.148  12.645 -0.7990  1.5520 -1.1004
14961TIP3    H266375   2.101   1.156  12.661 -0.8453 -0.2474 -0.5366
14962TIP3   OH266376   3.873   5.782  13.740  0.1912 -0.7949 -0.0912
14962TIP3    H166377   3.814   5.804  13.812 -0.0279  0.5188 -0.6499
14962TIP3    H266378   3.886   5.687  13.746 -0.8674 -0.8764  0.8698
14963TIP3   OH266379   4.578   3.786  10.309 -0.3129 -0.3930 -0.4514
14963TIP3    H166380   4.500   3.839  10.291 -0.7324 -0.5872  0.7725
14963TIP3    H266381   4.648   3.849  10.319 -0.8968 -0.0194  1.4479
14964TIP3   OH266382   5.096   0.641   0.796  0.1104 -0.1248  0.2756
14964TIP3    H166383   5.175   0.588   0.803  0.0410 -0.3643 -0.6465
14964TIP3    H266384   5.120   0.713   0.737 -0.5999 -0.6883 -0.7257
14965TIP3   OH266385   5.611   0.369  11.181 -0.9308 -0.0973  0.2620
14965TIP3    H166386   5.704   0.376  11.201 -1.0985 -0.4510  1.2249
14965TIP3    H266387   5.605   0.374  11.086  0.1104 -0.5073  0.1769
14966TIP3   OH266388   4.070   3.509   4.862  0.0546 -0.1589  0.2732
14966TIP3    H166389   4.043   3.589   4.817 -1.9226 -1.7071 -1.3611
14966TIP3    H266390   4.153   3.533   4.905  1.4439  1.6870 -3.2408
14967TIP3   OH266391   4.775   4.602   0.544  0.1397  0.3545 -0.3608
14967TIP3    H166392   4.781   4.525   0.486 -1.0080  0.4519 -0.6111
14967TIP3    H266393   4.803   4.675   0.489 -0.2726  0.3450 -0.5816
14968TIP3   OH266394   0.366   1.223   5.398  0.2459 -0.5632 -0.1317
14968TIP3    H166395   0.434   1.271   5.445  0.8778  0.4577 -2.0462
14968TIP3    H266396   0.412   1.151   5.356 -0.0563 -0.6180 -0.3706
14969TIP3   OH266397   0.769   0.400   0.446  0.0438  0.1002 -0.2455
14969TIP3    H166398   0.703   0.386   0.513 -0.3474 -0.9953 -0.8400
14969TIP3    H266399   0.810   0.314   0.434  1.9070  0.8608  0.4532
14970TIP3   OH266400   4.144   5.196  13.983  0.2312 -0.7338 -0.8175
14970TIP3    H166401   4.106   5.268  14.033 -0.1437  0.3242 -2.5528
14970TIP3    H266402   4.088   5.121  14.001  0.8938 -0.7283  1.3728
14971TIP3   OH266403   5.176   5.704  16.669 -0.3968 -0.2653  0.1249
14971TIP3    H166404   5.088   5.703  16.707 -1.1605 -0.6687 -1.5813
14971TIP3    H266405   5.190   5.614  16.640  1.7521 -0.9068  2.8878
14972TIP3   OH266406   3.085   5.388   0.624 -0.2540  0.1702 -0.0374
14972TIP3    H166407   3.129   5.389   0.709 -1.6033 -0.7575  0.6825
14972TIP3    H266408   3.127   5.316   0.576 -0.5969 -0.3560  0.4444
14973TIP3   OH266409   1.534   2.027   3.191 -0.1806  0.7314  0.0068
14973TIP3    H166410   1.476   2.095   3.225 -1.7178 -0.3769 -0.3294
14973TIP3    H266411   1.476   1.952   3.175  1.5191 -0.7470  0.6346
14974TIP3   OH266412   0.485   1.621  15.888  0.4489  0.2099 -0.7812
14974TIP3    H166413   0.457   1.674  15.813  0.1935  2.3268  0.7751
14974TIP3    H266414   0.540   1.680  15.940  1.1439 -1.4262  0.3745
14975TIP3   OH266415   6.428   6.354  14.844  0.3194  0.2861  1.0410
14975TIP3    H166416   6.409   6.447  14.844 -2.3476 -0.2180  2.0588
14975TIP3    H266417   6.344   6.312  14.826  1.3141 -1.9499  1.4034
14976TIP3   OH266418   0.227   0.794  15.432 -0.3331 -0.0357 -0.0409
14976TIP3    H166419   0.145   0.751  15.410 -0.1706 -1.6538  2.3421
14976TIP3    H266420   0.294   0.729  15.410  0.2557  0.8525 -0.9288
14977TIP3   OH266421   2.549   0.247  13.792 -0.2252  0.0140  0.2126
14977TIP3    H166422   2.567   0.218  13.882  0.9530 -2.4202 -0.7645
14977TIP3    H266423   2.599   0.328  13.783  0.5703 -0.3259  1.4106
14978TIP3   OH266424   6.247   1.765  13.502  0.3018 -0.0099  0.2766
14978TIP3    H166425   6.304   1.811  13.564  0.0756  1.4311 -0.5761
14978TIP3    H266426   6.180   1.828  13.479 -0.8082 -1.2184  0.1195
14979TIP3   OH266427   4.678   3.410  12.071  0.1622 -0.2379 -0.2945
14979TIP3    H166428   4.639   3.446  12.150 -0.6509  1.1838 -1.3271
14979TIP3    H266429   4.605   3.401  12.010  0.9704 -0.2324 -1.2757
14980TIP3   OH266430   1.696   0.774   1.894  0.0382 -0.2815  0.2098
14980TIP3    H166431   1.621   0.823   1.930  0.3120 -1.4935  2.5357
14980TIP3    H266432   1.656   0.707   1.839 -0.5477 -0.2433  0.5770
14981TIP3   OH266433   2.405   5.227   0.285  0.5356  0.4313  0.2840
14981TIP3    H166434   2.469   5.163   0.315 -0.2330  0.3149  1.7465
14981TIP3    H266435   2.331   5.174   0.253 -0.1447  0.5628  1.5955
14982TIP3   OH266436   1.194   5.389   5.791  0.0513  0.1318 -0.3141
14982TIP3    H166437   1.227   5.316   5.843  0.3818  0.2645 -0.3359
14982TIP3    H266438   1.144   5.443   5.853  0.0791  0.0597 -0.2299
14983TIP3   OH266439   5.359   6.792  10.894 -0.4190 -0.5351  0.1467
14983TIP3    H166440   5.362   6.856  10.966 -2.3056 -0.4897  0.2250
14983TIP3    H266441   5.268   6.763  10.893 -0.2759 -0.9552 -1.8797
14984TIP3   OH266442   1.808   4.695   0.728 -0.3440 -0.2089 -0.0181
14984TIP3    H166443   1.863   4.640   0.671  0.5227 -1.0033  1.5401
14984TIP3    H266444   1.862   4.773   0.745 -1.4200  0.9691 -1.9169
14985TIP3   OH266445   1.283   2.533   6.110 -0.1958 -0.1542  0.0445
14985TIP3    H166446   1.357   2.591   6.130  0.4117 -0.8641 -0.1142
14985TIP3    H266447   1.271   2.482   6.190 -0.4244 -0.1414  0.0173
14986TIP3   OH266448   0.980   2.467   0.310 -0.5566  0.0292  0.2716
14986TIP3    H166449   0.983   2.486   0.404 -3.5625  1.2356  0.1699
14986TIP3    H266450   0.912   2.400   0.302 -1.5895  1.2343 -1.2198
14987TIP3   OH266451   3.171   4.902  14.034 -0.4274  0.5962 -0.9620
14987TIP3    H166452   3.231   4.959  14.082 -0.0015 -0.5306 -0.1411
14987TIP3    H266453   3.228   4.851  13.976 -0.2534 -2.3432  1.6843
14988TIP3   OH266454   6.021   3.026   2.203  0.2242 -0.1030 -0.2010
14988TIP3    H166455   6.112   3.010   2.226 -0.0778 -0.3359  0.8343
14988TIP3    H266456   5.998   2.952   2.146  0.1583 -1.0027  0.9704
14989TIP3   OH266457   4.269   0.728  12.094  0.3551  0.2694  0.1387
14989TIP3    H166458   4.302   0.817  12.085  0.5828 -0.0127 -2.0595
14989TIP3    H266459   4.345   0.677  12.124  1.0359  0.2746 -1.5234
14990TIP3   OH266460   6.220   3.854   5.103  0.0175  0.0514 -0.4646
14990TIP3    H166461   6.206   3.914   5.029  0.0270  0.4059 -0.1823
14990TIP3    H266462   6.133   3.839   5.139  0.1136  0.6339  0.0308
14991TIP3   OH266463   5.724   0.826   4.447  0.0870 -0.0008 -0.2312
14991TIP3    H166464   5.778   0.889   4.400  0.4208  0.5703  0.8860
14991TIP3    H266465   5.785   0.777   4.502 -0.5993  1.2431  1.7006
14992TIP3   OH266466   6.437   2.687  11.372 -0.5349  0.0524 -0.0348
14992TIP3    H166467   6.521   2.730  11.386 -0.7734  0.1059  1.3141
14992TIP3    H266468   6.376   2.735  11.428 -1.1232 -1.0278  0.2702
14993TIP3   OH266469   5.284   5.383   0.310  0.2973 -0.6141  0.5979
14993TIP3    H166470   5.227   5.364   0.385 -0.0506 -1.9840  0.0018
14993TIP3    H266471   5.365   5.336   0.329  1.0161  0.8241  1.1448
14994TIP3   OH266472   0.901   6.662  13.089 -0.7906  0.2819 -0.5838
14994TIP3    H166473   0.907   6.577  13.133 -0.6116 -0.9571 -2.9389
14994TIP3    H266474   0.817   6.699  13.119 -0.6865 -0.5168  0.7457
14995TIP3   OH266475   5.005   3.034   3.443  0.0163  0.4490 -0.3939
14995TIP3    H166476   4.952   3.073   3.512 -2.6111 -1.2349 -1.4164
14995TIP3    H266477   4.949   3.035   3.365  1.6558 -0.9336 -1.6301
14996TIP3   OH266478   3.492   5.663   3.154  0.6980  0.2141  0.2367
14996TIP3    H166479   3.465   5.747   3.116 -0.0783  0.6942  1.7922
14996TIP3    H266480   3.564   5.686   3.213 -0.5671  0.0474  1.8868
14997TIP3   OH266481   3.498   2.691  16.309  0.0577  0.1733  0.0038
14997TIP3    H166482   3.481   2.673  16.216 -1.6064 -2.2660  0.7345
14997TIP3    H266483   3.571   2.634  16.332  0.1351  0.3969  0.3163
14998TIP3   OH266484   5.223   6.131   3.913 -0.1355  0.7869 -0.0584
14998TIP3    H166485   5.249   6.160   3.826  3.4743 -0.6285  0.4486
14998TIP3    H266486   5.221   6.036   3.907 -1.9881  0.7589  0.8572
14999TIP3   OH266487   1.904   1.086   3.759  0.3612  0.0025  0.3049
14999TIP3    H166488   1.896   1.002   3.804 -0.6821 -0.6407 -1.0547
14999TIP3    H266489   1.933   1.064   3.671  1.0068  1.1466  0.2169
15000TIP3   OH266490   0.094   6.696  16.765 -0.1440  0.2764  0.1690
15000TIP3    H166491   0.041   6.767  16.727  0.9680  0.0235 -1.9788
15000TIP3    H266492   0.039   6.619  16.758  0.0401  0.2384 -0.9463
15001TIP3   OH266493   4.025   2.679  14.412  0.2318  0.1220  0.1713
15001TIP3    H166494   4.051   2.606  14.355  0.5000  0.5995 -0.3190
15001TIP3    H266495   4.084   2.750  14.389  0.3818  0.3022  1.0960
15002TIP3   OH266496   2.319   3.506  12.052  0.1838 -0.0991 -0.1243
15002TIP3    H166497   2.248   3.564  12.024  0.1412  0.5078  1.1988
15002TIP3    H266498   2.316   3.509  12.148 -0.9390 -3.6784  0.0093
15003TIP3   OH266499   1.361   5.135  16.969  0.1426  0.2011 -0.3213
15003TIP3    H166500   1.377   5.188  17.047  1.1526 -0.9178  0.2211
15003TIP3    H266501   1.312   5.059  17.000  1.2162 -0.6360 -0.6437
15004TIP3   OH266502   5.475   3.155  16.078  0.9138  0.3724  0.5340
15004TIP3    H166503   5.460   3.078  16.133  0.2902 -0.0267 -0.1751
15004TIP3    H266504   5.547   3.129  16.020 -1.7658 -1.1471 -2.3113
15005TIP3   OH266505   0.078   5.169   3.549  0.3324 -0.0994  0.2843
15005TIP3    H166506   0.033   5.100   3.500 -0.4801  1.8573 -1.8433
15005TIP3    H266507   0.015   5.242   3.551  1.9050  1.2818  0.7403
15006TIP3   OH266508   5.009   2.066   5.963 -0.7223  0.4007  0.1731
15006TIP3    H166509   5.088   2.071   6.016  0.4277  0.0107 -1.4710
15006TIP3    H266510   5.019   1.986   5.912 -1.7130  0.8551 -0.7628
15007TIP3   OH266511   2.588   3.045   2.218  0.3018 -0.0565 -0.0973
15007TIP3    H166512   2.566   3.008   2.304  2.2779 -0.6017  0.1940
15007TIP3    H266513   2.507   3.086   2.188 -0.0841  1.2665  2.6118
15008TIP3   OH266514   6.673   4.389   6.590 -0.1026  0.2372 -0.0097
15008TIP3    H166515   6.672   4.386   6.685  0.9364 -1.4074 -0.0311
15008TIP3    H266516   6.623   4.313   6.563  1.5457 -0.6042 -0.7653
15009TIP3   OH266517   0.929   2.230  15.564 -0.0342 -0.4708  0.2497
15009TIP3    H166518   1.006   2.221  15.508  1.2828  1.7677  1.6302
15009TIP3    H266519   0.884   2.308  15.531  0.3702  0.4457  1.8220
15010TIP3   OH266520   0.905   6.781   0.143  0.9308 -0.2909 -0.7233
15010TIP3    H166521   0.941   6.713   0.085  2.5297 -0.4789  0.4659
15010TIP3    H266522   0.928   6.752   0.231 -1.4055  0.0442  0.0246
15011TIP3   OH266523   2.543   2.224  10.985 -1.0690  0.4342  0.7290
15011TIP3    H166524   2.615   2.280  11.013 -0.5078  0.4962 -0.8154
15011TIP3    H266525   2.527   2.166  11.060  0.7297  0.2746  1.0050
15012TIP3   OH266526   0.480   1.209   3.776 -0.2254 -0.1992 -0.0949
15012TIP3    H166527   0.503   1.229   3.685  1.0232 -2.0914 -0.2371
15012TIP3    H266528   0.474   1.294   3.819 -0.3344  0.7005 -1.8256
15013TIP3   OH266529   3.964   2.277  15.678 -0.3340 -0.4264 -0.5932
15013TIP3    H166530   3.918   2.341  15.623 -1.5935 -2.9385 -2.5834
15013TIP3    H266531   3.903   2.260  15.749  0.5943  1.5699  0.7400
15014TIP3   OH266532   4.933   0.510  11.009  0.0089 -0.5610 -0.2435
15014TIP3    H166533   4.959   0.427  11.050  0.6816  0.0001  0.5037
15014TIP3    H266534   5.000   0.525  10.942  2.0291  1.1646  2.0574
15015TIP3   OH266535   5.348   2.739   4.197 -0.0119  1.0028 -0.1858
15015TIP3    H166536   5.315   2.780   4.277 -0.3396 -0.1432  0.2672
15015TIP3    H266537   5.398   2.663   4.227  0.1607  0.7686 -1.0505
15016TIP3   OH266538   1.058   0.473   7.091  0.3100  0.3926 -0.0931
15016TIP3    H166539   1.024   0.397   7.044 -1.3176  0.8055  0.3756
15016TIP3    H266540   1.029   0.548   7.039  0.7668  0.7340  0.1486
15017TIP3   OH266541   1.989   4.368  16.204  0.1941  0.4807  0.0168
15017TIP3    H166542   2.042   4.395  16.129  0.6452 -1.6670 -0.4701
15017TIP3    H266543   2.049   4.370  16.278  0.3210  0.4272 -0.0852
15018TIP3   OH266544   3.960   5.493  10.736 -0.2814  0.1944 -0.4132
15018TIP3    H166545   3.993   5.514  10.823  0.5357  0.3482 -0.7462
15018TIP3    H266546   4.032   5.445  10.694 -0.9963 -0.6418 -0.6985
15019TIP3   OH266547   4.815   4.677  12.710 -0.5033 -0.2257 -0.3291
15019TIP3    H166548   4.856   4.625  12.778  0.5988 -0.0026 -0.8073
15019TIP3    H266549   4.721   4.670  12.727 -0.2473 -0.2871  1.1168
15020TIP3   OH266550   2.750   2.371  11.063 -0.7536  0.1864 -0.5355
15020TIP3    H166551   2.748   2.443  11.126 -0.4309 -0.6432  0.4438
15020TIP3    H266552   2.836   2.378  11.021 -1.6958  1.8842 -2.2725
15021TIP3   OH266553   3.810   4.407  15.030 -0.3535  0.3442 -0.1518
15021TIP3    H166554   3.809   4.333  15.090  2.3614 -0.2598 -0.7847
15021TIP3    H266555   3.721   4.411  14.995 -1.1282 -1.2229  1.5263
15022TIP3   OH266556   6.276   0.579  15.907  0.0096  0.4524 -0.1463
15022TIP3    H166557   6.252   0.553  15.996 -0.1996 -0.4537 -0.4620
15022TIP3    H266558   6.297   0.497  15.863 -1.2332  0.7548 -1.3342
15023TIP3   OH266559   2.811   2.687  12.535  0.5468 -0.3563  0.0016
15023TIP3    H166560   2.763   2.768  12.551  0.8278 -0.3540  0.8392
15023TIP3    H266561   2.829   2.652  12.622  1.5792 -0.6365 -0.3200
15024TIP3   OH266562   4.784   3.198   1.825 -0.5839  0.3261 -0.3032
15024TIP3    H166563   4.796   3.149   1.744 -1.0586  1.6716 -1.2199
15024TIP3    H266564   4.699   3.169   1.858 -0.9076  0.5850 -0.8902
15025TIP3   OH266565   6.566   6.070   0.421 -0.1984  0.3343 -0.1634
15025TIP3    H166566   6.482   6.044   0.383 -0.5156  0.9507  0.1157
15025TIP3    H266567   6.622   5.994   0.408 -0.6127  0.1500 -0.9258
15026TIP3   OH266568   6.776   1.395  12.544 -0.3594 -0.6084  0.1634
15026TIP3    H166569   6.713   1.429  12.481 -0.1098 -0.5815 -0.0768
15026TIP3    H266570   6.762   1.301  12.544 -1.7239 -0.4252  1.5621
15027TIP3   OH266571   4.197   4.820   1.370  0.5458 -0.2644 -0.1096
15027TIP3    H166572   4.149   4.897   1.340  0.7800 -0.0391  0.0915
15027TIP3    H266573   4.165   4.748   1.315 -0.4527 -0.2390  0.4333
15028TIP3   OH266574   1.849   1.520  16.753 -0.4218  0.1055  0.5736
15028TIP3    H166575   1.873   1.430  16.773 -1.7492 -0.3167  0.2478
15028TIP3    H266576   1.761   1.531  16.787 -0.9995  0.7141 -1.0605
15029TIP3   OH266577   3.289   1.114  14.451  0.0765  0.1090  0.2182
15029TIP3    H166578   3.324   1.032  14.417 -1.3167 -0.6842  0.6675
15029TIP3    H266579   3.276   1.098  14.545  0.2308  0.9867  0.3932
15030TIP3   OH266580   1.680   2.061  11.333 -0.3024  0.4983  0.1188
15030TIP3    H166581   1.710   2.041  11.244 -1.0470  0.6894 -0.1847
15030TIP3    H266582   1.638   1.981  11.363  0.1407  0.3625  0.3887
15031TIP3   OH266583   3.099   1.695  13.007 -0.3132 -0.5619 -0.0640
15031TIP3    H166584   3.011   1.707  13.043  0.0597  0.0472  0.6552
15031TIP3    H266585   3.085   1.645  12.926 -1.1116 -2.3611  1.1527
15032TIP3   OH266586   6.179   6.173   4.714 -0.1549 -0.3167  0.3972
15032TIP3    H166587   6.255   6.200   4.662 -1.7603 -2.5108 -3.3124
15032TIP3    H266588   6.110   6.234   4.689 -0.3606 -0.0156  1.6817
15033TIP3   OH266589   6.249   6.669  16.902 -0.3237 -0.7406 -0.3128
15033TIP3    H166590   6.335   6.657  16.943  0.0003  1.1469 -0.4011
15033TIP3    H266591   6.252   6.613  16.824  0.9617 -0.4104 -0.5092
15034TIP3   OH266592   5.808   5.604  14.750 -0.6648 -0.0931  0.1311
15034TIP3    H166593   5.830   5.539  14.816  0.8056 -0.7558 -0.9857
15034TIP3    H266594   5.840   5.567  14.668 -0.9162  1.4870 -0.7090
15035TIP3   OH266595   6.281   4.455  13.392 -0.2928  0.7201 -0.1784
15035TIP3    H166596   6.240   4.369  13.379  0.7000  0.2057 -0.0136
15035TIP3    H266597   6.372   4.434  13.416  0.4759  1.8644 -2.0154
15036TIP3   OH266598   1.752   5.273   4.643 -0.3420 -0.3561  0.7370
15036TIP3    H166599   1.818   5.205   4.659  2.6737  1.9653 -1.1963
15036TIP3    H266600   1.778   5.344   4.702  0.9821  1.8748 -2.4254
15037TIP3   OH266601   0.838   0.356   2.232  0.3417  0.1332  0.3726
15037TIP3    H166602   0.918   0.373   2.281 -0.3884  1.5582  1.1016
15037TIP3    H266603   0.867   0.339   2.142  1.5211 -0.3291  0.8395
15038TIP3   OH266604   0.396   4.864   1.000  0.6942 -0.2245  0.1284
15038TIP3    H166605   0.409   4.896   0.911  3.0826 -0.2430  0.4535
15038TIP3    H266606   0.427   4.773   0.998 -0.0953 -0.5186  0.7625
15039TIP3   OH266607   0.756   0.041   3.455  0.0575  0.3356  0.1988
15039TIP3    H166608   0.791   0.130   3.458  0.3893  0.1739  1.5278
15039TIP3    H266609   0.824  -0.010   3.411  0.6435  0.4015  1.0173
15040TIP3   OH266610   5.992   1.426   4.297 -0.1347  0.1582  0.1141
15040TIP3    H166611   6.070   1.384   4.260  0.2915  0.2509  0.8987
15040TIP3    H266612   6.021   1.516   4.317 -0.4618  0.2090  0.3514
15041TIP3   OH266613   3.632   6.275   2.433 -0.0003  0.2846  0.2345
15041TIP3    H166614   3.583   6.252   2.512  1.3600 -0.9037  0.7497
15041TIP3    H266615   3.709   6.321   2.465  0.3741  0.1236 -0.4341
15042TIP3   OH266616   0.149   5.336  14.026 -0.9222 -0.3279 -0.6819
15042TIP3    H166617   0.100   5.289  14.094 -1.2348 -2.0189 -2.0422
15042TIP3    H266618   0.105   5.421  14.020 -2.3671 -1.0313 -0.3752
15043TIP3   OH266619   6.564   5.035  11.401 -0.0589  0.1954  0.2564
15043TIP3    H166620   6.578   5.071  11.314  0.2863 -1.5517 -0.4233
15043TIP3    H266621   6.483   5.076  11.431 -0.1504  0.8402 -0.8429
15044TIP3   OH266622   4.086   0.573  14.406 -0.0331 -0.2957  0.5218
15044TIP3    H166623   4.123   0.591  14.320 -1.3370  0.0733  0.0244
15044TIP3    H266624   4.091   0.478  14.416  0.7812 -0.2719  0.3511
15045TIP3   OH266625   6.413   3.121  13.964  0.3065 -0.7524  0.2494
15045TIP3    H166626   6.462   3.196  13.999  1.1365 -0.7802 -0.8105
15045TIP3    H266627   6.433   3.049  14.023 -0.6462 -0.0838  1.3848
15046TIP3   OH266628   0.597   5.177  13.486 -0.0170  0.2089 -0.6196
15046TIP3    H166629   0.687   5.200  13.507  0.2806 -1.4634 -0.0348
15046TIP3    H266630   0.601   5.139  13.399 -0.2956  0.9393 -0.9592
15047TIP3   OH266631   0.759   5.336  11.352  0.1150  0.2115  0.2114
15047TIP3    H166632   0.827   5.402  11.368  2.0316 -1.1208 -1.9623
15047TIP3    H266633   0.774   5.309  11.261 -2.3106 -1.3206  0.2283
15048TIP3   OH266634   2.229   5.662   6.426 -0.3360  0.2377 -0.2826
15048TIP3    H166635   2.311   5.640   6.470  1.0212 -0.5977 -3.1232
15048TIP3    H266636   2.162   5.616   6.476  0.9783  0.3759  1.6635
15049TIP3   OH266637   0.127   0.702  12.754 -0.3673 -0.2213  0.6136
15049TIP3    H166638   0.053   0.671  12.806 -0.3112 -0.0115  0.8211
15049TIP3    H266639   0.139   0.635  12.687 -1.1560  0.0507  0.1853
15050TIP3   OH266640   3.773   3.967   0.626 -0.3012  0.4130 -0.6608
15050TIP3    H166641   3.857   3.940   0.665 -1.1517 -0.4575  0.6027
15050TIP3    H266642   3.719   3.991   0.700 -0.9924  1.5203 -1.5224
15051TIP3   OH266643   0.847   6.561  13.776 -0.5146  0.2939  0.3165
15051TIP3    H166644   0.820   6.650  13.798  1.8997  1.0119  0.5065
15051TIP3    H266645   0.858   6.518  13.861  1.8700  0.9353  0.3655
15052TIP3   OH266646   2.742   3.980   5.427 -0.0716  0.1828 -0.1238
15052TIP3    H166647   2.835   3.987   5.451 -0.1370 -1.3943  0.6473
15052TIP3    H266648   2.696   4.025   5.498  0.0802  0.5835 -0.2794
15053TIP3   OH266649   0.991   5.670   0.316  0.3608 -0.3985  0.0864
15053TIP3    H166650   1.080   5.660   0.352  0.1438 -0.3801  0.6284
15053TIP3    H266651   0.984   5.601   0.250  0.5943 -0.7353  0.4110
15054TIP3   OH266652   4.355   6.603   6.162 -0.0992 -0.1304 -0.3281
15054TIP3    H166653   4.444   6.638   6.168 -0.2319  0.3492 -1.1753
15054TIP3    H266654   4.366   6.515   6.126 -0.1376  0.7468 -2.5670
15055TIP3   OH266655   6.211   0.953   0.624  0.6576 -0.4945 -0.1670
15055TIP3    H166656   6.154   0.876   0.631  1.0958 -0.6361  2.1349
15055TIP3    H266657   6.206   0.994   0.710  2.4331  0.6523 -0.5892
15056TIP3   OH266658   3.371   3.024  12.746  0.3690 -0.7077  0.1908
15056TIP3    H166659   3.420   3.094  12.789  0.2346 -1.5664  1.7901
15056TIP3    H266660   3.437   2.975  12.697  0.4173  0.7061 -1.2085
15057TIP3   OH266661   4.922   5.906   5.885 -0.1712 -0.8187  0.5831
15057TIP3    H166662   4.977   5.952   5.949 -0.2935 -0.4074  0.3945
15057TIP3    H266663   4.857   5.971   5.859  0.5255 -0.6458 -0.7637
15058TIP3   OH266664   4.717   3.937  14.346  0.3398  0.6368  0.0727
15058TIP3    H166665   4.752   3.930  14.257  1.1232  0.8051  0.3641
15058TIP3    H266666   4.743   3.855  14.388 -1.4653 -0.1822 -0.3380
15059TIP3   OH266667   1.837   5.259  11.389 -0.6167 -0.7380  0.3837
15059TIP3    H166668   1.763   5.317  11.372 -0.7270 -1.0323 -0.1655
15059TIP3    H266669   1.814   5.214  11.470 -1.9008 -2.1835 -0.7419
15060TIP3   OH266670   2.226   0.328   0.817  0.2250 -0.2086  0.4374
15060TIP3    H166671   2.242   0.397   0.881  0.7294  0.7954 -0.7535
15060TIP3    H266672   2.309   0.281   0.810  0.0670 -0.5378  0.7820
15061TIP3   OH266673   3.658   3.976  16.553 -0.1425  0.2619  0.6929
15061TIP3    H166674   3.641   3.929  16.472  0.0343  1.1518  0.1347
15061TIP3    H266675   3.590   3.946  16.613  1.5708 -2.7846  1.2341
15062TIP3   OH266676   5.776   6.769   6.174 -0.0409 -0.2557 -0.0366
15062TIP3    H166677   5.702   6.710   6.193 -1.2845  1.4108  0.3747
15062TIP3    H266678   5.821   6.778   6.258 -0.3431  0.0349  0.0975
15063TIP3   OH266679   6.350   1.897   3.355  0.0990  0.1373 -0.3374
15063TIP3    H166680   6.418   1.843   3.315  0.2047  0.2815 -0.3520
15063TIP3    H266681   6.274   1.886   3.297  0.5677  1.1608 -1.1480
15064TIP3   OH266682   1.467   2.684  14.770 -0.0392 -0.4870  0.7015
15064TIP3    H166683   1.549   2.679  14.721 -1.2250 -0.3897 -1.3423
15064TIP3    H266684   1.405   2.631  14.721 -1.7235  0.9767  1.1566
15065TIP3   OH266685   5.775   5.530  14.182  0.1000  0.8297 -0.5100
15065TIP3    H166686   5.810   5.474  14.112  3.2636 -1.4514  2.6940
15065TIP3    H266687   5.850   5.585  14.207 -0.2687  0.0155  2.5374
15066TIP3   OH266688   6.355   3.473  12.970  0.6938 -0.0665 -0.5642
15066TIP3    H166689   6.382   3.558  12.935  0.1436 -0.3160 -1.6185
15066TIP3    H266690   6.370   3.412  12.898  0.7660 -0.8050  0.0760
15067TIP3   OH266691   1.491   4.545  12.547  0.1304  0.4555  0.2219
15067TIP3    H166692   1.431   4.471  12.556  1.5045 -0.8720 -1.4353
15067TIP3    H266693   1.573   4.514  12.584  0.5683  1.3308 -0.0083
15068TIP3   OH266694   1.727   2.023  11.986  0.0081 -0.1263  0.8020
15068TIP3    H166695   1.782   2.069  11.922  0.7902 -1.7464  0.2986
15068TIP3    H266696   1.754   2.059  12.071  2.1609 -1.2234  0.5997
15069TIP3   OH266697   4.659   3.889   3.376 -0.2763 -1.0308  0.3660
15069TIP3    H166698   4.751   3.905   3.399 -0.0248 -0.1204 -1.2171
15069TIP3    H266699   4.653   3.794   3.365  0.6471 -1.0246 -0.2089
15070TIP3   OH266700   1.865   3.333   3.711  0.6385  0.3803 -0.1873
15070TIP3    H166701   1.917   3.392   3.765  1.3831  1.4678 -2.0499
15070TIP3    H266702   1.780   3.376   3.704  0.7118  0.4993 -0.3366
15071TIP3   OH266703   3.020   5.477  16.859  1.0605  0.5218 -0.3977
15071TIP3    H166704   3.055   5.389  16.846  1.1283  0.5865 -0.6452
15071TIP3    H266705   2.976   5.472  16.945  1.4089  0.3596 -0.2253
15072TIP3   OH266706   4.242   2.777   2.475 -0.0178  0.2189  0.3202
15072TIP3    H166707   4.193   2.696   2.491 -0.2387  0.2566 -0.1413
15072TIP3    H266708   4.332   2.748   2.460 -0.1016  0.0555  0.1255
15073TIP3   OH266709   6.236   3.676   4.071 -0.1256  0.3028 -0.2480
15073TIP3    H166710   6.195   3.659   3.987 -0.0026  0.3408 -0.3163
15073TIP3    H266711   6.184   3.746   4.110 -0.0999  0.3773 -0.3507
15074TIP3   OH266712   6.085   6.018   2.827 -0.0767  0.0550  0.2912
15074TIP3    H166713   6.040   6.026   2.911 -0.1864  0.4800  0.1935
15074TIP3    H266714   6.163   6.073   2.837  0.6404 -1.0116  0.6083
15075TIP3   OH266715   5.053   0.491  12.376 -0.0950 -0.1764 -0.1674
15075TIP3    H166716   5.144   0.522  12.382  0.7069 -2.4327 -0.0795
15075TIP3    H266717   5.049   0.446  12.291 -0.8652 -0.9074  0.2563
15076TIP3   OH266718   2.031   1.060  12.995  0.3062  0.5241  0.1002
15076TIP3    H166719   2.045   1.020  13.081  1.6446 -0.2831 -0.4661
15076TIP3    H266720   2.054   1.152  13.008 -0.0789  0.5301  0.7538
15077TIP3   OH266721   1.427   4.277   2.281  0.5605  0.3364 -0.0695
15077TIP3    H166722   1.507   4.225   2.272  0.4703 -0.1334  1.5788
15077TIP3    H266723   1.441   4.353   2.226  2.7042  0.9010  1.2182
15078TIP3   OH266724   4.697   4.583  16.592 -0.2630 -0.2673 -0.6225
15078TIP3    H166725   4.758   4.589  16.518  0.4614  0.0285 -0.0099
15078TIP3    H266726   4.643   4.506  16.573  3.0748 -3.1365  0.8790
15079TIP3   OH266727   0.012   3.150   2.500  0.0228  0.1683 -0.2040
15079TIP3    H166728   0.002   3.226   2.441  2.2116  0.0718 -0.7178
15079TIP3    H266729   0.106   3.135   2.504 -0.2085 -0.7155  2.2456
15080TIP3   OH266730   3.257   1.391   4.608  0.0656  0.2518  0.0149
15080TIP3    H166731   3.254   1.308   4.656  1.0955  1.3765  2.0474
15080TIP3    H266732   3.258   1.459   4.675 -0.4184  1.9267 -1.6243
15081TIP3   OH266733   2.645   4.967  12.011 -0.1020 -0.1207 -0.2298
15081TIP3    H166734   2.575   4.965  12.077  0.2866  1.9123  0.2905
15081TIP3    H266735   2.604   4.932  11.932 -0.3904 -3.2633  1.2205
15082TIP3   OH266736   1.320   6.417   3.423  0.3400  0.1115 -0.0936
15082TIP3    H166737   1.228   6.400   3.402  0.6390 -0.5211 -0.9557
15082TIP3    H266738   1.344   6.489   3.366  1.0228 -1.2958 -1.6472
15083TIP3   OH266739   1.903   5.620  17.116 -0.2625  0.5949  0.2087
15083TIP3    H166740   1.944   5.537  17.141 -0.4387  0.3659 -0.2698
15083TIP3    H266741   1.957   5.686  17.160  0.6481  0.2961 -0.4299
15084TIP3   OH266742   0.224   6.317   0.115 -0.2010 -0.1138 -0.1878
15084TIP3    H166743   0.265   6.235   0.143  1.4466  0.8631  0.3033
15084TIP3    H266744   0.241   6.378   0.187 -2.4079  0.3724 -0.0231
15085TIP3   OH266745   2.891   4.214  11.713  0.1607  0.5377 -0.0409
15085TIP3    H166746   2.923   4.124  11.704  0.8509  0.7184  0.5284
15085TIP3    H266747   2.806   4.214  11.669 -0.0300 -0.4948  0.3071
15086TIP3   OH266748   5.787   6.500  16.138 -0.8201  0.3199  0.7082
15086TIP3    H166749   5.761   6.561  16.206 -0.2185 -0.6598  1.8328
15086TIP3    H266750   5.846   6.551  16.082 -0.9755  1.0077  1.1612
15087TIP3   OH266751   0.037   5.990  12.782 -0.2707  0.0274 -0.0383
15087TIP3    H166752  -0.029   6.014  12.717  0.2527  0.5776 -0.3669
15087TIP3    H266753   0.076   5.909  12.748 -2.0041 -1.3207  1.0513
15088TIP3   OH266754   2.050   2.563  15.015 -0.0351  0.6004 -0.2768
15088TIP3    H166755   1.990   2.597  14.948  0.1108 -0.5267 -0.9812
15088TIP3    H266756   1.993   2.541  15.089 -0.1743  2.0243  0.0593
15089TIP3   OH266757   1.470   6.500   5.593 -0.3366 -0.2647 -0.4638
15089TIP3    H166758   1.496   6.464   5.678 -1.0097 -1.8158 -0.8895
15089TIP3    H266759   1.417   6.577   5.615  0.8438  0.2887  0.4841
15090TIP3   OH266760   3.877   2.422   5.405  0.0881 -0.1294 -0.0385
15090TIP3    H166761   3.835   2.506   5.423 -2.1498 -1.0984 -0.5629
15090TIP3    H266762   3.882   2.418   5.309 -0.1829 -0.7452 -0.0318
15091TIP3   OH266763   6.203   6.456  10.901  0.6564  0.4940  0.5624
15091TIP3    H166764   6.280   6.400  10.894 -0.4580 -1.1599  1.0766
15091TIP3    H266765   6.235   6.544  10.883  2.6060 -0.2010  0.5258
15092TIP3   OH266766   1.549   5.058  12.258  0.1886 -0.4517  0.1080
15092TIP3    H166767   1.640   5.059  12.229 -0.6842  0.4098 -2.7131
15092TIP3    H266768   1.517   4.971  12.235 -0.1273 -0.2367 -0.2658
15093TIP3   OH266769   0.252   5.284   4.259  0.2407 -0.3454 -0.1774
15093TIP3    H166770   0.286   5.270   4.171  0.9598  0.0468  0.0395
15093TIP3    H266771   0.179   5.222   4.266  1.6998 -2.0819 -0.1804
15094TIP3   OH266772   1.958   2.732  16.249 -0.5179  0.0567 -0.3861
15094TIP3    H166773   2.042   2.777  16.258 -1.0406  1.1303 -0.7468
15094TIP3    H266774   1.942   2.695  16.336  0.3184 -0.1549 -0.3121
15095TIP3   OH266775   6.056   3.727  12.820 -0.0812  0.5580  0.2354
15095TIP3    H166776   6.035   3.761  12.733  0.5815  0.8027  0.1675
15095TIP3    H266777   6.136   3.676  12.808 -1.3782 -1.5338  0.2262
15096TIP3   OH266778   1.546   5.923  14.102  0.3072 -0.3839  0.4956
15096TIP3    H166779   1.496   5.875  14.169 -1.1059 -1.4753 -1.2837
15096TIP3    H266780   1.496   5.909  14.022  1.2835  1.9937 -0.5429
15097TIP3   OH266781   4.590   6.749   1.738  0.4129  0.6078  0.5612
15097TIP3    H166782   4.535   6.700   1.800 -0.5372  0.0865 -0.6576
15097TIP3    H266783   4.668   6.695   1.727 -0.8327 -0.9033 -1.1258
15098TIP3   OH266784   6.733   5.296  11.393 -0.4007 -0.6537 -0.3302
15098TIP3    H166785   6.696   5.383  11.379 -0.5333 -0.3978  1.4720
15098TIP3    H266786   6.684   5.239  11.333 -1.1350  0.3017 -0.6483
15099TIP3   OH266787   5.897   4.743  10.532  0.2936 -0.5283  0.1988
15099TIP3    H166788   5.959   4.686  10.486  1.1314  0.5076  0.0346
15099TIP3    H266789   5.892   4.707  10.621  1.5724 -0.2612  0.3800
15100TIP3   OH266790   2.513   2.759   5.219  0.0973  0.0790  0.3702
15100TIP3    H166791   2.548   2.693   5.159  0.2852  1.3069 -0.8826
15100TIP3    H266792   2.532   2.842   5.177 -1.8820  0.8790  1.0178
15101TIP3   OH266793   0.519   4.663  15.635 -0.4144 -0.0600 -0.7791
15101TIP3    H166794   0.545   4.572  15.646  0.6921  0.0780 -2.1404
15101TIP3    H266795   0.507   4.695  15.725  0.1112 -1.2809 -0.2592
15102TIP3   OH266796   1.521   6.129  16.009 -0.4300 -0.0011 -0.0745
15102TIP3    H166797   1.526   6.224  15.999  1.1829 -0.0840 -0.3280
15102TIP3    H266798   1.571   6.110  16.088 -4.6245 -0.2780  2.6484
15103TIP3   OH266799   4.022   2.226   2.404  0.3540 -0.8693 -0.3341
15103TIP3    H166800   4.027   2.197   2.313  0.1978  0.0544 -0.6367
15103TIP3    H266801   4.002   2.146   2.453 -0.5189 -1.2029 -1.2120
15104TIP3   OH266802   2.024   5.787  16.067 -0.3062  0.1012 -0.2785
15104TIP3    H166803   2.077   5.764  16.143 -0.5379  0.9062  0.1295
15104TIP3    H266804   2.078   5.763  15.992 -0.3549 -1.3462  0.1311
15105TIP3   OH266805   3.489   3.721  12.047  0.4335  0.0717 -0.0093
15105TIP3    H166806   3.474   3.627  12.054 -1.2148  0.3399  0.3789
15105TIP3    H266807   3.431   3.749  11.976  0.4034  0.8854  0.3288
15106TIP3   OH266808   2.318   2.771  15.494  0.3641 -0.2944 -0.1437
15106TIP3    H166809   2.329   2.774  15.589  0.7272 -2.5527 -0.0986
15106TIP3    H266810   2.236   2.819  15.478  0.9061  1.0891  1.1820
15107TIP3   OH266811   5.868   0.703   4.639  0.8184  0.3143  0.7216
15107TIP3    H166812   5.936   0.742   4.694  1.6341  0.4663 -0.3795
15107TIP3    H266813   5.810   0.659   4.700  1.1586  1.3279  1.7989
15108TIP3   OH266814   5.121   6.764   3.314 -0.3667 -1.2597 -0.1375
15108TIP3    H166815   5.186   6.702   3.281  1.7945  1.2772 -0.7567
15108TIP3    H266816   5.065   6.783   3.239  1.9936  1.2719 -1.3450
15109TIP3   OH266817   0.093   2.289   5.470  0.3432  0.3056  0.5083
15109TIP3    H166818   0.023   2.310   5.532  0.3441 -1.4073  1.1044
15109TIP3    H266819   0.163   2.350   5.492 -0.0522  0.4050  1.5127
15110TIP3   OH266820   5.177   1.807  15.331 -0.1608 -0.3465  0.0810
15110TIP3    H166821   5.174   1.728  15.277  0.1660  1.9832 -3.4926
15110TIP3    H266822   5.086   1.822  15.355 -0.6386 -0.2491 -1.6718
15111TIP3   OH266823   4.302   0.433  14.478  0.5192  0.7146  0.0661
15111TIP3    H166824   4.272   0.436  14.569 -1.5434  3.1345 -0.6338
15111TIP3    H266825   4.391   0.470  14.481 -0.4919  3.2467  0.8042
15112TIP3   OH266826   6.511   1.389   5.996  0.3924  0.1671  0.2834
15112TIP3    H166827   6.446   1.322   6.019  0.5022 -0.1400 -0.2917
15112TIP3    H266828   6.575   1.386   6.067  0.5255 -0.5040  0.1420
15113TIP3   OH266829   3.648   2.657  11.402 -0.2835 -0.4392 -0.4290
15113TIP3    H166830   3.582   2.717  11.436  0.7042  0.3842  0.0779
15113TIP3    H266831   3.624   2.644  11.310 -0.0756  1.3664 -0.7606
15114TIP3   OH266832   0.013   4.536   1.674  0.1101  0.0273  0.0735
15114TIP3    H166833  -0.029   4.615   1.710 -0.1058 -0.1737  0.2669
15114TIP3    H266834   0.103   4.540   1.708  0.8687  1.5109 -1.9729
15115TIP3   OH266835   5.312   2.571   5.374 -0.0095 -0.4063 -0.2874
15115TIP3    H166836   5.389   2.589   5.427  1.0424 -2.0800 -1.1906
15115TIP3    H266837   5.312   2.639   5.307  0.0469  0.2519  0.3736
15116TIP3   OH266838   6.545   0.265  14.442  0.0523 -0.0898 -0.6013
15116TIP3    H166839   6.597   0.341  14.467 -2.7409  2.4926 -2.2249
15116TIP3    H266840   6.604   0.212  14.388  2.6912 -0.2023  2.2953
15117TIP3   OH266841   2.657   1.487   0.548 -0.0719 -0.4750  0.1390
15117TIP3    H166842   2.578   1.438   0.525  0.4009 -2.1463  1.8652
15117TIP3    H266843   2.636   1.578   0.529 -2.7619 -0.7805  1.4601
15118TIP3   OH266844   4.435   4.767  15.755  0.1765  0.6689  0.2284
15118TIP3    H166845   4.406   4.797  15.841 -1.5355 -0.8326  0.1993
15118TIP3    H266846   4.396   4.680  15.745 -0.0915  1.0391 -2.2861
15119TIP3   OH266847   3.063   1.743  14.714  0.2642 -0.1286  0.0351
15119TIP3    H166848   3.030   1.663  14.755 -1.9307 -0.0911 -1.5823
15119TIP3    H266849   3.158   1.734  14.718  0.0626 -2.1497  1.1506
15120TIP3   OH266850   2.610   5.713  13.390  0.0893 -0.0218  0.2258
15120TIP3    H166851   2.634   5.683  13.477 -1.0296  3.0151  1.6518
15120TIP3    H266852   2.666   5.789  13.374 -0.9353  0.5102 -0.9584
15121TIP3   OH266853   1.927   1.537  17.167 -0.4804 -0.2595  0.2708
15121TIP3    H166854   1.883   1.602  17.112 -0.0483 -0.0084  0.2218
15121TIP3    H266855   1.866   1.521  17.239  0.6256  2.3177  1.8345
15122TIP3   OH266856   0.048   5.560   1.984  0.5912  0.3152  0.2419
15122TIP3    H166857   0.132   5.566   2.030  0.5201 -1.2543  0.6212
15122TIP3    H266858  -0.015   5.600   2.044  0.5534 -1.4271  1.4095
15123TIP3   OH266859   5.682   2.911   1.463 -0.0327 -0.0012  0.2008
15123TIP3    H166860   5.673   2.885   1.372  0.5344 -1.1159  0.4456
15123TIP3    H266861   5.719   2.833   1.507 -0.9224  0.2892  1.4995
15124TIP3   OH266862   5.767   2.047  16.956 -0.2413  0.3523  0.1736
15124TIP3    H166863   5.769   2.122  16.897 -1.5419  0.5698  0.4109
15124TIP3    H266864   5.797   1.974  16.902 -1.3911  0.5577 -0.7424
15125TIP3   OH266865   1.449   0.930   5.838 -0.0662  0.2886 -0.0880
15125TIP3    H166866   1.462   0.836   5.837 -1.1574  0.1324 -0.9428
15125TIP3    H266867   1.460   0.955   5.930 -0.3628 -0.7557  0.2397
15126TIP3   OH266868   2.265   4.024   2.479  0.0488 -0.2884  0.0348
15126TIP3    H166869   2.288   3.938   2.444  1.6563  0.0191  0.2687
15126TIP3    H266870   2.203   4.060   2.416  0.6320 -0.9394 -0.9291
15127TIP3   OH266871   4.822   3.654  12.447 -0.3745 -0.0622 -0.0077
15127TIP3    H166872   4.909   3.644  12.407 -0.0110 -1.6548  1.0879
15127TIP3    H266873   4.760   3.642  12.375  0.2977 -1.0377 -0.4419
15128TIP3   OH266874   1.256   6.058  16.045 -0.5182 -0.0114 -0.1225
15128TIP3    H166875   1.350   6.074  16.035 -0.5606 -1.4996 -3.8628
15128TIP3    H266876   1.251   5.975  16.093  0.0535  0.3217  0.5283
15129TIP3   OH266877   2.739   6.515   4.738  0.2675  0.3067 -0.1571
15129TIP3    H166878   2.748   6.424   4.710 -1.2851  0.3069 -0.6943
15129TIP3    H266879   2.780   6.566   4.668  2.1120 -0.0252  0.6659
15130TIP3   OH266880   3.823   5.990  14.093 -0.4725 -0.0875  0.6380
15130TIP3    H166881   3.807   5.919  14.031  2.2519 -0.3556  0.1500
15130TIP3    H266882   3.764   6.060  14.065 -1.0510 -1.0980 -0.7425
15131TIP3   OH266883   1.274   5.249   3.955 -0.1107 -0.3455  0.0940
15131TIP3    H166884   1.191   5.256   3.907  1.1327  0.6074 -1.9694
15131TIP3    H266885   1.251   5.272   4.046 -2.2861 -1.1204 -0.2311
15132TIP3   OH266886   0.539   0.894  13.685  0.2126 -0.4629 -0.1042
15132TIP3    H166887   0.573   0.805  13.693 -0.0590 -0.6550 -1.0568
15132TIP3    H266888   0.611   0.945  13.649  0.0049 -0.5378 -0.6297
15133TIP3   OH266889   6.135   2.578   3.392 -0.0575  0.2327 -0.0572
15133TIP3    H166890   6.060   2.520   3.404  1.3188 -1.2622  1.4372
15133TIP3    H266891   6.149   2.618   3.478  2.7353 -1.8624  0.5545
15134TIP3   OH266892   5.817   2.750   2.827 -0.1667 -0.0813 -0.5061
15134TIP3    H166893   5.827   2.668   2.875 -1.3014 -0.7996 -1.4735
15134TIP3    H266894   5.723   2.761   2.818 -0.0036  0.9819 -0.9848
15135TIP3   OH266895   0.681   4.683  16.078  0.1999  0.1605  0.3750
15135TIP3    H166896   0.743   4.663  16.147  1.1083 -1.0017 -0.7517
15135TIP3    H266897   0.629   4.756  16.112  0.7273 -0.2935  2.2037
15136TIP3   OH266898   4.175   5.875  13.040 -0.3517  0.5343 -0.3663
15136TIP3    H166899   4.165   5.786  13.075  0.7926  1.2826  1.9554
15136TIP3    H266900   4.244   5.867  12.975  1.1080  0.0586  1.2087
15137TIP3   OH266901   3.486   2.669   5.929  0.1919  0.0902 -0.4339
15137TIP3    H166902   3.569   2.639   5.966 -1.3910  1.0267  4.2462
15137TIP3    H266903   3.477   2.759   5.960 -3.1290 -0.4248  0.3112
15138TIP3   OH266904   2.710   0.261  12.758 -0.1998 -0.2238 -0.0413
15138TIP3    H166905   2.621   0.283  12.729 -1.0234 -2.0970  0.9120
15138TIP3    H266906   2.712   0.165  12.756  1.3655 -0.2404  1.1988
15139TIP3   OH266907   4.604   5.936  13.760 -0.1567 -0.1943 -0.2820
15139TIP3    H166908   4.660   5.908  13.689 -0.1009  1.1717 -0.8013
15139TIP3    H266909   4.515   5.920  13.729 -0.1083 -0.2842 -0.3712
15140TIP3   OH266910   3.228   1.456   2.920 -0.0497  0.2011  0.2535
15140TIP3    H166911   3.167   1.388   2.951  0.3687 -0.1820  0.2439
15140TIP3    H266912   3.283   1.475   2.996  2.1013 -1.9694 -0.6819
15141TIP3   OH266913   6.773   4.354  14.415 -0.1622 -0.0834 -0.6455
15141TIP3    H166914   6.853   4.347  14.467 -0.7322  1.3896  0.4446
15141TIP3    H266915   6.766   4.447  14.394 -1.9024 -0.1125 -0.2274
15142TIP3   OH266916   1.886   4.462  11.463  0.0392  0.2888 -0.2082
15142TIP3    H166917   1.901   4.519  11.538 -2.8322  0.7204  0.1142
15142TIP3    H266918   1.938   4.384  11.482  0.5255  0.9954  1.5038
15143TIP3   OH266919   6.510   5.783   5.168  0.0764  0.0995 -0.2744
15143TIP3    H166920   6.529   5.754   5.078  1.9898  0.9701 -0.1793
15143TIP3    H266921   6.457   5.861   5.158 -0.6087 -0.4057 -0.6239
15144TIP3   OH266922   4.528   4.648   1.224  0.1614  0.0625 -0.0396
15144TIP3    H166923   4.595   4.706   1.189  1.1560 -1.1671 -0.2099
15144TIP3    H266924   4.577   4.576   1.264 -1.0676 -1.9248 -1.9833
15145TIP3   OH266925   1.749   0.836  16.862 -0.4902 -0.2941  0.3610
15145TIP3    H166926   1.665   0.794  16.845 -0.4016 -0.2959 -0.0675
15145TIP3    H266927   1.730   0.897  16.934 -1.7270  2.3900 -2.1529
15146TIP3   OH266928   2.371   5.301   4.638 -0.2042  0.4974 -0.3481
15146TIP3    H166929   2.462   5.329   4.641  0.0823 -0.1587 -2.1529
15146TIP3    H266930   2.357   5.255   4.721  1.1183  0.5503 -0.0850
15147TIP3   OH266931   0.195   0.596  16.279  0.4141  0.6045 -0.9700
15147TIP3    H166932   0.188   0.502  16.300  0.7498  0.4932 -1.3581
15147TIP3    H266933   0.274   0.624  16.325  0.5976  0.5825 -1.2724
15148TIP3   OH266934   5.443   2.904  10.456  0.6310 -0.0284 -0.1827
15148TIP3    H166935   5.426   2.965  10.384  0.8735 -0.8926 -0.9781
15148TIP3    H266936   5.534   2.878  10.445  0.2462 -1.2841 -0.4201
15149TIP3   OH266937   1.765   3.381   5.513 -0.4625  0.6033 -0.2980
15149TIP3    H166938   1.706   3.307   5.516 -0.6227  0.6901 -1.1346
15149TIP3    H266939   1.720   3.446   5.459 -0.2065  1.1980  0.1994
15150TIP3   OH266940   1.596   1.861  11.480 -0.2798  0.6830 -0.8542
15150TIP3    H166941   1.563   1.773  11.463  0.7317  0.0480  0.3794
15150TIP3    H266942   1.595   1.869  11.575  0.1073  1.8158 -0.9413
15151TIP3   OH266943   4.152   1.384  10.983  0.1283  0.2786  0.1431
15151TIP3    H166944   4.213   1.311  10.974  0.7352  0.8473 -0.4181
15151TIP3    H266945   4.105   1.388  10.900  1.1410  1.4459 -0.3870
15152TIP3   OH266946   1.588   3.387  13.935 -0.1827 -0.3052 -0.1708
15152TIP3    H166947   1.494   3.391  13.921 -0.7266 -1.1140  3.0053
15152TIP3    H266948   1.609   3.294  13.930 -0.0462 -0.4074  1.9906
15153TIP3   OH266949   6.173   0.709  11.550 -0.0846 -0.0883 -0.1271
15153TIP3    H166950   6.193   0.700  11.456  0.5285  0.0854 -0.0123
15153TIP3    H266951   6.174   0.803  11.565  1.1243 -0.1646  0.3351
15154TIP3   OH266952   2.945   6.514   2.615  0.5161 -0.2049 -0.2663
15154TIP3    H166953   2.944   6.487   2.523  1.5310  0.2229 -0.4070
15154TIP3    H266954   2.856   6.544   2.632  1.0301  2.4025 -1.9148
15155TIP3   OH266955   5.704   5.900   4.201  0.1104 -0.0108  0.3707
15155TIP3    H166956   5.636   5.961   4.172  0.6733  2.3038  3.6095
15155TIP3    H266957   5.688   5.889   4.294  3.1565 -0.7073  0.8655
15156TIP3   OH266958   2.918   3.235  17.168  0.1866  0.1111 -0.2226
15156TIP3    H166959   2.891   3.186  17.090 -3.0301  1.9502 -0.3832
15156TIP3    H266960   2.988   3.292  17.137 -1.2041  0.9920 -1.8950
15157TIP3   OH266961   0.688   5.999   1.796  0.4548  0.2981  0.3479
15157TIP3    H166962   0.646   5.969   1.716 -1.5626 -1.1492  1.8803
15157TIP3    H266963   0.776   6.024   1.770  0.0454 -0.7896 -2.1820
15158TIP3   OH266964   5.800   1.624  11.243 -0.2607 -0.5206  0.1852
15158TIP3    H166965   5.852   1.610  11.164  0.3590  0.2542  0.4545
15158TIP3    H266966   5.718   1.577  11.226 -0.1770 -0.2689 -0.9640
15159TIP3   OH266967   2.753   5.602   1.763 -0.3609  0.6025  0.1667
15159TIP3    H166968   2.828   5.542   1.762 -0.8341 -0.0907  2.7436
15159TIP3    H266969   2.679   5.548   1.737 -0.5695  0.3661  1.2273
15160TIP3   OH266970   1.933   3.126  16.318 -0.5205  0.2946 -0.2927
15160TIP3    H166971   1.998   3.102  16.253  0.0363  1.3096 -0.1232
15160TIP3    H266972   1.922   3.221  16.307 -1.0941  0.3268  0.4805
15161TIP3   OH266973   1.628   5.575  15.465 -0.0293 -0.7147  0.5044
15161TIP3    H166974   1.571   5.641  15.425  0.2262 -0.2761  0.8685
15161TIP3    H266975   1.581   5.492  15.451 -0.1481 -0.5143 -0.3224
15162TIP3   OH266976   0.591   6.189  13.729 -0.0051  0.0122  0.1810
15162TIP3    H166977   0.634   6.160  13.649  0.0986  1.5302 -0.3312
15162TIP3    H266978   0.656   6.176  13.798 -0.3174 -1.8961  0.1370
15163TIP3   OH266979   4.806   5.700   0.171 -0.4418 -0.1379 -0.4770
15163TIP3    H166980   4.863   5.633   0.134  0.4420  0.8104 -0.8115
15163TIP3    H266981   4.831   5.704   0.264 -0.1998  0.0381 -0.5503
15164TIP3   OH266982   0.004   2.085  12.486 -0.2894  0.3586 -0.3274
15164TIP3    H166983   0.061   2.008  12.496  0.5065  0.7304 -1.9355
15164TIP3    H266984  -0.003   2.121  12.575  0.7045 -0.5946  0.1484
15165TIP3   OH266985   1.256   1.942  16.240 -0.2094  0.1036 -0.5917
15165TIP3    H166986   1.268   2.015  16.300  2.0809 -1.8227  1.3858
15165TIP3    H266987   1.344   1.911  16.221 -1.1392 -2.1584 -1.3713
15166TIP3   OH266988   1.259   3.807  14.712 -0.7066 -0.3890 -0.1101
15166TIP3    H166989   1.244   3.901  14.698  1.4222 -0.1228 -0.8485
15166TIP3    H266990   1.194   3.782  14.777 -0.3747  1.9347  1.1776
15167TIP3   OH266991   5.118   2.109  12.528  0.1093  0.0348  1.1151
15167TIP3    H166992   5.057   2.176  12.558 -0.4501 -0.6203  1.4770
15167TIP3    H266993   5.193   2.157  12.493 -1.2423  0.8900 -0.6919
15168TIP3   OH266994   0.188   0.299  13.830 -0.0200 -0.2212  0.0095
15168TIP3    H166995   0.244   0.314  13.754 -1.2267 -1.1046 -1.0475
15168TIP3    H266996   0.145   0.215  13.813 -0.3143 -0.4166  1.6500
15169TIP3   OH266997   0.079   1.030  14.374 -0.0721 -0.3911 -0.2109
15169TIP3    H166998   0.124   0.955  14.414 -0.1437 -1.7648 -2.6092
15169TIP3    H266999   0.143   1.101  14.377 -0.8188  0.2372  4.2734
15170TIP3   OH267000   1.818   6.805  14.053  0.1977 -0.3618 -0.0114
15170TIP3    H167001   1.741   6.809  13.996  0.8088  1.2503 -0.7281
15170TIP3    H267002   1.893   6.810  13.994  0.8759 -1.1889  0.7482
15171TIP3   OH267003   1.698   0.203   5.669 -0.2055  0.0022 -0.1236
15171TIP3    H167004   1.759   0.277   5.672 -1.0488  0.7353 -0.8728
15171TIP3    H267005   1.737   0.138   5.727  0.3956  1.1489  0.7799
15172TIP3   OH267006   1.636   5.723   6.063  0.2600 -0.0056  0.1025
15172TIP3    H167007   1.597   5.736   5.977 -1.2368  0.1467  0.7733
15172TIP3    H267008   1.729   5.711   6.047 -0.0955 -0.5617 -1.5820
15173TIP3   OH267009   3.633   0.584   2.297  0.3992 -0.0143  0.4850
15173TIP3    H167010   3.573   0.525   2.344 -0.0969  1.1393  1.3180
15173TIP3    H267011   3.701   0.604   2.361  0.2963  0.7133  0.3657
15174TIP3   OH267012   5.813   3.462  13.929  0.3568  0.0216 -0.0758
15174TIP3    H167013   5.743   3.526  13.942 -0.9572 -1.4133  0.0452
15174TIP3    H267014   5.822   3.456  13.834  0.3900  0.2982 -0.0898
15175TIP3   OH267015   4.376   3.694   0.238  0.0742  0.2427  1.0082
15175TIP3    H167016   4.334   3.616   0.200 -0.6084  1.5182 -0.9327
15175TIP3    H267017   4.457   3.704   0.188 -0.7983  1.8983 -0.1357
15176TIP3   OH267018   6.089   5.170   0.020 -0.2821  0.5075 -1.1848
15176TIP3    H167019   6.178   5.192  -0.007  0.3324 -0.7360 -0.2168
15176TIP3    H267020   6.061   5.103  -0.042  0.8069 -1.7140  0.6687
15177TIP3   OH267021   6.218   4.675   5.086 -0.0246  0.0727  0.1292
15177TIP3    H167022   6.191   4.756   5.129 -1.2385  0.2769 -0.9952
15177TIP3    H267023   6.305   4.656   5.122  0.3799  2.0047  0.1876
15178TIP3   OH267024   2.962   3.162  13.966 -0.4435 -0.0588  0.0853
15178TIP3    H167025   2.892   3.148  14.029 -1.1493 -1.2638 -0.9431
15178TIP3    H267026   2.940   3.105  13.892  1.7749 -0.7241 -0.1277
15179TIP3   OH267027   0.505   3.560   1.059 -0.2241  0.0166 -0.2663
15179TIP3    H167028   0.597   3.588   1.056 -0.4469  0.8029  0.0172
15179TIP3    H267029   0.506   3.470   1.027  0.7047 -0.1214  0.1369
15180TIP3   OH267030   4.200   4.182   5.564  0.0265  0.6832 -0.1044
15180TIP3    H167031   4.182   4.248   5.496 -1.8027  0.0424 -0.2697
15180TIP3    H267032   4.192   4.230   5.646  1.0770  1.1917 -0.2793
15181TIP3   OH267033   5.625   3.636  13.539 -0.3806  0.1619 -0.0370
15181TIP3    H167034   5.653   3.708  13.595 -0.9482  0.5814 -0.2844
15181TIP3    H267035   5.705   3.588  13.519 -0.3965 -0.9154  2.4067
15182TIP3   OH267036   4.873   4.067  12.745 -0.4531 -0.5534  0.1641
15182TIP3    H167037   4.824   4.147  12.724  0.8343 -0.0572 -1.0457
15182TIP3    H267038   4.887   4.025  12.660  2.1045 -0.1439  0.3507
15183TIP3   OH267039   3.842   2.604  15.598  0.0253  0.3781  0.4020
15183TIP3    H167040   3.800   2.645  15.673 -0.4033 -1.2757  1.0813
15183TIP3    H267041   3.935   2.625  15.608  0.0878 -0.5535  1.8728
15184TIP3   OH267042   2.289   2.174   4.443 -0.1397 -0.4518 -0.0028
15184TIP3    H167043   2.245   2.178   4.528 -0.9191  0.2178 -0.4399
15184TIP3    H267044   2.273   2.085   4.413 -0.2529 -0.5518  0.3448
15185TIP3   OH267045   0.930   3.872  11.691  0.5606  0.6513  0.6316
15185TIP3    H167046   0.865   3.821  11.642  0.8087  1.6634 -0.8039
15185TIP3    H267047   0.913   3.851  11.783 -1.4771  0.4936  0.2568
15186TIP3   OH267048   1.598   0.771  12.621 -0.3707 -0.0958 -0.6359
15186TIP3    H167049   1.551   0.780  12.703  0.4019  1.6728 -0.3718
15186TIP3    H267050   1.612   0.676  12.612 -0.6197 -0.3257  1.1661
15187TIP3   OH267051   0.630   4.831   5.732 -0.1497 -0.4902 -0.4194
15187TIP3    H167052   0.690   4.882   5.788 -0.0424  0.0962 -1.0619
15187TIP3    H267053   0.688   4.782   5.674 -0.2818 -0.4574 -0.5766
15188TIP3   OH267054   4.638   5.007   1.155 -0.2974 -0.0609  0.3500
15188TIP3    H167055   4.550   5.032   1.128 -1.0079 -1.0294  1.7753
15188TIP3    H267056   4.675   5.087   1.194  0.3339  1.0369 -2.3390
15189TIP3   OH267057   5.131   2.157  16.877 -0.0778 -0.0490 -0.3763
15189TIP3    H167058   5.102   2.075  16.918  0.8251 -0.6315 -0.8697
15189TIP3    H267059   5.226   2.157  16.889 -0.1726  1.3608  0.3775
15190TIP3   OH267060   3.588   5.631   2.736  0.0966 -0.3855  0.2927
15190TIP3    H167061   3.540   5.713   2.741 -1.2271 -1.0880 -0.6152
15190TIP3    H267062   3.678   5.654   2.760 -0.2221  1.3524 -0.1237
15191TIP3   OH267063   1.717   0.159   1.309 -0.1249  0.1156  0.4748
15191TIP3    H167064   1.703   0.097   1.380 -1.4131  0.0319  0.1669
15191TIP3    H267065   1.786   0.120   1.255  1.1854  0.3968  1.9141
15192TIP3   OH267066   0.217   1.366  16.317 -0.0145 -0.5406 -0.1786
15192TIP3    H167067   0.279   1.438  16.316  0.5963 -1.0739 -0.6358
15192TIP3    H267068   0.189   1.359  16.408 -0.1487  0.3294 -0.1528
15193TIP3   OH267069   5.763   5.312  15.140 -0.1843  0.1660  0.6231
15193TIP3    H167070   5.672   5.284  15.150  0.1334 -0.8605  0.6679
15193TIP3    H267071   5.771   5.387  15.199 -0.7203 -0.3746  1.3873
15194TIP3   OH267072   0.281   5.219   2.290  0.2156  0.4557 -0.0985
15194TIP3    H167073   0.374   5.243   2.289  0.2686  0.3892  1.5997
15194TIP3    H267074   0.237   5.296   2.326  0.0132 -0.7659  2.3238
15195TIP3   OH267075   1.518   4.473  13.199 -0.2547  0.4972 -0.2244
15195TIP3    H167076   1.515   4.508  13.288 -1.5970  0.1611 -0.1306
15195TIP3    H267077   1.610   4.482  13.173  0.0838  0.8901  1.0717
15196TIP3   OH267078   4.444   6.677   2.295  0.5957 -0.0929 -0.3772
15196TIP3    H167079   4.486   6.681   2.381 -0.8392 -0.4790  0.3638
15196TIP3    H267080   4.351   6.686   2.314  0.1570 -1.4256 -1.7867
15197TIP3   OH267081   2.970   0.433   1.122 -0.7491 -0.3162  0.4577
15197TIP3    H167082   3.020   0.464   1.047 -0.6153 -2.0373 -0.1979
15197TIP3    H267083   2.938   0.512   1.164  1.5928  0.7752  0.2566
15198TIP3   OH267084   6.525   4.885   6.060  0.5030 -0.5026 -0.9163
15198TIP3    H167085   6.618   4.891   6.081  0.5836 -1.2292 -1.0719
15198TIP3    H267086   6.483   4.861   6.143  0.5414 -0.9253 -1.0181
15199TIP3   OH267087   0.462   2.691  13.228 -0.0204 -0.4064 -0.2769
15199TIP3    H167088   0.434   2.763  13.285  2.2236 -0.3199  0.7613
15199TIP3    H267089   0.411   2.616  13.258 -0.8905  0.2784 -0.0087
15200TIP3   OH267090   4.094   5.980  15.244  0.6703 -0.3451 -0.0107
15200TIP3    H167091   4.145   5.907  15.210 -0.2687  0.2408 -2.8505
15200TIP3    H267092   4.054   6.020  15.166 -3.5775 -0.3786  1.9852
15201TIP3   OH267093   5.035   0.136   1.422  0.0665 -1.3951  0.0490
15201TIP3    H167094   5.095   0.187   1.478 -1.8663 -2.2160  3.0004
15201TIP3    H267095   4.978   0.202   1.383 -0.1934 -0.9792  1.0964
15202TIP3   OH267096   6.663   6.768   1.670 -0.2435 -0.1470  0.2831
15202TIP3    H167097   6.754   6.780   1.641 -0.5446  0.0049 -0.5992
15202TIP3    H267098   6.670   6.703   1.740  0.7070  0.8820  1.1834
15203TIP3   OH267099   6.558   2.708   4.960 -0.4825 -0.1122  0.1791
15203TIP3    H167100   6.605   2.716   5.044  0.4337 -0.8247 -0.2583
15203TIP3    H267101   6.523   2.795   4.944 -0.3370  0.1259  1.1252
15204TIP3   OH267102   3.524   0.737  16.935  0.4303 -0.2166 -0.3707
15204TIP3    H167103   3.559   0.815  16.891  1.4596 -0.0199  0.7650
15204TIP3    H267104   3.601   0.687  16.961 -0.1247 -0.1511  1.5047
15205TIP3   OH267105   1.852   3.019  17.114 -0.2115  0.4319 -0.1881
15205TIP3    H167106   1.811   2.984  17.035  0.8543 -0.7268 -0.2466
15205TIP3    H267107   1.938   3.049  17.085 -0.3449  1.2766  0.2693
15206TIP3   OH267108   6.429   5.144   5.262 -0.1096 -0.6163 -0.2500
15206TIP3    H167109   6.353   5.094   5.230  0.1049 -0.6162 -0.7692
15206TIP3    H267110   6.502   5.111   5.210  0.5524 -1.7897  1.3971
15207TIP3   OH267111   1.559   5.896   1.353 -0.4236  0.0280 -0.2283
15207TIP3    H167112   1.618   5.972   1.345 -0.5656  0.0921 -0.6488
15207TIP3    H267113   1.610   5.832   1.401 -0.8296  0.9535  1.4868
15208TIP3   OH267114   2.433   0.221  11.174 -0.5167  0.4254 -0.0080
15208TIP3    H167115   2.430   0.303  11.124 -0.3202  0.4488  0.0167
15208TIP3    H267116   2.498   0.167  11.127 -1.7225 -0.2836 -0.8849
15209TIP3   OH267117   5.139   2.279   3.279  0.4384 -0.3146 -0.3437
15209TIP3    H167118   5.157   2.250   3.368  0.4938 -0.7241 -0.4859
15209TIP3    H267119   5.046   2.303   3.280 -0.6844 -4.1773 -1.1664
15210TIP3   OH267120   1.267   4.406   2.683  0.0914 -0.0095  0.1790
15210TIP3    H167121   1.223   4.368   2.759 -1.4276 -0.5573 -0.9436
15210TIP3    H267122   1.292   4.330   2.630 -1.2394  0.4604 -1.1428
15211TIP3   OH267123   3.840   4.819   1.366 -0.0567 -0.6012 -0.2470
15211TIP3    H167124   3.880   4.890   1.316 -1.1156  1.1085  1.2274
15211TIP3    H267125   3.905   4.799   1.434 -0.1849 -0.2800 -0.0229
15212TIP3   OH267126   5.786   0.017   2.813  0.4681  0.4438  0.3283
15212TIP3    H167127   5.796  -0.074   2.785  1.7385  0.2925  1.2162
15212TIP3    H267128   5.828   0.068   2.744 -1.5969  0.4816 -0.9394
15213TIP3   OH267129   3.301   4.822   6.419  0.0054  0.2543 -0.0848
15213TIP3    H167130   3.273   4.773   6.343 -3.8337  0.9860  0.7714
15213TIP3    H267131   3.316   4.756   6.487  1.8498 -0.2457 -0.9290
15214TIP3   OH267132   2.523   2.525   5.424  1.0880 -0.0317 -0.1605
15214TIP3    H167133   2.509   2.489   5.337  0.6058 -0.3525  0.0529
15214TIP3    H267134   2.448   2.496   5.475  0.5225  1.5326 -0.0746
15215TIP3   OH267135   5.794   2.539   6.120 -0.4669  0.5940 -0.2525
15215TIP3    H167136   5.852   2.506   6.188  1.1793  0.4079 -1.7207
15215TIP3    H267137   5.757   2.619   6.157  1.2536  1.0893  0.4394
15216TIP3   OH267138   1.863   0.944   1.457 -0.1258  0.4592 -0.2767
15216TIP3    H167139   1.848   0.987   1.541  0.7300 -0.8801  0.5739
15216TIP3    H267140   1.949   0.903   1.466 -0.2161 -0.0550 -1.6501
15217TIP3   OH267141   0.567   0.088  16.662  0.2270  0.1916 -0.6456
15217TIP3    H167142   0.622   0.120  16.734 -0.2420 -0.9298  0.2175
15217TIP3    H267143   0.482   0.130  16.676 -0.4658 -1.5948  0.6353
15218TIP3   OH267144   6.041   5.740   4.574 -0.1838  0.5018  0.4415
15218TIP3    H167145   6.125   5.717   4.534 -1.1299 -1.6598 -0.3624
15218TIP3    H267146   6.034   5.835   4.562  2.3093  0.7763  0.8630
15219TIP3   OH267147   4.500   2.293   2.983 -0.2723  0.5228 -0.0919
15219TIP3    H167148   4.414   2.268   3.017  0.1255 -1.4488 -0.4975
15219TIP3    H267149   4.556   2.217   3.000  0.5490  0.4384 -2.8746
15220TIP3   OH267150   6.299   5.356  11.586  0.1643 -0.1497 -0.1346
15220TIP3    H167151   6.222   5.394  11.543 -0.7264  1.7578  2.9900
15220TIP3    H267152   6.306   5.268  11.548 -1.5567  0.8070 -2.8708
15221TIP3   OH267153   5.771   2.560  13.189 -0.9635  0.4669 -0.0658
15221TIP3    H167154   5.828   2.499  13.143 -0.1410  0.1184  1.3665
15221TIP3    H267155   5.699   2.577  13.129 -1.1990 -1.9077 -0.4889
15222TIP3   OH267156   6.580   5.769  15.437 -0.3254 -0.7204 -0.0006
15222TIP3    H167157   6.512   5.809  15.383 -2.1018 -0.5181  2.2913
15222TIP3    H267158   6.549   5.679  15.451  0.4515 -0.9739  0.0917
15223TIP3   OH267159   3.869   3.021  12.822  0.2143 -0.2539 -0.5830
15223TIP3    H167160   3.926   3.068  12.883  0.3693  0.3356 -1.1797
15223TIP3    H267161   3.873   3.072  12.741  1.0676 -1.7649 -1.5093
15224TIP3   OH267162   4.267   1.862   2.381 -0.3894  0.1668 -0.6089
15224TIP3    H167163   4.238   1.867   2.290 -1.6679  1.6409 -0.1303
15224TIP3    H267164   4.207   1.801   2.423 -0.1162 -0.1168 -0.6259
15225TIP3   OH267165   0.005   6.179   3.767  0.8963 -0.0701  0.0963
15225TIP3    H167166  -0.087   6.193   3.791  0.6807 -1.7381  0.2833
15225TIP3    H267167   0.009   6.200   3.674  0.1269 -0.8476 -0.1185
15226TIP3   OH267168   1.492   3.289   5.213  0.2752  1.0365  0.1532
15226TIP3    H167169   1.428   3.226   5.179  0.0036  1.8612 -0.8745
15226TIP3    H267170   1.532   3.244   5.288 -1.7754  0.6398  1.0483
15227TIP3   OH267171   4.089   4.580  14.982 -0.4404  0.1500 -0.7748
15227TIP3    H167172   3.999   4.608  15.001 -0.5299 -0.6606  0.0130
15227TIP3    H267173   4.083   4.484  14.978  0.7134 -0.0014  0.9698
15228TIP3   OH267174   5.328   5.652   3.431 -0.1586 -0.0079 -0.3865
15228TIP3    H167175   5.369   5.676   3.348  0.4335 -0.4284 -0.2166
15228TIP3    H267176   5.376   5.703   3.497  1.2140 -1.7635 -0.0070
15229TIP3   OH267177   3.332   1.671  14.740 -0.1406  0.1206  0.4183
15229TIP3    H167178   3.398   1.637  14.680  0.4939  1.6591  0.2474
15229TIP3    H267179   3.350   1.626  14.823  2.2439  1.8287  0.8611
15230TIP3   OH267180   0.996   3.035  16.983  0.2216 -0.0024 -0.4564
15230TIP3    H167181   0.953   2.990  16.910  1.0396 -1.0271 -0.3076
15230TIP3    H267182   0.994   2.972  17.055  2.0519 -0.1031 -0.4662
15231TIP3   OH267183   4.798   5.454   0.937  0.1339 -0.4930  0.2881
15231TIP3    H167184   4.769   5.363   0.933 -0.5636 -0.2452 -0.4298
15231TIP3    H267185   4.776   5.490   0.851 -0.0756  0.4995  0.7502
15232TIP3   OH267186   3.797   3.515   5.878  0.7211 -0.6357 -0.2810
15232TIP3    H167187   3.791   3.538   5.971 -0.0487 -0.3637 -0.3927
15232TIP3    H267188   3.736   3.442   5.867  1.0082 -0.8428 -0.5222
15233TIP3   OH267189   4.077   1.762   3.900 -0.0062 -0.4631 -0.0340
15233TIP3    H167190   4.098   1.842   3.950 -1.0354 -0.3774  0.2772
15233TIP3    H267191   3.998   1.785   3.851  0.4240 -0.8848 -0.9191
15234TIP3   OH267192   2.228   5.180   4.446 -0.0361  0.5994  0.4258
15234TIP3    H167193   2.231   5.248   4.379  1.3613  0.3106  0.1752
15234TIP3    H267194   2.299   5.203   4.507  0.1601 -0.3668  0.5805
15235TIP3   OH267195   2.403   0.746  15.073 -0.5312 -0.3015 -0.0574
15235TIP3    H167196   2.467   0.676  15.056 -0.8645 -0.4202 -0.8727
15235TIP3    H267197   2.403   0.756  15.168 -0.5763 -1.5068  0.0847
15236TIP3   OH267198   1.880   4.436   4.843  0.9206  0.1945  0.6238
15236TIP3    H167199   1.966   4.465   4.813  0.7223  0.5495  0.3903
15236TIP3    H267200   1.887   4.433   4.938  1.1034  0.5174  0.6227
15237TIP3   OH267201   4.745   0.471   6.156 -0.0221 -0.0952  0.2570
15237TIP3    H167202   4.708   0.383   6.152 -1.4488  0.4891  0.3773
15237TIP3    H267203   4.814   0.465   6.222 -0.4902 -0.9700  0.6760
15238TIP3   OH267204   1.811   5.501   2.289  0.7662 -0.2898  0.1058
15238TIP3    H167205   1.843   5.493   2.199  0.3745  1.0182 -0.1550
15238TIP3    H267206   1.721   5.532   2.279  0.2754 -1.4000  0.9168
15239TIP3   OH267207   2.341   4.443  11.504  0.3649 -0.0551 -0.3645
15239TIP3    H167208   2.324   4.460  11.412 -0.7544 -0.2364 -0.2085
15239TIP3    H267209   2.376   4.354  11.506 -1.6755 -0.8897 -0.4357
15240TIP3   OH267210   4.192   0.249   2.201 -0.4070 -0.0957 -0.2010
15240TIP3    H167211   4.185   0.259   2.296 -1.0747 -0.3835 -0.2204
15240TIP3    H267212   4.121   0.302   2.165 -0.4893 -0.4175 -0.5186
15241TIP3   OH267213   2.666   5.805   6.417  0.0297 -0.1101  0.3889
15241TIP3    H167214   2.724   5.780   6.345  1.9182 -1.5562  2.3593
15241TIP3    H267215   2.697   5.891   6.445  2.1857 -1.4699  2.3382
15242TIP3   OH267216   1.019   6.112  15.379 -0.0371  0.3629  0.5341
15242TIP3    H167217   0.986   6.085  15.293  0.3835  1.3393  0.0520
15242TIP3    H267218   0.992   6.043  15.438 -2.4852  0.8940  0.0710
15243TIP3   OH267219   2.922   5.737   6.270 -0.3608 -0.0648  0.9815
15243TIP3    H167220   2.961   5.661   6.228 -1.5293  0.8446 -1.8302
15243TIP3    H267221   2.971   5.812   6.237 -1.1927  0.6698  1.3770
15244TIP3   OH267222   4.216   5.155   2.508 -0.4942  0.1336 -0.4443
15244TIP3    H167223   4.276   5.230   2.506 -2.6033  1.8860  0.2942
15244TIP3    H267224   4.255   5.092   2.446  1.0773  2.0061 -1.4307
15245TIP3   OH267225   1.491   1.791  16.184 -0.3268  0.3819  0.1956
15245TIP3    H167226   1.444   1.709  16.193 -0.6141  0.4499 -0.6107
15245TIP3    H267227   1.583   1.765  16.173 -0.4863  0.1335 -0.6115
15246TIP3   OH267228   5.898   5.346  14.787  0.1026 -0.1571  0.1419
15246TIP3    H167229   5.807   5.317  14.794  0.5670 -1.5260  0.8172
15246TIP3    H267230   5.948   5.265  14.776  1.1516  0.6507 -1.2488
15247TIP3   OH267231   1.611   5.102   3.198  0.6189 -0.6835 -0.1020
15247TIP3    H167232   1.532   5.094   3.145  0.5962  1.3359 -0.4068
15247TIP3    H267233   1.596   5.044   3.273 -0.7084 -1.1007 -0.6825
15248TIP3   OH267234   1.533   1.421  15.535 -0.1741  0.2184  0.1240
15248TIP3    H167235   1.604   1.357  15.535 -0.2468  0.1357  1.1727
15248TIP3    H267236   1.576   1.505  15.553 -0.1609  0.3812 -0.6432
15249TIP3   OH267237   1.127   0.408   4.091 -0.1712 -0.1069 -0.2443
15249TIP3    H167238   1.103   0.329   4.139  0.2061  0.5398  1.0259
15249TIP3    H267239   1.080   0.400   4.008 -0.2343 -1.6027 -0.0799
15250TIP3   OH267240   2.912   4.151   4.280  0.4730 -0.2156  0.5988
15250TIP3    H167241   2.826   4.153   4.238  0.2106 -3.1275  0.9101
15250TIP3    H267242   2.924   4.239   4.315 -2.3813  0.2111  0.5717
15251TIP3   OH267243   1.514   2.315  16.503  0.4706  0.2887  0.2735
15251TIP3    H167244   1.568   2.297  16.580  0.3088 -0.5347  0.1969
15251TIP3    H267245   1.576   2.341  16.435  0.6390  0.7456  0.5966
15252TIP3   OH267246   1.190   3.130   4.112  0.5259 -0.7956  0.1397
15252TIP3    H167247   1.243   3.060   4.073  0.9784  0.9211 -2.4117
15252TIP3    H267248   1.193   3.201   4.049 -2.6443  0.3554  1.1653
15253TIP3   OH267249   5.957   3.175   5.582 -0.1596 -0.3835 -0.4133
15253TIP3    H167250   6.016   3.135   5.646  0.8273  0.9916 -0.4378
15253TIP3    H267251   5.931   3.257   5.622 -0.5949 -0.1264 -1.2123
15254TIP3   OH267252   4.123   1.723  14.732 -0.4940 -0.0263 -0.2506
15254TIP3    H167253   4.188   1.671  14.779 -2.5259 -0.5849  2.0514
15254TIP3    H267254   4.050   1.663  14.718 -2.0923  1.6437  0.7216
15255TIP3   OH267255   4.196   4.905  13.493 -0.0706 -0.3094 -0.2702
15255TIP3    H167256   4.226   4.840  13.430 -1.5428 -1.2465 -0.0158
15255TIP3    H267257   4.150   4.854  13.560  1.9751  0.5844  1.8914
15256TIP3   OH267258   3.914   0.880   0.299  0.1104  0.4289 -0.4130
15256TIP3    H167259   3.887   0.945   0.234  1.2175  2.0945  0.7594
15256TIP3    H267260   4.005   0.901   0.318 -0.2292  0.0407  1.7536
15257TIP3   OH267261   2.686   3.424  12.160 -0.9601 -0.0442 -0.3998
15257TIP3    H167262   2.760   3.376  12.123  1.0933  3.5384 -1.1629
15257TIP3    H267263   2.716   3.452  12.247 -1.3856  1.4692 -0.7280
15258TIP3   OH267264   1.913   2.700   4.851  0.3018  0.2829 -0.1111
15258TIP3    H167265   1.987   2.684   4.910  0.5030 -0.1875 -0.4860
15258TIP3    H267266   1.883   2.612   4.825  0.0337  0.4798 -0.4772
15259TIP3   OH267267   2.688   3.627  14.879  0.6567 -0.0286  0.5746
15259TIP3    H167268   2.661   3.659  14.793 -0.1571 -1.0387  0.4386
15259TIP3    H267269   2.605   3.611  14.925  1.0698 -0.5808  1.1329
15260TIP3   OH267270   3.608   3.744   3.117 -0.1741 -0.5418  0.6109
15260TIP3    H167271   3.583   3.756   3.209  0.1042  0.6882  0.5247
15260TIP3    H267272   3.588   3.827   3.075  0.6073 -0.7814 -0.2496
15261TIP3   OH267273   0.693   5.498  17.254  0.0609  0.1614  0.4374
15261TIP3    H167274   0.636   5.556  17.304 -2.2052  0.4323 -2.3194
15261TIP3    H267275   0.705   5.542  17.170  1.8176 -1.3699 -0.1674
15262TIP3   OH267276   5.666   1.763   1.138  0.3709  0.1884 -0.3899
15262TIP3    H167277   5.582   1.797   1.170  1.1286 -0.1133  2.0087
15262TIP3    H267278   5.674   1.799   1.050 -1.8758  0.9276 -0.3261
15263TIP3   OH267279   2.788   5.146  14.484 -0.4485 -0.2514 -0.3202
15263TIP3    H167280   2.696   5.158  14.507 -0.1358 -0.1177  0.9164
15263TIP3    H267281   2.793   5.056  14.452 -0.9628 -0.3452 -0.1421
15264TIP3   OH267282   2.482   0.178  16.892 -0.0264  0.4447  0.0724
15264TIP3    H167283   2.528   0.117  16.950  2.0067 -0.1684 -2.0724
15264TIP3    H267284   2.390   0.155  16.901  0.3134 -0.1042  2.4892
15265TIP3   OH267285   5.453   5.096  13.128 -0.4826 -0.4870 -0.1935
15265TIP3    H167286   5.466   5.015  13.177 -1.1378 -0.0198  0.7902
15265TIP3    H267287   5.541   5.126  13.106 -0.0986 -0.0343  1.8488
15266TIP3   OH267288   0.020   4.015   5.802 -0.0874 -0.4523  0.6945
15266TIP3    H167289   0.079   3.989   5.731 -0.7068  0.6060 -0.2210
15266TIP3    H267290   0.003   4.108   5.787 -1.8223 -0.6869  1.0576
15267TIP3   OH267291   1.860   2.294   2.729 -0.1032 -0.3055  0.1651
15267TIP3    H167292   1.919   2.247   2.788  1.4667  1.4515  0.0524
15267TIP3    H267293   1.913   2.310   2.651 -1.4421 -0.6076 -0.8117
15268TIP3   OH267294   0.096   0.377   5.071  0.8117  0.0834 -0.0185
15268TIP3    H167295   0.188   0.355   5.087  0.1995 -2.7263 -0.1040
15268TIP3    H267296   0.049   0.334   5.143 -0.4918  0.9756 -0.3321
15269TIP3   OH267297   1.253   2.364   3.154 -0.3320 -0.4761  0.0638
15269TIP3    H167298   1.326   2.418   3.123 -0.0626 -1.5181 -1.1761
15269TIP3    H267299   1.256   2.370   3.249 -1.0180  2.6271 -0.0519
15270TIP3   OH267300   5.181   1.955   5.372  0.1063  1.0200  0.0110
15270TIP3    H167301   5.241   1.996   5.309 -0.2533  0.9158 -0.4020
15270TIP3    H267302   5.095   1.990   5.349 -0.3511 -0.6557 -0.9393
15271TIP3   OH267303   4.824   5.949  10.756 -0.5152 -0.1043  0.2285
15271TIP3    H167304   4.800   5.931  10.665  1.7574 -2.2666 -0.0031
15271TIP3    H267305   4.919   5.961  10.753 -0.3061 -1.1119  2.4427
15272TIP3   OH267306   3.028   0.937   5.790 -0.1728  0.3145 -0.2512
15272TIP3    H167307   3.119   0.964   5.800  0.5082 -1.7511 -0.5874
15272TIP3    H267308   2.986   0.965   5.872  1.1744 -0.2707  0.6649
15273TIP3   OH267309   6.107   5.995   3.777  0.2934 -0.4745  0.2515
15273TIP3    H167310   6.108   5.996   3.873 -1.8111  1.5504  0.3110
15273TIP3    H267311   6.020   5.962   3.754  0.8785 -1.1833 -0.9608
15274TIP3   OH267312   4.764   0.092   2.534  0.2585 -0.4012  0.1092
15274TIP3    H167313   4.851   0.057   2.555  1.2824  1.0108 -1.6376
15274TIP3    H267314   4.781   0.167   2.476 -2.1295 -0.1647 -0.3545
15275TIP3   OH267315   3.736   4.928   2.803  0.1602 -0.3301  0.0159
15275TIP3    H167316   3.718   4.947   2.895  0.4662 -0.8502  0.1872
15275TIP3    H267317   3.681   4.853   2.782  0.5941 -0.6409 -0.0300
15276TIP3   OH267318   0.023   4.256   3.464  0.3286  0.0201 -0.1396
15276TIP3    H167319   0.069   4.173   3.454 -0.0211 -0.1810 -0.0924
15276TIP3    H267320  -0.047   4.237   3.527  0.7617  0.5606  0.5179
15277TIP3   OH267321   0.936   1.046   4.240 -0.1240 -0.2628  0.2716
15277TIP3    H167322   0.853   1.065   4.196  0.4351  2.4007  0.3012
15277TIP3    H267323   0.999   1.036   4.170  0.1618  0.9283  0.3557
15278TIP3   OH267324   4.821   0.058  13.326 -0.1866  0.5908 -0.2019
15278TIP3    H167325   4.741   0.081  13.280  0.0173  0.9994 -0.3569
15278TIP3    H267326   4.794  -0.007  13.390 -0.0355 -1.8920 -2.5783
15279TIP3   OH267327   0.342   6.763   4.733 -0.2626 -0.2137  0.1438
15279TIP3    H167328   0.248   6.745   4.721 -0.0584 -0.4784 -1.1695
15279TIP3    H267329   0.352   6.854   4.703 -0.4135  0.4625  2.0603
15280TIP3   OH267330   5.049   1.726   3.072  0.3351  0.3476 -0.4859
15280TIP3    H167331   5.060   1.819   3.054  1.6029  0.1346 -0.8862
15280TIP3    H267332   5.131   1.686   3.042  1.3336 -0.4106  2.9943
15281TIP3   OH267333   0.453   4.552   4.918  0.0278 -0.4205 -0.1577
15281TIP3    H167334   0.479   4.636   4.878  1.2101  0.2414  1.9010
15281TIP3    H267335   0.503   4.486   4.870 -0.8397  0.0428 -1.7366
15282TIP3   OH267336   5.030   6.785  16.406 -0.1402  0.0301 -0.1147
15282TIP3    H167337   5.028   6.863  16.461  0.8724  1.1386 -1.5986
15282TIP3    H267338   4.942   6.781  16.368 -0.8243 -0.7053  1.4932
15283TIP3   OH267339   6.659   6.300  15.353  0.5447 -0.6412  0.3060
15283TIP3    H167340   6.738   6.333  15.395  0.8689 -0.0799 -0.7295
15283TIP3    H267341   6.592   6.302  15.423  1.1239  0.0605  0.8503
15284TIP3   OH267342   0.638   0.273  14.487 -0.1256 -0.3031  0.4078
15284TIP3    H167343   0.730   0.295  14.500 -0.2585  0.9995 -0.6671
15284TIP3    H267344   0.639   0.202  14.423  0.1132  0.0132  0.0592
15285TIP3   OH267345   4.696   3.722   3.805  0.3200 -0.1338  0.0456
15285TIP3    H167346   4.612   3.765   3.821  1.2023  1.3956  0.6700
15285TIP3    H267347   4.674   3.643   3.756 -1.2880  1.2556 -1.4978
15286TIP3   OH267348   1.802   3.436  16.413 -0.1660 -0.3057  0.3398
15286TIP3    H167349   1.756   3.423  16.330 -0.2975 -1.0388  0.5257
15286TIP3    H267350   1.752   3.505  16.458  0.6911  1.0765 -0.7676
15287TIP3   OH267351   2.790   4.850   1.738  0.1917  0.4254 -0.0397
15287TIP3    H167352   2.776   4.755   1.745  0.3599  0.5810  2.7956
15287TIP3    H267353   2.711   4.881   1.693  0.3603 -1.0919 -1.4630
15288TIP3   OH267354   4.759   2.586  14.230  0.5740  0.0578  0.0467
15288TIP3    H167355   4.672   2.552  14.207  1.0397  0.6054 -2.6114
15288TIP3    H267356   4.771   2.559  14.321 -1.7011 -1.4304 -0.0398
15289TIP3   OH267357   2.983   2.270   3.543  0.4128  0.3157  0.6513
15289TIP3    H167358   3.042   2.245   3.614  1.1718 -0.9449 -0.4108
15289TIP3    H267359   2.985   2.366   3.543  2.0018  0.2929  0.9937
15290TIP3   OH267360   0.882   1.172   2.405  0.1752  0.4273  0.2123
15290TIP3    H167361   0.906   1.091   2.450  2.0286  0.1992 -1.0999
15290TIP3    H267362   0.908   1.242   2.465  1.6780  0.0996 -0.0147
15291TIP3   OH267363   1.509   3.490  12.696 -0.1802 -0.6280 -0.4549
15291TIP3    H167364   1.514   3.396  12.681 -0.8018 -0.6563 -0.5036
15291TIP3    H267365   1.571   3.506  12.767  0.7190 -0.9079 -1.1778
15292TIP3   OH267366   3.898   2.995   0.666 -0.0223 -0.2579  0.3538
15292TIP3    H167367   3.981   3.020   0.708  0.5751 -0.3435 -0.7658
15292TIP3    H267368   3.835   3.059   0.699  0.7589  0.5949  0.2371
15293TIP3   OH267369   3.290   0.586   6.068  0.4118  0.3710 -0.5092
15293TIP3    H167370   3.319   0.496   6.083  0.4017  0.5594  0.6969
15293TIP3    H267371   3.360   0.626   6.017  1.9009  0.5784  1.6223
15294TIP3   OH267372   2.853   6.440   6.105 -0.6948  0.4216  0.3244
15294TIP3    H167373   2.763   6.473   6.110 -1.1208 -0.1651 -2.3515
15294TIP3    H267374   2.844   6.355   6.062  1.1751  0.5621 -0.3688
15295TIP3   OH267375   6.340   5.542  15.118  0.4920 -0.0531  0.2688
15295TIP3    H167376   6.255   5.515  15.083  0.1985  1.4589 -0.1960
15295TIP3    H267377   6.365   5.618  15.066  1.6249  0.1876  1.1360
15296TIP3   OH267378   1.281   5.007   3.675  0.2826  0.2911  0.6042
15296TIP3    H167379   1.298   5.099   3.656  1.4701  0.2135  1.2513
15296TIP3    H267380   1.248   4.971   3.592  1.6690  0.8585 -0.2127
15297TIP3   OH267381   0.324   6.641  16.112  0.1540 -0.0871 -0.3852
15297TIP3    H167382   0.234   6.621  16.083 -0.0650  0.6087 -0.1962
15297TIP3    H267383   0.370   6.558  16.106 -0.3416 -0.3145 -1.1041
15298TIP3   OH267384   0.685   4.799   4.148  0.3659  0.5178  0.0158
15298TIP3    H167385   0.698   4.764   4.060  0.6823 -0.0776  0.2964
15298TIP3    H267386   0.607   4.753   4.181  1.1266 -0.3766  0.6064
15299TIP3   OH267387   3.454   6.752  13.875  0.2850 -0.0701  0.2153
15299TIP3    H167388   3.411   6.722  13.795  0.1949 -1.0619  0.6326
15299TIP3    H267389   3.537   6.790  13.845  0.2755 -0.4859 -0.3467
15300TIP3   OH267390   3.561   6.774   0.468 -0.3422 -0.6674  0.5649
15300TIP3    H167391   3.537   6.682   0.466  0.5167 -0.9504  2.4641
15300TIP3    H267392   3.479   6.821   0.452 -1.2622 -1.7126  2.1938
15301TIP3   OH267393   2.377   6.757  16.025  0.0111  0.4269 -0.1941
15301TIP3    H167394   2.295   6.758  16.076  0.5800  3.9231  0.7811
15301TIP3    H267395   2.446   6.753  16.091  0.6814 -2.8425 -1.0341
15302TIP3   OH267396   0.074   3.884  13.013  0.7466 -0.0781  0.5663
15302TIP3    H167397   0.160   3.855  12.983 -0.3202 -0.3529 -2.4670
15302TIP3    H267398   0.022   3.804  13.019  0.0912  0.3094  0.1651
15303TIP3   OH267399   2.385   2.940  14.924  0.2909  0.5379 -0.3147
15303TIP3    H167400   2.453   2.912  14.863 -2.1613 -0.3300 -2.7828
15303TIP3    H267401   2.364   2.862  14.975  0.3072  0.4875 -0.3855
15304TIP3   OH267402   1.487   0.425  15.119  0.5863 -0.0612 -0.1664
15304TIP3    H167403   1.444   0.390  15.197  0.5809 -0.3093 -0.2789
15304TIP3    H267404   1.431   0.398  15.047  1.5553 -1.4317 -0.4226
15305TIP3   OH267405   4.350   1.296  11.998 -0.0543  0.5015  0.2442
15305TIP3    H167406   4.371   1.259  12.084 -0.0154  0.1973  0.1036
15305TIP3    H267407   4.265   1.337  12.010 -1.0169 -1.3272 -0.0959
15306TIP3   OH267408   2.980   1.487  11.776  0.1294  0.1850 -0.2169
15306TIP3    H167409   3.027   1.501  11.859 -0.5112 -0.6753  0.2990
15306TIP3    H267410   2.890   1.514  11.795 -0.0946 -0.3244 -0.5378
15307TIP3   OH267411   0.207   2.726  15.276 -0.3307 -0.0204  0.0084
15307TIP3    H167412   0.172   2.805  15.236 -1.2130 -0.8603 -0.8901
15307TIP3    H267413   0.228   2.752  15.366 -0.9433  1.1296 -0.1728
15308TIP3   OH267414   1.424   5.706   4.638 -0.0444  0.8111 -0.3120
15308TIP3    H167415   1.342   5.755   4.649 -0.6026 -0.2872  0.4827
15308TIP3    H267416   1.432   5.654   4.718  1.1257  0.4601 -0.6525
15309TIP3   OH267417   3.892   3.608   0.547  0.4078  0.1667 -0.1389
15309TIP3    H167418   3.807   3.596   0.589  0.5365  1.0033  0.3695
15309TIP3    H267419   3.874   3.661   0.470  0.6080  1.2016  0.5176
15310TIP3   OH267420   6.570   5.237  13.859  0.2109  0.1842 -0.3536
15310TIP3    H167421   6.604   5.296  13.791 -0.6725  0.6625 -0.3805
15310TIP3    H267422   6.532   5.295  13.924  1.7473 -0.2314  0.9516
15311TIP3   OH267423   2.559   2.512  16.540  0.0001  0.5383 -0.1207
15311TIP3    H167424   2.515   2.431  16.512 -2.2402  1.3320  0.9661
15311TIP3    H267425   2.608   2.541  16.463 -2.1676  0.1284 -1.7027
15312TIP3   OH267426   6.322   5.865  16.027  0.1060 -0.4386  0.3780
15312TIP3    H167427   6.247   5.830  15.978 -0.3249  1.0077 -0.0039
15312TIP3    H267428   6.379   5.789  16.039 -0.8382 -1.2955 -0.4060
15313TIP3   OH267429   4.493   2.222  15.520  0.0673  0.0394 -0.1834
15313TIP3    H167430   4.459   2.178  15.442 -2.1109  0.4188  0.5168
15313TIP3    H267431   4.515   2.151  15.580  0.0074 -0.1969 -0.4385
15314TIP3   OH267432   0.776   1.062  15.238  0.4879 -0.3704  0.3033
15314TIP3    H167433   0.856   1.009  15.239 -0.3020 -1.5766  1.9137
15314TIP3    H267434   0.804   1.147  15.272  0.9809 -0.9935  1.5175
15315TIP3   OH267435   5.590   0.666   1.867  0.5458  0.5474 -0.2061
15315TIP3    H167436   5.660   0.719   1.829  1.7555 -0.5762  0.4125
15315TIP3    H267437   5.560   0.716   1.943  0.6116  1.0700 -0.5205
15316TIP3   OH267438   6.299   2.039   1.529 -0.2691 -0.2036 -0.9775
15316TIP3    H167439   6.327   2.038   1.621 -3.2869  1.1002  0.0041
15316TIP3    H267440   6.379   2.063   1.481  1.1328  0.0831  1.3945
15317TIP3   OH267441   1.899   6.629   5.138 -0.8976 -0.5613  0.0802
15317TIP3    H167442   1.976   6.590   5.097 -0.4904  0.3444 -0.0249
15317TIP3    H267443   1.928   6.656   5.225 -0.4760  1.7996 -0.7692
15318TIP3   OH267444   0.843   6.473  12.135  0.2770  0.7915 -0.8457
15318TIP3    H167445   0.915   6.496  12.194 -0.0985 -0.9207  0.3185
15318TIP3    H267446   0.770   6.529  12.163 -0.5005 -1.3775  1.6758
15319TIP3   OH267447   1.016   6.811  13.752  0.8887  0.2958  0.9172
15319TIP3    H167448   1.011   6.784  13.660  1.1844 -0.4466  1.1119
15319TIP3    H267449   0.937   6.863  13.767  0.4875 -0.1713  0.4261
15320TIP3   OH267450   4.349   3.051  11.261  0.4405  0.1585  0.2954
15320TIP3    H167451   4.392   3.057  11.176  0.1409  1.2588  0.2198
15320TIP3    H267452   4.267   3.100  11.251 -1.6268 -3.1732 -0.0404
15321TIP3   OH267453   1.269   3.593   2.535  0.4795  0.0534  0.6609
15321TIP3    H167454   1.195   3.540   2.564  1.1435 -0.6104  1.1446
15321TIP3    H267455   1.253   3.609   2.442  0.7132 -1.7198  0.3002
15322TIP3   OH267456   5.135   0.175   5.978  0.1187  0.3098 -0.3433
15322TIP3    H167457   5.075   0.249   5.980 -0.3704 -0.0662 -0.8720
15322TIP3    H267458   5.083   0.101   6.008  0.1904 -0.0969 -1.1906
15323TIP3   OH267459   0.961   1.024  11.501  0.7859  0.2675  0.0864
15323TIP3    H167460   1.033   0.961  11.508 -0.5534 -1.3481 -0.5049
15323TIP3    H267461   0.994   1.091  11.441  1.7073 -0.5902 -0.3734
15324TIP3   OH267462   4.910   1.984   5.162  0.1217 -1.1785 -0.0096
15324TIP3    H167463   4.971   1.969   5.090 -0.6088 -2.1587 -0.4339
15324TIP3    H267464   4.826   2.002   5.119  0.0360 -0.1790  0.5714
15325TIP3   OH267465   4.330   3.780  15.275  0.2897  0.0492  0.4657
15325TIP3    H167466   4.387   3.848  15.310 -0.9251  1.9010 -1.0707
15325TIP3    H267467   4.389   3.709  15.251  1.5850  0.5973  1.9664
15326TIP3   OH267468   2.070   1.610  14.556 -0.1345 -0.3470 -0.5245
15326TIP3    H167469   2.133   1.645  14.493  0.1164  0.1973  0.0298
15326TIP3    H267470   2.004   1.679  14.566  1.5006  0.8929  2.2067
15327TIP3   OH267471   4.080   0.901   6.263 -0.1692  0.0141  0.2697
15327TIP3    H167472   4.169   0.865   6.272 -0.0634  0.0702 -0.4921
15327TIP3    H267473   4.024   0.824   6.261 -0.0066 -0.0972 -0.6175
15328TIP3   OH267474   1.388   2.960   1.560 -0.0296 -0.4170 -0.1605
15328TIP3    H167475   1.349   2.978   1.474  0.3464 -1.7846 -0.6251
15328TIP3    H267476   1.365   2.869   1.579 -0.5425  0.0320  1.4298
15329TIP3   OH267477   3.194   3.741  16.179 -0.1551  0.7450  0.2852
15329TIP3    H167478   3.254   3.805  16.142 -1.1310  0.2906 -2.1669
15329TIP3    H267479   3.249   3.688  16.237  1.3477  1.6844 -0.2508
15330TIP3   OH267480   1.945   2.125  13.112 -0.0833  0.4536 -0.2623
15330TIP3    H167481   1.856   2.088  13.109 -0.2273  0.7944 -0.1604
15330TIP3    H267482   1.933   2.217  13.088  0.3440  0.3122 -1.0076
15331TIP3   OH267483   0.885   3.542   5.631 -0.7345  0.3568  0.3949
15331TIP3    H167484   0.955   3.607   5.622 -1.7789  1.3405 -0.9052
15331TIP3    H267485   0.856   3.549   5.722 -1.3589  2.2814  0.0674
15332TIP3   OH267486   1.327   4.261   3.987 -0.5276  0.6197  0.5102
15332TIP3    H167487   1.385   4.252   3.911 -1.2406  0.1468  0.0178
15332TIP3    H267488   1.385   4.288   4.058  0.0112  2.0032 -0.4233
15333TIP3   OH267489   6.252   5.254  13.281  0.3588 -0.0430 -0.5811
15333TIP3    H167490   6.158   5.249  13.295  0.4283  0.1757 -0.0445
15333TIP3    H267491   6.268   5.344  13.252  0.4004 -0.0973 -0.7312
15334TIP3   OH267492   1.265   3.633   0.492  0.0136  0.3778 -0.0928
15334TIP3    H167493   1.235   3.720   0.520  1.6539  1.2013 -0.8201
15334TIP3    H267494   1.358   3.631   0.515  0.5707 -0.2619 -2.2925
15335TIP3   OH267495   6.241   2.623  12.692  0.5024 -0.1285 -0.7961
15335TIP3    H167496   6.321   2.643  12.741 -0.6674  1.2792  0.5757
15335TIP3    H267497   6.233   2.528  12.698  2.8093 -0.4356 -2.1432
15336TIP3   OH267498   4.150   6.444   6.301  0.6787 -0.0055 -0.0419
15336TIP3    H167499   4.195   6.518   6.260 -1.0027  0.5794 -0.8667
15336TIP3    H267500   4.068   6.481   6.334 -0.3586 -1.5813 -0.8070
15337TIP3   OH267501   2.253   6.599  13.123 -0.0600 -0.3610 -0.6326
15337TIP3    H167502   2.169   6.620  13.082  1.1946  2.2903 -1.9550
15337TIP3    H267503   2.249   6.641  13.209 -1.3880 -3.1437  0.7330
15338TIP3   OH267504   5.208   6.086   2.534  0.0088 -0.0764 -0.2351
15338TIP3    H167505   5.283   6.047   2.489 -0.9601 -1.3202 -0.7771
15338TIP3    H267506   5.226   6.073   2.627  1.8083  2.1269 -0.2250
15339TIP3   OH267507   4.068   2.355  11.519 -0.2216  0.1122 -0.0067
15339TIP3    H167508   3.981   2.325  11.491  0.3345  1.1016 -2.8946
15339TIP3    H267509   4.129   2.301  11.471  0.7745  1.4863 -0.3088
15340TIP3   OH267510   6.627   2.503   4.598  0.5257  0.0549  0.0810
15340TIP3    H167511   6.575   2.573   4.636  1.8054  0.1831  1.6734
15340TIP3    H267512   6.605   2.425   4.649  0.7077 -0.2223 -0.2590
15341TIP3   OH267513   5.371   2.519   3.783 -0.0995  0.5878 -0.1738
15341TIP3    H167514   5.397   2.589   3.842 -1.2219  1.1818 -0.3709
15341TIP3    H267515   5.408   2.439   3.822 -0.6355  1.0070  1.2040
15342TIP3   OH267516   4.167   0.389   2.448  0.1177  0.3952 -0.1541
15342TIP3    H167517   4.225   0.431   2.511  0.2392  0.8708 -0.5835
15342TIP3    H267518   4.107   0.337   2.502  1.0182 -0.2093  0.2827
15343TIP3   OH267519   0.671   0.361  11.905 -0.0325 -0.2398  0.4966
15343TIP3    H167520   0.606   0.298  11.873 -0.0635  0.7506 -1.4376
15343TIP3    H267521   0.633   0.447  11.884  2.2901  0.3385 -1.5137
15344TIP3   OH267522   2.570   3.155   1.826  0.1346 -0.5162  0.5658
15344TIP3    H167523   2.490   3.123   1.868 -1.4080 -0.9301 -2.5429
15344TIP3    H267524   2.629   3.080   1.828 -1.1528 -1.6113 -0.9533
15345TIP3   OH267525   3.938   3.827  11.227 -0.0505 -0.4618 -0.2741
15345TIP3    H167526   3.926   3.805  11.319  0.1497 -2.0265 -0.6021
15345TIP3    H267527   3.883   3.904  11.212  0.6315  0.3638  1.3633
15346TIP3   OH267528   5.368   2.945   0.697 -0.2535  0.0298 -0.0242
15346TIP3    H167529   5.352   2.853   0.720 -0.6183  0.4892  1.6442
15346TIP3    H267530   5.443   2.971   0.752  1.6041 -0.0233 -2.4618
15347TIP3   OH267531   6.545   3.148   2.569 -0.3240 -0.0170  0.9187
15347TIP3    H167532   6.624   3.095   2.575 -0.1665  0.0539 -0.3878
15347TIP3    H267533   6.509   3.127   2.483 -2.0954 -0.5609  1.7739
15348TIP3   OH267534   4.647   4.470   1.410  0.6949  0.5072 -0.1372
15348TIP3    H167535   4.734   4.486   1.447  1.2899 -0.6338 -1.0439
15348TIP3    H267536   4.657   4.390   1.359 -0.6958  0.8171 -0.9007
15349TIP3   OH267537   3.080   3.112  14.468 -0.3187 -0.5631 -0.0733
15349TIP3    H167538   3.076   3.109  14.563  2.7656 -2.3894  0.0443
15349TIP3    H267539   3.014   3.048  14.439  2.2345 -3.8544  1.0133
15350TIP3   OH267540   1.935   6.726   6.755  0.2118 -0.0591 -0.0694
15350TIP3    H167541   1.857   6.725   6.701  0.5955  0.2283 -0.6306
15350TIP3    H267542   1.903   6.712   6.844 -0.4848  0.1425 -0.2878
15351TIP3   OH267543   0.562   0.173  12.914  0.2318 -0.0241 -0.1840
15351TIP3    H167544   0.513   0.105  12.865  0.3966  1.8475 -3.0687
15351TIP3    H267545   0.496   0.239  12.935  0.4158 -0.2314  1.0647
15352TIP3   OH267546   2.923   5.939  13.583 -0.2694  0.3439 -0.0111
15352TIP3    H167547   2.856   5.875  13.558 -0.1293 -0.1962  0.9862
15352TIP3    H267548   2.877   6.023  13.585 -1.3947 -0.2974  2.6056
15353TIP3   OH267549   4.862   1.479   0.757 -0.2999  0.2719  0.2680
15353TIP3    H167550   4.814   1.562   0.757 -1.3373 -0.3134  1.8333
15353TIP3    H267551   4.935   1.493   0.818 -0.2655  0.1628  0.2531
15354TIP3   OH267552   1.168   1.609  11.762  0.4365  0.1737 -0.1393
15354TIP3    H167553   1.160   1.693  11.805 -0.1381  1.3776 -2.4940
15354TIP3    H267554   1.210   1.552  11.826  0.0255  2.0037  1.7908
15355TIP3   OH267555   6.728   6.545  14.262  0.4331  0.4824 -0.0700
15355TIP3    H167556   6.739   6.634  14.228  0.9010  1.2387  1.9975
15355TIP3    H267557   6.792   6.539  14.333  0.3997 -1.5107 -0.1931
15356TIP3   OH267558   5.033   3.272   0.910 -0.7173 -0.4945  0.3278
15356TIP3    H167559   5.024   3.363   0.883  0.7497 -0.2682  0.5311
15356TIP3    H267560   4.973   3.224   0.854 -0.7643  0.4777 -0.4684
15357TIP3   OH267561   1.016   4.065   5.543 -0.3242  0.3320  0.5460
15357TIP3    H167562   1.109   4.039   5.541  0.2686  2.2731  1.7493
15357TIP3    H267563   0.982   4.036   5.459  1.8149  1.0923 -0.6320
15358TIP3   OH267564   0.125   3.210   2.996 -0.3036 -0.5455  0.0891
15358TIP3    H167565   0.217   3.205   3.018 -0.0139 -0.8703 -1.1171
15358TIP3    H267566   0.086   3.132   3.037  0.2297 -1.1836 -0.5935
15359TIP3   OH267567   2.989   4.701  15.633 -0.4807  0.0959  0.2195
15359TIP3    H167568   3.053   4.771  15.633  1.4415 -1.6159 -0.0332
15359TIP3    H267569   2.922   4.729  15.571  1.6695  0.4943 -2.0215
15360TIP3   OH267570   5.599   2.774   2.535  0.0729 -0.0115  0.1269
15360TIP3    H167571   5.603   2.868   2.552  2.2901  0.1102 -0.9020
15360TIP3    H267572   5.675   2.738   2.580 -0.1090 -1.1513 -0.4681
15361TIP3   OH267573   1.275   4.815   1.585 -0.6841 -0.4859  0.0511
15361TIP3    H167574   1.224   4.896   1.589  1.1757  0.7763 -0.7315
15361TIP3    H267575   1.357   4.837   1.630  0.1317 -1.7264 -0.7993
15362TIP3   OH267576   1.460   6.034   5.456 -0.1938 -0.5380 -0.0640
15362TIP3    H167577   1.408   6.046   5.377  0.1218  0.0694 -0.1844
15362TIP3    H267578   1.439   5.946   5.486 -2.0748  0.0598  0.4604
15363TIP3   OH267579   2.047   3.878  17.185  0.3939 -0.4050 -0.6128
15363TIP3    H167580   2.017   3.919  17.266  0.5975  0.7275 -1.0880
15363TIP3    H267581   2.115   3.817  17.212 -0.8891 -1.4640  0.2556
15364TIP3   OH267582   2.453   3.124   2.587 -0.0063  0.4647 -0.3559
15364TIP3    H167583   2.373   3.074   2.577  0.4323 -0.5485  1.1100
15364TIP3    H267584   2.458   3.144   2.680  1.8698 -0.2314 -0.2804
15365TIP3   OH267585   1.283   0.344  14.940 -0.1642  0.0369  0.2095
15365TIP3    H167586   1.298   0.265  14.991 -0.7890  0.2759  0.7665
15365TIP3    H267587   1.231   0.400  14.997  1.7576  1.5797  0.5345
15366TIP3   OH267588   5.379   0.611   0.836 -0.0768 -0.1140 -0.1629
15366TIP3    H167589   5.407   0.654   0.917  0.7868  2.6162 -1.8265
15366TIP3    H267590   5.459   0.571   0.801 -0.3300 -0.8171  0.0684
15367TIP3   OH267591   3.802   4.705  12.080 -0.2504 -0.2016  0.4090
15367TIP3    H167592   3.712   4.737  12.090 -0.7025 -1.8611  2.0001
15367TIP3    H267593   3.841   4.713  12.167  0.3666 -1.6853  0.2972
15368TIP3   OH267594   6.725   2.548  13.841 -0.1390  0.4673  0.3008
15368TIP3    H167595   6.704   2.634  13.804  0.0817  0.9464  1.2540
15368TIP3    H267596   6.808   2.561  13.887 -0.5690 -0.0063  1.2451
15369TIP3   OH267597   0.879   6.651  12.811 -0.5915 -0.1358 -0.1372
15369TIP3    H167598   0.868   6.746  12.809 -0.5343 -0.1480 -0.9622
15369TIP3    H267599   0.871   6.628  12.904 -0.3344  0.7063  0.0959
15370TIP3   OH267600   4.069   6.090   4.795  0.1966 -0.0422  0.2917
15370TIP3    H167601   4.012   6.029   4.842  0.9079 -0.6601  0.3621
15370TIP3    H267602   4.055   6.071   4.702  1.0341 -0.8924  0.3301
15371TIP3   OH267603   0.189   3.490   3.501  0.1290  0.3997  0.1600
15371TIP3    H167604   0.206   3.578   3.468  1.7200  0.1523  0.2643
15371TIP3    H267605   0.207   3.433   3.425 -1.0000  0.1655  0.0584
15372TIP3   OH267606   6.155   2.952  12.136 -0.6228  0.4385  0.2587
15372TIP3    H167607   6.133   2.874  12.187 -1.0050 -0.3746 -1.1284
15372TIP3    H267608   6.201   3.009  12.198 -0.1887 -0.9544  1.2389
15373TIP3   OH267609   4.957   5.749   5.360 -0.4326 -0.7202  0.2227
15373TIP3    H167610   4.928   5.763   5.450  1.6772  0.4176  0.7457
15373TIP3    H267611   5.050   5.728   5.367 -0.4497 -1.5662 -1.6307
15374TIP3   OH267612   3.320   5.524   4.301 -0.0167  0.3081 -0.2466
15374TIP3    H167613   3.270   5.444   4.284 -0.1548  0.4783 -0.6536
15374TIP3    H267614   3.383   5.529   4.229  1.6409 -0.7217  1.0890
15375TIP3   OH267615   1.648   1.495  10.493  0.1438  0.4332  0.4366
15375TIP3    H167616   1.554   1.514  10.488 -0.2800 -1.8597 -1.2466
15375TIP3    H267617   1.684   1.565  10.547 -2.3782  1.9344  0.2486
15376TIP3   OH267618   5.703   5.387  13.402 -0.6740  0.6067  0.1490
15376TIP3    H167619   5.630   5.375  13.463  0.5665 -2.3463  1.1293
15376TIP3    H267620   5.749   5.465  13.434 -1.3178  0.3653  1.6825
15377TIP3   OH267621   2.971   0.212  13.711  0.2002  0.0099  0.2273
15377TIP3    H167622   2.977   0.179  13.621 -0.7378  0.5906 -0.0538
15377TIP3    H267623   2.962   0.133  13.764 -2.8018 -0.2130 -0.5091
15378TIP3   OH267624   5.553   4.836  14.159 -0.0234 -0.5101  0.0151
15378TIP3    H167625   5.511   4.818  14.075  0.5381  1.4839 -0.7036
15378TIP3    H267626   5.606   4.914  14.144  2.5216 -1.8800  1.3938
15379TIP3   OH267627   6.316   3.874  14.861  0.6979 -0.2972  0.2708
15379TIP3    H167628   6.242   3.914  14.906  0.9498 -0.7101  1.0738
15379TIP3    H267629   6.277   3.826  14.788  0.2950  0.4746 -0.0241
15380TIP3   OH267630   2.058   2.987   5.952  0.4226  0.1484  0.0678
15380TIP3    H167631   2.137   2.991   5.898  1.2115  0.2176  1.2148
15380TIP3    H267632   2.037   3.079   5.969 -0.3288  0.1560 -0.8141
15381TIP3   OH267633   6.089   3.507  15.829  0.1646  0.4365 -0.7290
15381TIP3    H167634   6.071   3.601  15.841 -2.9798 -0.3559  1.3127
15381TIP3    H267635   6.122   3.479  15.914  0.3705 -0.4726 -1.1105
15382TIP3   OH267636   1.892   3.235   2.145 -0.1120  0.4180  0.2507
15382TIP3    H167637   1.893   3.304   2.078 -0.0950  0.3710  0.2030
15382TIP3    H267638   1.974   3.246   2.192  1.0497 -1.1471 -1.3512
15383TIP3   OH267639   6.688   0.362  11.611 -0.2447  0.3695  0.1581
15383TIP3    H167640   6.781   0.342  11.600 -0.2951  0.6131 -0.7298
15383TIP3    H267641   6.686   0.427  11.682  0.3540  1.1524 -0.5345
15384TIP3   OH267642   0.073   5.903  16.434 -0.7930 -1.1054 -0.1917
15384TIP3    H167643   0.162   5.936  16.425 -0.4381 -2.1546 -0.6359
15384TIP3    H267644   0.083   5.808  16.439 -1.6755 -1.1158  2.3003
15385TIP3   OH267645   5.236   5.189   1.861  0.0494 -0.2185  0.0768
15385TIP3    H167646   5.315   5.242   1.852 -0.0595 -0.0015  0.3714
15385TIP3    H267647   5.248   5.117   1.799  1.3383 -1.2388  1.4986
15386TIP3   OH267648   3.080   1.616  16.604  0.0395  0.2778  0.0115
15386TIP3    H167649   2.988   1.639  16.619  0.3642  2.5805 -1.2260
15386TIP3    H267650   3.128   1.662  16.674  0.3510 -0.0951  0.0488
15387TIP3   OH267651   0.128   3.575   5.094 -0.2777  0.0733  0.7011
15387TIP3    H167652   0.111   3.616   5.179  0.4870 -0.8549  1.3093
15387TIP3    H267653   0.197   3.628   5.055 -0.1358  0.0914  0.9696
15388TIP3   OH267654   3.276   0.749  11.166  0.4758 -0.2223 -0.4406
15388TIP3    H167655   3.245   0.727  11.078 -1.5628 -0.6521  0.3826
15388TIP3    H267656   3.326   0.672  11.193 -0.0047 -0.6287 -0.7001
15389TIP3   OH267657   3.744   2.948   5.680 -0.1436  0.9088 -0.1644
15389TIP3    H167658   3.653   2.961   5.653 -0.9059 -0.5566  1.5449
15389TIP3    H267659   3.769   2.864   5.641 -0.1755  0.3705  0.9615
15390TIP3   OH267660   3.406   4.879   2.115  0.5278  0.6671 -0.0945
15390TIP3    H167661   3.342   4.882   2.045  1.8517  1.1520 -1.3167
15390TIP3    H267662   3.355   4.886   2.196 -0.9878  0.2718 -1.0188
15391TIP3   OH267663   1.455   1.585   2.989  0.3232 -0.0522  0.2015
15391TIP3    H167664   1.506   1.639   2.928 -1.9094  1.3620 -0.4768
15391TIP3    H267665   1.419   1.648   3.052 -1.7076 -0.8441 -0.1641
15392TIP3   OH267666   5.171   3.724  11.731  0.0810  0.3393  0.2944
15392TIP3    H167667   5.166   3.633  11.702  0.0666  0.1968  0.7421
15392TIP3    H267668   5.241   3.763  11.678  1.0456 -0.2992  1.0900
15393TIP3   OH267669   2.961   1.669   5.786  0.5517  0.6352  0.4157
15393TIP3    H167670   3.003   1.669   5.872 -4.9104 -2.4459  3.3717
15393TIP3    H267671   2.901   1.743   5.788 -2.0804 -1.4221  0.7331
15394TIP3   OH267672   3.732   0.532   5.195 -0.6180 -0.0496 -0.4090
15394TIP3    H167673   3.651   0.482   5.198 -1.2843  1.0232 -0.1173
15394TIP3    H267674   3.705   0.621   5.174  0.6121  0.0630 -1.5970
15395TIP3   OH267675   0.726   1.183   5.375  0.2325 -0.0645 -0.7475
15395TIP3    H167676   0.806   1.194   5.325  0.8332 -0.6333  0.0901
15395TIP3    H267677   0.712   1.268   5.418  1.0664 -0.3646  0.1141
15396TIP3   OH267678   3.639   1.050   3.819 -0.8406  0.2685  0.4506
15396TIP3    H167679   3.652   1.145   3.821 -1.2220  0.3176  0.5666
15396TIP3    H267680   3.548   1.039   3.790  0.0028 -0.1026 -2.1378
15397TIP3   OH267681   0.063   5.517  12.529  0.5705  0.3582 -0.0199
15397TIP3    H167682   0.105   5.572  12.462 -2.3278  0.7174 -1.6158
15397TIP3    H267683   0.034   5.579  12.595  1.2762  0.2397  0.4151
15398TIP3   OH267684   4.805   4.855  14.070  0.2494  0.3275 -0.2512
15398TIP3    H167685   4.864   4.875  14.143  3.1614  2.4745 -3.0466
15398TIP3    H267686   4.831   4.767  14.042 -1.6138 -0.9672  1.8587
15399TIP3   OH267687   2.282   4.809  13.436 -0.6290  0.5532  0.0273
15399TIP3    H167688   2.239   4.724  13.445 -0.5941  0.4298 -0.9327
15399TIP3    H267689   2.218   4.872  13.470 -1.4504  0.3420 -1.0897
15400TIP3   OH267690   3.888   5.451  12.195 -0.4018  0.2757 -0.7453
15400TIP3    H167691   3.858   5.487  12.112 -0.6536  0.6538 -0.4942
15400TIP3    H267692   3.976   5.487  12.206 -0.6698  0.8715 -0.4720
15401TIP3   OH267693   4.167   2.855  17.014 -0.4005 -0.2604  0.1127
15401TIP3    H167694   4.150   2.795  17.087 -1.6500  0.4112  0.3999
15401TIP3    H267695   4.183   2.939  17.057  1.6476 -0.4432 -0.2699
15402TIP3   OH267696   5.399   3.244  13.415  0.5744 -0.2698  0.5337
15402TIP3    H167697   5.418   3.337  13.430 -0.8996  0.2955 -0.8702
15402TIP3    H267698   5.481   3.199  13.434  1.3755  1.3560  1.0153
15403TIP3   OH267699   6.054   0.396  14.303  0.4238  0.0545 -0.2993
15403TIP3    H167700   6.119   0.466  14.297 -0.0964  0.4670 -1.3158
15403TIP3    H267701   6.089   0.337  14.370  2.5030 -0.4019 -1.7252
15404TIP3   OH267702   1.997   4.029   5.781 -0.1585  0.2455 -0.6186
15404TIP3    H167703   1.953   4.000   5.861 -0.0200  1.7688  0.0318
15404TIP3    H267704   2.019   4.121   5.798  0.0274  0.5300 -2.3395
15405TIP3   OH267705   3.700   2.136   3.502 -0.4096 -0.1738 -0.1159
15405TIP3    H167706   3.626   2.078   3.487 -1.9201  2.1621 -2.2395
15405TIP3    H267707   3.759   2.119   3.428 -1.4779  1.8082 -1.4914
15406TIP3   OH267708   4.439   3.379   0.425 -0.2572 -0.4931 -0.1354
15406TIP3    H167709   4.349   3.412   0.420 -0.5699 -1.4079 -0.4674
15406TIP3    H267710   4.436   3.310   0.491  0.1675 -0.6412 -0.2696
15407TIP3   OH267711   2.903   0.531  16.751 -0.1705  0.0331  0.4597
15407TIP3    H167712   2.873   0.454  16.799 -1.4552  0.7104  0.7676
15407TIP3    H267713   2.825   0.562  16.705  0.6482  0.3979 -0.6889
15408TIP3   OH267714   0.048   2.086   0.039  0.0070  0.2306 -0.5266
15408TIP3    H167715   0.096   2.096  -0.043  0.7042  0.5506 -0.0805
15408TIP3    H267716   0.051   2.173   0.079  1.9633 -0.5394  1.0960
15409TIP3   OH267717   2.139   0.568   5.631 -0.2351  0.1109 -0.0679
15409TIP3    H167718   2.220   0.535   5.669 -0.1206 -0.6941 -0.9827
15409TIP3    H267719   2.159   0.659   5.608  0.7726 -0.4006 -1.2999
15410TIP3   OH267720   4.434   5.288   1.915  0.6439  0.1122 -0.4157
15410TIP3    H167721   4.372   5.228   1.875  0.6342  0.1672 -0.4828
15410TIP3    H267722   4.520   5.252   1.892  0.6393  0.2138 -0.5942
15411TIP3   OH267723   5.466   4.469   3.217  0.5858 -0.0971 -0.5066
15411TIP3    H167724   5.400   4.484   3.285  0.6083 -0.8830 -0.3155
15411TIP3    H267725   5.430   4.513   3.140 -1.5071 -2.9139 -1.1789
15412TIP3   OH267726   0.787   3.629  13.884  0.4829  0.0908  0.4316
15412TIP3    H167727   0.832   3.699  13.931  0.4799 -0.9823  2.0875
15412TIP3    H267728   0.695   3.640  13.907  0.1807  0.8688 -1.0857
15413TIP3   OH267729   4.400   1.255   1.682  0.6602  0.3262  0.3286
15413TIP3    H167730   4.377   1.347   1.671  1.6305  0.3396 -1.9628
15413TIP3    H267731   4.322   1.214   1.719  0.3973  2.1582  1.8316
15414TIP3   OH267732   0.552   1.185  16.427  0.0621 -0.2323  0.6213
15414TIP3    H167733   0.524   1.133  16.503  0.2736 -1.7529 -0.3342
15414TIP3    H267734   0.508   1.145  16.353  1.6999 -0.2069 -0.3762
15415TIP3   OH267735   0.466   6.117   2.289  0.2838 -0.4995  0.0065
15415TIP3    H167736   0.450   6.176   2.216  0.6031  0.0418  0.3746
15415TIP3    H267737   0.382   6.111   2.334  0.3462 -0.0464  0.1778
15416TIP3   OH267738   3.684   3.380   3.364  0.0526 -0.4548  0.5518
15416TIP3    H167739   3.660   3.329   3.442  0.7753  0.7539  1.5887
15416TIP3    H267740   3.758   3.434   3.393 -0.1463  0.5418 -0.7770
15417TIP3   OH267741   5.045   0.365  12.116  0.0686 -0.7254  0.3899
15417TIP3    H167742   5.125   0.415  12.102 -0.0791 -0.4702  0.4649
15417TIP3    H267743   5.064   0.279  12.076  0.0170 -0.3412 -0.4821
15418TIP3   OH267744   0.602   0.247   4.819  0.1455 -0.3145  0.2047
15418TIP3    H167745   0.588   0.185   4.890  0.2961 -0.1690  0.3622
15418TIP3    H267746   0.617   0.331   4.863  1.1442 -0.3919  0.0297
15419TIP3   OH267747   2.413   5.975  14.178  0.3198 -0.0439 -0.0472
15419TIP3    H167748   2.344   6.041  14.168  0.5369  0.1840 -0.0512
15419TIP3    H267749   2.488   6.023  14.212  0.1572 -0.4901  0.9475
15420TIP3   OH267750   2.132   3.468   6.260 -0.1446  0.0114  0.1307
15420TIP3    H167751   2.105   3.535   6.322  1.0012  0.7474 -0.1494
15420TIP3    H267752   2.168   3.398   6.314  0.4955  0.4872  0.3243
15421TIP3   OH267753   0.151   4.625  12.410 -0.1771 -0.1634 -0.5007
15421TIP3    H167754   0.167   4.712  12.374 -1.3828 -0.9051 -2.9626
15421TIP3    H267755   0.220   4.570  12.373  0.3077 -0.3636  0.6729
15422TIP3   OH267756   4.530   6.553  14.974  0.4574  0.2615 -0.4040
15422TIP3    H167757   4.523   6.532  15.067  0.5139 -0.9596 -0.6598
15422TIP3    H267758   4.440   6.550  14.942  0.6183 -1.4333 -0.8011
15423TIP3   OH267759   2.933   2.154  15.035  0.3235  0.1388  0.6304
15423TIP3    H167760   2.880   2.145  14.956 -0.2004  1.3966  0.8230
15423TIP3    H267761   2.898   2.232  15.079  1.5533  0.2967  1.3648
15424TIP3   OH267762   5.776   0.149  16.310  0.6149  0.1765 -0.0247
15424TIP3    H167763   5.792   0.174  16.219  2.4853 -1.7924 -0.2961
15424TIP3    H267764   5.858   0.173  16.355 -0.2149  0.9289  1.1050
15425TIP3   OH267765   3.490   2.089   4.172  0.2513  0.4529  0.4513
15425TIP3    H167766   3.475   2.154   4.105  0.2534  0.5284  0.5241
15425TIP3    H267767   3.458   2.129   4.253 -1.2299 -0.2597  0.2342
15426TIP3   OH267768   0.840   3.768  12.464  0.3500 -0.7087 -0.7575
15426TIP3    H167769   0.828   3.845  12.519 -0.2413 -1.2703 -0.0905
15426TIP3    H267770   0.915   3.722  12.501  0.2800 -0.8100 -0.7396
15427TIP3   OH267771   4.150   1.305   0.887  0.0465 -0.2519  0.3488
15427TIP3    H167772   4.200   1.229   0.858 -0.2318 -0.2963 -0.0254
15427TIP3    H267773   4.215   1.364   0.925  0.4656 -0.0596 -0.6434
15428TIP3   OH267774   5.960   5.817   5.829  0.2566  0.2677 -0.2640
15428TIP3    H167775   5.924   5.729   5.835  0.3261  0.2877  0.5687
15428TIP3    H267776   6.045   5.806   5.787 -0.1629  0.0669 -1.0750
15429TIP3   OH267777   0.905   4.565  13.911 -0.3513 -0.4140  0.1902
15429TIP3    H167778   0.901   4.626  13.838  0.7532 -0.3384  0.1739
15429TIP3    H267779   0.872   4.483  13.876  2.5618 -1.0624 -1.1566
15430TIP3   OH267780   5.169   6.210   3.649 -0.0050 -0.4507 -0.1153
15430TIP3    H167781   5.206   6.123   3.666 -1.8560 -1.3329 -0.5034
15430TIP3    H267782   5.089   6.193   3.599  0.1403  1.5411 -1.0893
15431TIP3   OH267783   5.937   0.985   4.374 -0.1340 -0.3027  0.3008
15431TIP3    H167784   5.944   1.076   4.404  1.8694 -0.2310 -0.3171
15431TIP3    H267785   6.020   0.945   4.398 -1.5010 -2.3884  1.7849
15432TIP3   OH267786   2.809   4.533   3.477  0.3381  0.2462 -0.1092
15432TIP3    H167787   2.769   4.569   3.557 -1.9844  1.5631 -1.8019
15432TIP3    H267788   2.752   4.563   3.406  2.9483  0.0284 -2.4018
15433TIP3   OH267789   3.727   3.616  15.092  0.0240 -0.1824  0.1265
15433TIP3    H167790   3.769   3.680  15.149  0.6173 -1.1027  0.7358
15433TIP3    H267791   3.681   3.557  15.152  0.0557 -0.7355 -0.3932
15434TIP3   OH267792   0.748   2.094  14.518 -0.4120 -0.0254 -0.3654
15434TIP3    H167793   0.813   2.164  14.526 -0.6710  0.0315  1.3455
15434TIP3    H267794   0.671   2.128  14.563 -1.4449 -0.3500 -1.8371
15435TIP3   OH267795   5.589   2.166  13.866  0.2629 -0.0023 -0.3584
15435TIP3    H167796   5.530   2.241  13.854  1.1489  0.9123  0.8768
15435TIP3    H267797   5.675   2.198  13.838  0.2073 -1.2980 -2.0554
15436TIP3   OH267798   3.262   6.712   2.355 -0.4944 -0.4391 -0.0391
15436TIP3    H167799   3.215   6.772   2.412 -0.3140  0.6568 -1.0039
15436TIP3    H267800   3.318   6.661   2.413  0.5862  1.4890  0.6523
15437TIP3   OH267801   3.388   3.204  15.226  0.3309 -0.7731  0.7362
15437TIP3    H167802   3.381   3.125  15.173 -1.6478  0.3027 -0.6777
15437TIP3    H267803   3.341   3.182  15.307  1.8825 -1.8347  1.3735
15438TIP3   OH267804   5.921   2.111   3.408  0.3292  0.7360  0.1281
15438TIP3    H167805   5.971   2.161   3.472  0.4699  0.7405  0.0143
15438TIP3    H267806   5.966   2.125   3.325  1.7459 -1.4262  0.4733
15439TIP3   OH267807   1.928   3.443  16.921 -0.3662 -0.5249  0.1858
15439TIP3    H167808   1.859   3.387  16.957 -0.9900 -0.0821 -0.3028
15439TIP3    H267809   1.965   3.488  16.997  0.3338 -1.8040  0.6137
15440TIP3   OH267810   5.056   0.422  11.506  0.5332 -0.4491 -0.1319
15440TIP3    H167811   5.120   0.375  11.452  1.0222 -0.9726  0.8920
15440TIP3    H267812   5.075   0.393  11.595 -0.2440  0.4454  0.3210
15441TIP3   OH267813   3.113   6.077  12.270  0.0665  0.0368 -0.0012
15441TIP3    H167814   3.038   6.101  12.216  0.5486  0.1624 -0.6176
15441TIP3    H267815   3.103   6.129  12.350 -0.0950  0.6110 -0.3980
15442TIP3   OH267816   0.609   1.340  11.037 -0.0504 -0.3891  0.2099
15442TIP3    H167817   0.578   1.417  10.988  2.2430  0.6210  0.2481
15442TIP3    H267818   0.663   1.292  10.974 -0.9810 -1.6637  0.3693
15443TIP3   OH267819   0.956   5.069   0.527 -0.2769  0.3235  0.4190
15443TIP3    H167820   0.871   5.090   0.564 -0.1495 -0.7947  1.3951
15443TIP3    H267821   1.019   5.104   0.590 -0.0299  0.6453 -0.0087
15444TIP3   OH267822   5.491   1.170   5.083  0.5004 -0.2586  0.0461
15444TIP3    H167823   5.434   1.231   5.130  1.1692 -0.4051  1.0468
15444TIP3    H267824   5.578   1.187   5.118  1.0407 -0.2379 -1.2816
15445TIP3   OH267825   2.078   2.412  14.533 -0.0271  0.0628 -0.0735
15445TIP3    H167826   2.076   2.394  14.627  1.1843 -0.2798 -0.1018
15445TIP3    H267827   2.028   2.341  14.493  0.4737 -0.4523  0.2145
15446TIP3   OH267828   6.468   1.273   4.277 -0.1207 -0.1585 -0.4055
15446TIP3    H167829   6.547   1.297   4.326 -0.2957 -0.5110  0.0507
15446TIP3    H267830   6.497   1.268   4.186  0.0760  1.0944 -0.4254
15447TIP3   OH267831   5.864   4.292  13.927  0.1722  0.0106  0.0919
15447TIP3    H167832   5.820   4.337  13.999  1.0458  1.0937 -0.0302
15447TIP3    H267833   5.949   4.336  13.920  1.1481 -1.8332  0.1212
15448TIP3   OH267834   4.054   3.621  14.419 -0.5655 -0.3122  0.2719
15448TIP3    H167835   3.979   3.595  14.365  0.5907 -3.0756 -0.1065
15448TIP3    H267836   4.053   3.717  14.417 -4.8930 -0.2301  1.4464
15449TIP3   OH267837   0.421   1.226  11.811 -0.1727 -0.6345 -0.0569
15449TIP3    H167838   0.401   1.137  11.842 -0.8252 -1.0215 -1.5453
15449TIP3    H267839   0.366   1.283  11.865  1.0501 -1.0288  1.6506
15450TIP3   OH267840   1.099   1.510   0.849  0.4964 -0.7474  0.2787
15450TIP3    H167841   1.018   1.557   0.867  1.3358  0.2522  1.5743
15450TIP3    H267842   1.091   1.429   0.900  0.4601 -0.4913  0.6840
15451TIP3   OH267843   6.807   6.278   5.158  0.4645  0.0692  0.0388
15451TIP3    H167844   6.755   6.303   5.234  0.8511  3.5860 -0.8123
15451TIP3    H267845   6.749   6.290   5.083  1.3292  0.4515 -0.5744
15452TIP3   OH267846   0.466   4.819   2.591  0.1476  0.2859 -0.0222
15452TIP3    H167847   0.530   4.868   2.540 -1.4157  0.5370 -1.8057
15452TIP3    H267848   0.385   4.825   2.540 -1.6616  1.1348  2.8169
15453TIP3   OH267849   3.628   4.347   1.689  0.4884  0.1428 -0.1241
15453TIP3    H167850   3.593   4.308   1.769  0.0263 -0.4440 -0.6055
15453TIP3    H267851   3.691   4.412   1.719 -0.0891  0.3092  0.7261
15454TIP3   OH267852   4.534   3.179   5.140  0.4951  0.2739 -0.5561
15454TIP3    H167853   4.504   3.119   5.071 -1.4624 -1.5747  1.8141
15454TIP3    H267854   4.581   3.123   5.202 -0.3841  1.3569  1.1202
15455TIP3   OH267855   2.352   6.354  12.583 -0.1180  0.4793  0.2112
15455TIP3    H167856   2.425   6.402  12.545 -0.0864  0.5862  0.4057
15455TIP3    H267857   2.331   6.402  12.663 -0.1106  0.1856  0.3862
15456TIP3   OH267858   6.545   2.737   2.141  0.1049 -0.3563  0.9060
15456TIP3    H167859   6.610   2.770   2.203  0.6842  0.3022 -0.0335
15456TIP3    H267860   6.595   2.724   2.060 -1.1288  1.0265 -0.0845
15457TIP3   OH267861   6.333   2.472  15.223  0.5090 -0.5433 -0.1665
15457TIP3    H167862   6.414   2.474  15.275  0.3396  1.8735  0.0597
15457TIP3    H267863   6.357   2.516  15.142 -0.1533 -1.2854 -0.7628
15458TIP3   OH267864   2.257   3.605   4.571 -0.1222  0.0614  0.7057
15458TIP3    H167865   2.207   3.602   4.653 -1.2556  1.1088  0.0699
15458TIP3    H267866   2.191   3.611   4.502  0.7825 -1.8713 -0.3817
15459TIP3   OH267867   4.532   0.779  12.546 -0.5357  0.1270  0.5092
15459TIP3    H167868   4.551   0.757  12.637 -1.2708  0.3270  0.7183
15459TIP3    H267869   4.618   0.784  12.504 -0.1990 -0.1159  1.1531
15460TIP3   OH267870   3.962   0.625   1.443  0.1841  0.1694  0.5116
15460TIP3    H167871   3.905   0.606   1.369  0.7780 -1.3990  0.4348
15460TIP3    H267872   3.923   0.577   1.516  1.6670 -1.3168  0.3461
15461TIP3   OH267873   1.869   1.027   1.086  0.1392  0.4681  0.5379
15461TIP3    H167874   1.815   0.958   1.047 -0.3599  1.0801  0.1305
15461TIP3    H267875   1.820   1.107   1.070  1.6703  1.1698 -0.7663
15462TIP3   OH267876   3.994   2.916   2.564 -0.1968 -0.3289 -0.4143
15462TIP3    H167877   4.080   2.911   2.523  0.7924  0.2876  1.4842
15462TIP3    H267878   3.945   2.842   2.529  1.2885 -0.9805 -1.1301
15463TIP3   OH267879   0.350   6.430   0.361 -0.3114  0.0511  0.3840
15463TIP3    H167880   0.407   6.386   0.425 -0.0965  2.0850  1.6289
15463TIP3    H267881   0.395   6.511   0.341 -1.4758  0.4452 -0.6859
15464TIP3   OH267882   6.257   6.182  16.705  0.2600  1.1694 -0.3240
15464TIP3    H167883   6.336   6.231  16.729  0.4039  0.3695  0.9290
15464TIP3    H267884   6.273   6.154  16.615  1.4533  0.9830 -0.0765
15465TIP3   OH267885   4.574   5.220  16.627  0.2121  0.0881 -0.0293
15465TIP3    H167886   4.646   5.158  16.617 -0.2240 -0.1816 -1.8418
15465TIP3    H267887   4.608   5.303  16.594  0.1583  0.3065  0.4685
15466TIP3   OH267888   3.608   6.497   0.523 -0.1800  0.0875 -0.1678
15466TIP3    H167889   3.620   6.422   0.581 -1.8634  0.7844  1.1197
15466TIP3    H267890   3.680   6.556   0.546 -1.2465  0.6856  1.7752
15467TIP3   OH267891   3.425   5.546  11.384 -0.1483  0.8907 -0.7983
15467TIP3    H167892   3.491   5.607  11.417  0.0719  1.1221 -1.6541
15467TIP3    H267893   3.467   5.460  11.391 -0.0447  0.9533 -0.6288
15468TIP3   OH267894   3.208   2.988   0.864 -0.2065  0.4120 -0.4470
15468TIP3    H167895   3.189   2.997   0.770  0.4103 -2.7794 -0.9280
15468TIP3    H267896   3.123   2.974   0.904 -0.5969  2.8601 -0.3486
15469TIP3   OH267897   1.898   6.178   3.032  0.6325  0.4097  0.5837
15469TIP3    H167898   1.931   6.107   2.977  0.8051  0.3342  0.7851
15469TIP3    H267899   1.945   6.169   3.114  0.2568  0.4218  0.8037
15470TIP3   OH267900   4.714   0.917   0.694  0.5997  0.2616  0.1130
15470TIP3    H167901   4.706   0.961   0.779  1.1742  1.4935 -0.4658
15470TIP3    H267902   4.652   0.844   0.699 -1.3871  1.9551  0.5544
15471TIP3   OH267903   5.922   3.184  14.165  0.6337  0.0537 -0.2491
15471TIP3    H167904   5.943   3.221  14.251 -0.2395  1.1840 -0.5079
15471TIP3    H267905   5.995   3.212  14.109  1.4554 -1.0982  0.2187
15472TIP3   OH267906   0.754   3.171  12.735  0.0273 -0.0165  0.3069
15472TIP3    H167907   0.709   3.089  12.756 -0.8481  0.2426 -0.5499
15472TIP3    H267908   0.844   3.144  12.718  0.3965 -0.4514  2.6992
15473TIP3   OH267909   1.069   6.289   0.852 -0.3136  0.0616 -0.2641
15473TIP3    H167910   1.057   6.232   0.776  0.5204  0.1888 -0.4978
15473TIP3    H267911   1.104   6.232   0.920  0.6380  0.3203 -0.5366
15474TIP3   OH267912   5.119   4.900   4.457  0.5695  0.5365  0.3542
15474TIP3    H167913   5.154   4.812   4.442  0.3798  0.5225 -0.0223
15474TIP3    H267914   5.061   4.890   4.532 -0.6893 -0.0004 -0.6731
15475TIP3   OH267915   6.638   0.122  15.691 -0.2714  0.2943 -0.0599
15475TIP3    H167916   6.694   0.052  15.724 -1.4933 -0.2653  0.8394
15475TIP3    H267917   6.688   0.202  15.708  0.9063 -0.3026 -0.6274
15476TIP3   OH267918   1.180   0.233   5.699 -0.4582 -0.4237 -0.1015
15476TIP3    H167919   1.200   0.315   5.654  1.9935 -1.9417 -1.8871
15476TIP3    H267920   1.133   0.260   5.778 -0.8047  2.5975 -1.2797
15477TIP3   OH267921   6.313   2.194   5.730  0.6720  0.2331  0.8674
15477TIP3    H167922   6.228   2.186   5.775 -0.3443  0.6703 -0.9188
15477TIP3    H267923   6.317   2.117   5.674  0.8241  0.9327 -0.0864
15478TIP3   OH267924   0.450   6.710   5.523 -1.0740  0.1994 -0.0468
15478TIP3    H167925   0.416   6.779   5.579 -2.0859 -0.1921 -0.1497
15478TIP3    H267926   0.490   6.755   5.450 -0.2531  0.7025  0.7103
15479TIP3   OH267927   5.272   0.760   5.609  0.1548  0.1714 -0.2524
15479TIP3    H167928   5.208   0.703   5.652 -0.9437  1.5349 -0.0439
15479TIP3    H267929   5.267   0.735   5.517  0.4375 -0.7699 -0.0258
15480TIP3   OH267930   5.276   4.145  10.514  0.0913  0.2068 -0.1254
15480TIP3    H167931   5.316   4.230  10.533 -0.5640  0.9927 -2.1305
15480TIP3    H267932   5.256   4.149  10.421  0.9522 -2.5427 -0.4491
15481TIP3   OH267933   2.062   0.191   2.937  0.6437  0.1946 -0.5159
15481TIP3    H167934   2.098   0.137   3.008  1.9636 -0.4708 -1.6752
15481TIP3    H267935   2.125   0.263   2.928  0.5441  0.2092 -1.0951
15482TIP3   OH267936   2.040   0.046   2.498  0.1411 -0.3067  0.4822
15482TIP3    H167937   2.067  -0.017   2.564  0.8336  1.2885  1.7723
15482TIP3    H267938   2.116   0.057   2.442 -0.4643 -1.7013 -0.6521
15483TIP3   OH267939   3.926   2.602   4.119 -0.1791 -0.0140 -0.5595
15483TIP3    H167940   3.924   2.525   4.176 -0.1947  1.6812  1.7843
15483TIP3    H267941   3.872   2.667   4.163  0.3886  1.5918 -2.1570
15484TIP3   OH267942   2.798   1.871   5.838 -0.3090 -0.3636  0.4835
15484TIP3    H167943   2.703   1.882   5.839 -0.1059  1.5968  0.4668
15484TIP3    H267944   2.832   1.946   5.887  1.1873 -1.7099  1.5870
15485TIP3   OH267945   3.560   2.657  11.118 -0.1667 -0.0783  0.0898
15485TIP3    H167946   3.597   2.682  11.033 -1.4133 -0.2149 -0.5011
15485TIP3    H267947   3.480   2.709  11.125  0.1444  0.2554  1.3855
15486TIP3   OH267948   4.742   1.489  16.017  0.0528  0.0655  0.0833
15486TIP3    H167949   4.825   1.442  16.003  0.0267  0.0911 -0.1542
15486TIP3    H267950   4.675   1.430  15.983  0.2061  1.2374 -2.3933
15487TIP3   OH267951   4.371   3.925  12.090  0.1539 -0.4141  0.2780
15487TIP3    H167952   4.456   3.941  12.049 -0.2632  0.3499 -0.2979
15487TIP3    H267953   4.376   3.970  12.174  0.6320 -1.1126  0.6329
15488TIP3   OH267954   2.221   5.319  14.028 -0.0856 -0.5225  0.1176
15488TIP3    H167955   2.151   5.375  14.062  0.4781 -0.1104  0.6006
15488TIP3    H267956   2.183   5.230  14.030 -1.5058 -0.0077 -2.0204
15489TIP3   OH267957   4.827   5.914  13.173 -0.8336 -0.3762  0.1108
15489TIP3    H167958   4.749   5.952  13.132 -0.1066 -0.6242 -1.5220
15489TIP3    H267959   4.841   5.968  13.251 -1.4593  0.9401 -0.6742
15490TIP3   OH267960   4.745   4.623  13.025 -0.7226 -0.4451  0.0851
15490TIP3    H167961   4.739   4.550  13.087  1.1535 -0.2380  0.5180
15490TIP3    H267962   4.829   4.611  12.982 -1.3858  0.2276 -1.4307
15491TIP3   OH267963   2.539   5.122  15.422 -0.1169 -0.1400  0.0831
15491TIP3    H167964   2.594   5.101  15.497 -0.0579  0.8455  0.3284
15491TIP3    H267965   2.523   5.216  15.430  1.7256  0.4277 -2.3403
15492TIP3   OH267966   3.819   0.069  12.674 -0.1589 -0.0668 -0.2310
15492TIP3    H167967   3.889   0.079  12.738 -2.4167  1.5214  2.1166
15492TIP3    H267968   3.819   0.152  12.625 -0.4790  0.0104 -0.1063
15493TIP3   OH267969   4.433   6.356   6.063  0.3465  0.1153 -0.6776
15493TIP3    H167970   4.490   6.330   6.135  1.3525 -0.5484 -1.7028
15493TIP3    H267971   4.429   6.279   6.007 -0.9862  0.3989 -0.9955
15494TIP3   OH267972   1.179   3.108  13.308 -0.2072 -0.0365  0.0075
15494TIP3    H167973   1.105   3.092  13.249 -1.0453  0.1336  1.0037
15494TIP3    H267974   1.188   3.204  13.308  1.0215 -0.1213 -1.3151
15495TIP3   OH267975   6.403   5.157   4.309  0.4256  0.0355  0.0831
15495TIP3    H167976   6.451   5.213   4.248  0.4133  0.6780  0.6512
15495TIP3    H267977   6.420   5.068   4.279  1.3970  0.2912 -0.1437
15496TIP3   OH267978   3.799   0.806  14.182 -0.0117  0.4098 -0.4861
15496TIP3    H167979   3.865   0.767  14.240 -2.0305 -1.7831  0.4425
15496TIP3    H267980   3.761   0.877  14.233  0.9144  1.0204 -0.6372
15497TIP3   OH267981   0.157   3.506   1.983 -0.0345 -0.3158  0.2924
15497TIP3    H167982   0.228   3.469   2.035  0.6397 -0.5522 -0.7775
15497TIP3    H267983   0.198   3.531   1.901 -1.4239 -1.6316 -0.8400
15498TIP3   OH267984   5.509   0.584  15.631 -0.0504  0.6642 -0.1693
15498TIP3    H167985   5.506   0.527  15.555 -1.2170  1.2765 -0.6025
15498TIP3    H267986   5.535   0.669  15.597  1.2199  0.5219  0.4028
15499TIP3   OH267987   6.270   0.649  11.289  0.6551  0.3201  0.3778
15499TIP3    H167988   6.214   0.682  11.218 -1.1542 -0.2358  1.5152
15499TIP3    H267989   6.319   0.578  11.248 -0.3028  0.0612 -0.3582
15500TIP3   OH267990   4.109   4.379   4.801  0.8990  0.5440 -0.4854
15500TIP3    H167991   4.202   4.371   4.781  1.1494 -1.6666  1.4256
15500TIP3    H267992   4.105   4.379   4.897 -1.1563 -0.5669 -0.5493
15501TIP3   OH267993   4.904   4.596  14.730 -0.0146 -0.2076 -0.2346
15501TIP3    H167994   4.907   4.691  14.740 -0.2238  0.3238 -4.4550
15501TIP3    H267995   4.812   4.573  14.742  0.2231 -0.0795  2.0133
15502TIP3   OH267996   6.664   6.729  11.567 -0.5352  0.5278  0.4050
15502TIP3    H167997   6.662   6.756  11.659  0.9266  0.6546  0.4119
15502TIP3    H267998   6.578   6.753  11.534 -1.0978  0.4329  1.7572
15503TIP3   OH267999   2.457   4.158  16.821 -0.1039 -0.7042 -0.3182
15503TIP3    H168000   2.410   4.079  16.793 -0.5072 -1.1962  1.6753
15503TIP3    H268001   2.391   4.227  16.821  0.0674 -0.5300 -1.2709
15504TIP3   OH268002   6.620   4.534   5.961 -0.5898  0.1658 -0.2768
15504TIP3    H168003   6.682   4.601   5.990 -0.2199 -0.6768  0.8986
15504TIP3    H268004   6.599   4.558   5.870  1.3603  0.5215 -0.6466
15505TIP3   OH268005   2.039   4.329   1.885 -0.6514 -0.0393  0.2452
15505TIP3    H168006   1.988   4.262   1.840 -2.1504 -0.1058  1.9934
15505TIP3    H268007   1.975   4.385   1.927  0.6751  0.2661  1.9465
15506TIP3   OH268008   3.067   5.692  12.755  0.7238 -0.6794  0.1687
15506TIP3    H168009   3.154   5.724  12.778  0.5668 -1.1508  1.4752
15506TIP3    H268010   3.031   5.659  12.838 -1.4547  1.2821  0.0428
15507TIP3   OH268011   3.114   5.185  15.666 -0.2595 -0.1545  0.1173
15507TIP3    H168012   3.116   5.117  15.599  0.6147 -1.0370  1.0158
15507TIP3    H268013   3.188   5.165  15.723  0.8602  2.3914 -0.3792
15508TIP3   OH268014   0.625   3.467  11.712 -0.2843  0.0762  0.4284
15508TIP3    H168015   0.617   3.471  11.617 -0.7471 -0.4153  0.4406
15508TIP3    H268016   0.693   3.531  11.734  0.8564 -0.8375 -0.3583
15509TIP3   OH268017   5.282   5.859  12.048  0.2097  0.1608 -0.1967
15509TIP3    H168018   5.236   5.879  11.967  0.8047 -0.3168 -0.6605
15509TIP3    H268019   5.243   5.918  12.113 -0.9058 -0.1123 -0.6175
15510TIP3   OH268020   3.633   3.639   4.457  0.4238  0.1741  0.4233
15510TIP3    H168021   3.649   3.545   4.461 -1.1818 -0.0956  0.8498
15510TIP3    H268022   3.561   3.654   4.518 -2.3400  0.9845 -2.9009
15511TIP3   OH268023   1.148   6.148  16.720  0.7501  0.7112  0.5483
15511TIP3    H168024   1.243   6.149  16.712  0.6694  0.3342 -0.4841
15511TIP3    H268025   1.128   6.061  16.756  0.8630  1.1609  1.7187
15512TIP3   OH268026   1.438   1.669   4.355 -0.3737 -0.0709  0.3205
15512TIP3    H168027   1.391   1.719   4.288 -0.0811  0.5847  0.6020
15512TIP3    H268028   1.495   1.733   4.398  1.0316 -0.9146 -0.2295
15513TIP3   OH268029   0.757   5.285  15.431 -0.0942  0.4490 -0.0312
15513TIP3    H168030   0.726   5.226  15.362 -0.7210 -0.4050  0.9552
15513TIP3    H268031   0.705   5.261  15.508  2.7789 -0.8074  1.6147
15514TIP3   OH268032   1.847   5.532   1.608  0.1991  0.2456  0.3967
15514TIP3    H168033   1.890   5.612   1.580 -1.2597  1.0149  0.3018
15514TIP3    H268034   1.817   5.550   1.697  0.8195 -0.5890  0.7900
15515TIP3   OH268035   5.270   5.759  15.472  0.3686  0.2604 -0.8305
15515TIP3    H168036   5.307   5.674  15.448 -0.8115 -1.2105  2.2055
15515TIP3    H268037   5.343   5.808  15.509  0.1131 -1.3456  1.9607
15516TIP3   OH268038   6.517   2.832  15.931  0.1786  0.0063 -0.2072
15516TIP3    H168039   6.581   2.879  15.984  1.7291  0.2622 -2.2537
15516TIP3    H268040   6.569   2.778  15.871 -1.5542 -2.0978  0.1221
15517TIP3   OH268041   6.801   6.760   5.508  0.2838  0.2584 -0.2414
15517TIP3    H168042   6.853   6.837   5.486 -0.0702  0.6065  0.1143
15517TIP3    H268043   6.710   6.789   5.498  0.1524 -0.2348 -0.5067
15518TIP3   OH268044   2.969   2.387  15.742  0.4423  0.2941 -0.2631
15518TIP3    H168045   2.885   2.398  15.697  0.7885 -1.3515 -1.3540
15518TIP3    H268046   2.966   2.298  15.775  1.2498  0.6586  0.8022
15519TIP3   OH268047   4.623   0.833   4.438 -0.2219 -0.2501 -0.1977
15519TIP3    H168048   4.539   0.880   4.434 -0.4283 -0.4649  1.3388
15519TIP3    H268049   4.618   0.769   4.366 -0.8928  0.5065 -0.8350
15520TIP3   OH268050   6.582   6.204   2.937  0.0490 -0.5149  0.5922
15520TIP3    H168051   6.599   6.125   2.990  0.3279 -0.9963 -0.2064
15520TIP3    H268052   6.667   6.247   2.931  0.3964 -1.3764 -0.9195
15521TIP3   OH268053   3.742   1.849  16.270 -0.1733  0.0679 -0.0806
15521TIP3    H168054   3.792   1.778  16.308  0.2801 -0.8681 -2.3560
15521TIP3    H268055   3.653   1.836  16.303 -0.0843 -1.5168 -0.4235
15522TIP3   OH268056   2.972   2.790   3.147 -0.1437  0.4312  0.2570
15522TIP3    H168057   2.984   2.697   3.163 -0.3608  0.3703  0.0660
15522TIP3    H268058   2.887   2.796   3.103  0.1326  0.6601 -0.2568
15523TIP3   OH268059   5.850   4.691   2.558 -0.1635 -0.1402  0.0827
15523TIP3    H168060   5.932   4.688   2.508 -1.2627 -0.8485 -1.7084
15523TIP3    H268061   5.865   4.632   2.632  1.3899  0.7269  0.4791
15524TIP3   OH268062   3.504   5.150   4.007 -0.4701  0.2915 -0.0176
15524TIP3    H168063   3.530   5.113   3.923 -1.9065  2.3176 -1.4176
15524TIP3    H268064   3.580   5.138   4.064  1.2459  0.5813 -2.1842
15525TIP3   OH268065   1.836   1.554  12.545  0.8798 -0.2066 -0.0068
15525TIP3    H168066   1.783   1.574  12.622 -1.8704  0.9968 -2.1152
15525TIP3    H268067   1.913   1.610  12.553  0.0957  0.6951  1.3101
15526TIP3   OH268068   1.163   5.823   1.599  0.0846  0.5123  0.0778
15526TIP3    H168069   1.219   5.850   1.526 -0.2088 -0.4545 -0.5132
15526TIP3    H268070   1.076   5.853   1.576  0.2085  1.3289  0.6357
15527TIP3   OH268071   4.051   5.805  16.408  0.0497  0.3058  0.4442
15527TIP3    H168072   4.074   5.712  16.400 -1.1623  0.0654 -0.3112
15527TIP3    H268073   4.063   5.840  16.319  0.3397  0.8347  0.6901
15528TIP3   OH268074   4.144   5.190   0.984 -0.0991 -0.5341  0.0734
15528TIP3    H168075   4.118   5.114   1.035 -0.4826  0.4814  1.4120
15528TIP3    H268076   4.062   5.237   0.967 -0.0272 -1.0330 -1.7876
15529TIP3   OH268077   1.741   0.921   5.032  0.0800 -0.1808 -0.1796
15529TIP3    H168078   1.733   0.887   5.121  1.5258 -2.3058 -0.8274
15529TIP3    H268079   1.835   0.940   5.022 -0.2553  1.2587 -0.8437
15530TIP3   OH268080   4.627   5.781  11.451  0.7586 -0.3832  0.5720
15530TIP3    H168081   4.600   5.742  11.534 -0.0452  1.3742  1.1629
15530TIP3    H268082   4.592   5.870  11.454  0.8691 -0.2446 -1.5847
15531TIP3   OH268083   1.174   1.544  13.386 -0.3317  0.3732 -0.2581
15531TIP3    H168084   1.254   1.559  13.336 -0.9432 -0.8110 -1.6307
15531TIP3    H268085   1.197   1.477  13.450 -0.6419 -1.2266 -1.7780
15532TIP3   OH268086   6.154   4.123  13.993 -0.2243 -0.0296  0.2382
15532TIP3    H168087   6.137   4.191  13.928 -0.2892 -1.7787 -1.6349
15532TIP3    H268088   6.230   4.153  14.041 -0.3966  1.4776 -0.4171
15533TIP3   OH268089   3.117   0.510   5.860  0.3422  0.2562  0.3446
15533TIP3    H168090   3.132   0.553   5.944  1.0741 -0.8783  0.8129
15533TIP3    H268091   3.063   0.571   5.810  2.8480  2.5316  0.3080
15534TIP3   OH268092   4.578   5.426  11.307 -0.2748  0.0053  0.5035
15534TIP3    H168093   4.541   5.467  11.385 -1.3014  0.8963 -0.4036
15534TIP3    H268094   4.594   5.500  11.247 -2.3548 -0.8848 -1.2498
15535TIP3   OH268095   3.778   1.080  11.136 -0.0164 -0.5106 -0.2648
15535TIP3    H168096   3.828   1.145  11.087  0.2131 -0.7293 -0.3205
15535TIP3    H268097   3.687   1.107  11.126  0.1719  0.6541  0.9215
15536TIP3   OH268098   5.850   4.314  11.269 -0.9968 -0.1413  0.3409
15536TIP3    H168099   5.911   4.373  11.314 -0.7115 -0.5436  0.4871
15536TIP3    H268100   5.822   4.252  11.337 -1.6139  0.0725  0.2872
15537TIP3   OH268101   6.801   4.564   1.387  0.1783  0.5604 -0.1335
15537TIP3    H168102   6.862   4.634   1.366  0.3021  0.6647  0.5521
15537TIP3    H268103   6.822   4.539   1.477 -0.0698 -0.1444 -0.2617
15538TIP3   OH268104   6.461   2.003  16.351  0.2201 -0.0421  0.1536
15538TIP3    H168105   6.452   2.055  16.431  1.5773 -0.7462  0.7886
15538TIP3    H268106   6.376   2.010  16.307  0.2966  2.5077  0.3398
15539TIP3   OH268107   4.542   6.199  17.100 -0.0915 -0.1998 -0.2287
15539TIP3    H168108   4.521   6.187  17.193  2.3635  3.1353  0.8740
15539TIP3    H268109   4.620   6.146  17.086 -0.4700 -0.7146 -0.4044
15540TIP3   OH268110   1.308   3.918  11.257 -0.5535 -0.6112 -0.4913
15540TIP3    H168111   1.342   3.897  11.344  0.2416  0.9075 -0.4135
15540TIP3    H268112   1.289   3.833  11.217 -1.8682 -1.2898  1.5221
15541TIP3   OH268113   1.149   0.200  16.033  0.5663 -0.1392  0.0570
15541TIP3    H168114   1.244   0.191  16.024  0.8981  0.2768  2.6269
15541TIP3    H268115   1.134   0.190  16.127 -2.0613 -1.1809 -0.4405
15542TIP3   OH268116   6.332   1.606   4.197  0.4345  0.6242 -0.5002
15542TIP3    H168117   6.316   1.576   4.108 -1.3323 -0.8580  0.2832
15542TIP3    H268118   6.363   1.528   4.243 -1.8740  0.5111  0.9651
15543TIP3   OH268119   3.704   3.263  14.638  0.1863 -0.0675  0.1913
15543TIP3    H168120   3.650   3.187  14.659 -0.3220  0.0579 -0.6374
15543TIP3    H268121   3.703   3.268  14.542 -0.3764  1.3926  0.2625
15544TIP3   OH268122   3.475   2.286   3.976 -0.5035 -0.5933  0.2399
15544TIP3    H168123   3.546   2.347   3.995 -0.9287 -0.2392  0.6990
15544TIP3    H268124   3.516   2.217   3.924 -0.0360  0.1180 -0.3437
15545TIP3   OH268125   1.333   3.259   3.449 -0.3507 -0.2063  0.5644
15545TIP3    H168126   1.269   3.248   3.379  1.6022  1.8022 -1.6451
15545TIP3    H268127   1.324   3.350   3.476  0.6102 -0.2894  1.1868
15546TIP3   OH268128   3.154   0.405  12.243 -0.4295 -0.3223 -0.3629
15546TIP3    H168129   3.091   0.333  12.246  0.4823 -1.0882  0.4359
15546TIP3    H268130   3.154   0.441  12.331  1.1461 -1.0924 -0.0459
15547TIP3   OH268131   2.117   0.364  13.584  0.2628 -0.2761 -0.4879
15547TIP3    H168132   2.082   0.429  13.523  1.5957 -0.4683 -1.4881
15547TIP3    H268133   2.212   0.371  13.573  0.4999 -0.5534  1.3293
15548TIP3   OH268134   0.067   4.359  13.000  0.1854 -0.0976  0.5157
15548TIP3    H168135   0.093   4.400  13.082  0.7742  0.3534  0.1071
15548TIP3    H268136   0.022   4.429  12.952  1.3681  0.1270 -0.2671
15549TIP3   OH268137   2.229   3.793  14.564 -0.4481 -0.1467 -0.8504
15549TIP3    H168138   2.293   3.852  14.604 -0.2592 -0.3035 -0.9222
15549TIP3    H268139   2.281   3.736  14.508 -0.6269 -0.4069 -0.7488
15550TIP3   OH268140   5.878   6.538   2.311  0.3167 -0.0941  0.7335
15550TIP3    H168141   5.941   6.569   2.376 -1.3015  0.8956  1.8745
15550TIP3    H268142   5.793   6.542   2.356 -0.6779 -0.5310 -1.0545
15551TIP3   OH268143   3.497   1.769   6.081  0.3900  0.1921  0.0477
15551TIP3    H168144   3.432   1.825   6.124 -0.1268 -0.0718 -0.3674
15551TIP3    H268145   3.460   1.681   6.087 -0.1707  0.2756 -1.7769
15552TIP3   OH268146   1.231   4.064   5.140 -0.3311  0.2473  0.0204
15552TIP3    H168147   1.318   4.060   5.102  0.2916 -1.3544  1.5438
15552TIP3    H268148   1.224   4.154   5.174  0.3625  0.6593 -0.9168
15553TIP3   OH268149   0.475   3.183   0.059  0.7189  0.7770  0.1949
15553TIP3    H168150   0.552   3.181   0.002 -0.0770  0.8805 -0.8937
15553TIP3    H268151   0.419   3.250   0.021 -1.3511 -1.4852 -0.9457
15554TIP3   OH268152   1.595   5.578  11.859 -0.1973  0.0458  0.0388
15554TIP3    H168153   1.516   5.548  11.814 -1.5185  0.4650  2.0326
15554TIP3    H268154   1.580   5.557  11.951  2.3864 -0.6355  0.3675
15555TIP3   OH268155   4.107   1.565   5.983  0.5527  0.2522  0.1017
15555TIP3    H168156   4.030   1.574   6.041 -0.6084  1.2741 -1.5585
15555TIP3    H268157   4.071   1.570   5.895  2.7217  2.3828 -0.7014
15556TIP3   OH268158   5.483   4.006   5.066  0.2434 -0.2017 -0.1478
15556TIP3    H168159   5.420   3.975   5.131  1.4882 -0.2188  1.0817
15556TIP3    H268160   5.430   4.032   4.991 -1.2169 -0.1973  0.8704
15557TIP3   OH268161   4.454   0.416   5.775 -0.3039  0.2281 -0.7693
15557TIP3    H168162   4.369   0.450   5.804 -0.1868  0.7103 -0.9943
15557TIP3    H268163   4.471   0.461   5.693 -0.5665 -1.0429 -1.5342
15558TIP3   OH268164   0.933   2.018  16.061  0.5377 -0.5373  0.0759
15558TIP3    H168165   0.960   2.094  16.010  3.1026  0.1980  2.3918
15558TIP3    H268166   0.945   1.944  16.002 -0.8055  0.6750 -1.8014
15559TIP3   OH268167   3.252   6.042  12.862  0.4800  0.1998  0.0912
15559TIP3    H168168   3.308   6.112  12.895  0.3799 -0.7180  2.2872
15559TIP3    H268169   3.306   5.996  12.798  0.8242  1.7759 -0.7612
15560TIP3   OH268170   4.749   5.790  10.962  0.2936  0.1150 -0.1565
15560TIP3    H168171   4.769   5.851  10.891 -1.0059  0.7607  0.0079
15560TIP3    H268172   4.680   5.734  10.927  1.0691 -0.8878 -0.0983
15561TIP3   OH268173   5.380   3.279   2.693  0.1603  0.1079  0.4044
15561TIP3    H168174   5.387   3.304   2.601 -1.6383 -0.7228  0.0098
15561TIP3    H268175   5.415   3.354   2.742  2.6776 -0.1324 -0.9986
15562TIP3   OH268176   3.139   3.738  12.950  0.2808 -0.1140 -0.3917
15562TIP3    H168177   3.125   3.647  12.921 -1.7392  0.5606 -1.6224
15562TIP3    H268178   3.169   3.783  12.871  1.1790  0.3296  0.1958
15563TIP3   OH268179   3.315   2.664  16.719 -0.2325 -0.2942  0.8673
15563TIP3    H168180   3.384   2.598  16.726 -1.4098 -1.7070 -0.6016
15563TIP3    H268181   3.248   2.623  16.665 -1.0998  2.0275  0.1484
15564TIP3   OH268182   0.524   6.541   3.492 -0.2774  0.3261 -0.0245
15564TIP3    H168183   0.608   6.524   3.448  0.5780  1.9985  0.9119
15564TIP3    H268184   0.499   6.457   3.529 -0.0555 -0.6753 -2.0767
15565TIP3   OH268185   2.713   5.631  13.618  0.1667  0.2164 -0.4766
15565TIP3    H168186   2.674   5.564  13.674 -0.1090 -0.2711 -1.2465
15565TIP3    H268187   2.805   5.633  13.643  0.3986 -1.2174 -1.2222
15566TIP3   OH268188   5.339   6.073   0.783 -0.3220 -0.3283 -0.0451
15566TIP3    H168189   5.349   6.059   0.877 -0.1711 -3.7589 -0.5062
15566TIP3    H268190   5.245   6.079   0.770 -0.3572 -0.1333  0.2784
15567TIP3   OH268191   6.484   1.679  12.225  0.3231  0.6185 -0.2741
15567TIP3    H168192   6.417   1.744  12.242 -1.0643 -0.6700 -0.7187
15567TIP3    H268193   6.496   1.681  12.130 -0.4229 -0.4316 -0.4023
15568TIP3   OH268194   1.736   0.404  11.685 -0.4276  0.9530  0.2882
15568TIP3    H168195   1.739   0.345  11.760  2.2854 -0.5462 -0.9642
15568TIP3    H268196   1.761   0.489  11.721 -0.8358  0.6184  1.3901
15569TIP3   OH268197   0.473   5.571   0.804 -0.5900  0.1346 -0.6070
15569TIP3    H168198   0.488   5.657   0.842 -1.7527 -0.3835  1.1284
15569TIP3    H268199   0.431   5.521   0.875 -1.7028 -1.2544 -2.2018
15570TIP3   OH268200   5.804   5.680   5.264  0.4553 -0.6115 -0.1258
15570TIP3    H168201   5.788   5.773   5.246  2.1437 -0.4451 -0.8751
15570TIP3    H268202   5.790   5.671   5.358 -0.2618  0.2913 -0.1449
15571TIP3   OH268203   4.790   6.493  16.012 -0.4208  0.0728  0.1725
15571TIP3    H168204   4.761   6.485  15.922 -0.5686 -0.3577  0.2575
15571TIP3    H268205   4.725   6.550  16.053  1.3723  2.9400 -0.7715
15572TIP3   OH268206   5.522   1.215   3.589  0.4531  0.4349 -0.5134
15572TIP3    H168207   5.588   1.235   3.656  0.6089 -1.4675 -0.0571
15572TIP3    H268208   5.445   1.266   3.615  1.1189  1.1754  0.0413
15573TIP3   OH268209   0.801   4.693   5.572  0.0500 -0.4780  0.2614
15573TIP3    H168210   0.784   4.644   5.492 -0.2991 -0.3167  0.2336
15573TIP3    H268211   0.892   4.673   5.594 -0.4202 -2.0088  0.8510
15574TIP3   OH268212   1.459   6.174  11.325 -0.4213  0.2112  0.5894
15574TIP3    H168213   1.415   6.090  11.317  0.6498 -0.2365 -0.6742
15574TIP3    H268214   1.525   6.160  11.393  0.5313 -0.3036 -0.4395
15575TIP3   OH268215   3.390   0.403   5.647 -0.6704  0.2863 -0.3178
15575TIP3    H168216   3.476   0.437   5.623  0.0988 -1.5918 -0.3275
15575TIP3    H268217   3.337   0.481   5.665  1.8787  1.4242  2.6507
15576TIP3   OH268218   6.244   2.073   2.708 -0.2974 -0.1889 -0.7278
15576TIP3    H168219   6.222   2.156   2.750 -0.1609 -0.7888  0.5451
15576TIP3    H268220   6.160   2.041   2.673 -0.4660  0.1558 -0.6408
15577TIP3   OH268221   4.075   3.670   3.905  0.0002  0.0229  0.5788
15577TIP3    H168222   4.054   3.673   3.998 -4.2643  2.8602 -0.3321
15577TIP3    H268223   4.072   3.761   3.876  0.1001 -0.8914 -2.5685
15578TIP3   OH268224   5.362   2.243   0.649  0.0931  0.2347 -0.3610
15578TIP3    H168225   5.424   2.246   0.577  1.0034 -3.0361  0.1901
15578TIP3    H268226   5.411   2.273   0.725 -0.3221  1.8891 -0.7333
15579TIP3   OH268227   6.415   3.555  16.070 -0.5853  0.3331  0.2605
15579TIP3    H168228   6.449   3.466  16.085  0.6362  0.7776  0.2141
15579TIP3    H268229   6.493   3.610  16.068 -1.2553  1.2704 -0.7153
15580TIP3   OH268230   6.463   4.582  14.822  0.1237 -0.0803  0.2518
15580TIP3    H168231   6.425   4.646  14.883 -0.0547 -0.5267  0.6153
15580TIP3    H268232   6.486   4.633  14.745  0.7868  0.5884  0.8753
15581TIP3   OH268233   3.291   1.424   1.478  0.4678 -0.0118 -0.0792
15581TIP3    H168234   3.232   1.462   1.413 -0.4044 -2.1996 -0.6161
15581TIP3    H268235   3.253   1.450   1.563 -0.7416 -0.6039 -0.4249
15582TIP3   OH268236   5.034   4.417   4.922  0.1359 -0.0512  0.2495
15582TIP3    H168237   5.078   4.479   4.980  2.6181  0.8743 -2.4922
15582TIP3    H268238   4.985   4.472   4.861  2.7623 -0.6204 -2.5314
15583TIP3   OH268239   1.373   5.927   6.742  0.4777 -0.0524  0.2355
15583TIP3    H168240   1.419   5.988   6.685 -0.0668 -0.5323 -0.7255
15583TIP3    H268241   1.339   5.982   6.813 -1.4692  1.0678 -1.5079
15584TIP3   OH268242   6.384   2.723  15.575  0.5600  0.2877  0.3778
15584TIP3    H168243   6.356   2.744  15.486 -0.6418 -1.7944  0.2384
15584TIP3    H268244   6.479   2.732  15.573  0.9223 -3.1029 -2.0863
15585TIP3   OH268245   5.190   4.158  14.970 -0.3749  0.1660  0.0369
15585TIP3    H168246   5.219   4.123  14.886 -1.4908  1.7733 -1.0615
15585TIP3    H268247   5.190   4.253  14.957 -0.6622  0.4235  1.8273
15586TIP3   OH268248   0.545   2.989  13.978  0.3129 -0.3713  0.5039
15586TIP3    H168249   0.487   2.995  14.055 -0.0401  0.2893  0.1975
15586TIP3    H268250   0.633   2.982  14.015 -0.0217 -2.2154  0.9806
15587TIP3   OH268251   4.385   3.741  16.745 -0.3501  0.2632 -0.0967
15587TIP3    H168252   4.454   3.675  16.738 -0.6014  0.2917 -3.6994
15587TIP3    H268253   4.312   3.694  16.785  0.7401 -0.5931  0.9109
15588TIP3   OH268254   1.326   3.169  15.520  1.2607 -0.1727 -0.0885
15588TIP3    H168255   1.312   3.115  15.598 -0.7789  1.7109  0.9089
15588TIP3    H268256   1.239   3.178  15.482  1.9914  0.2861 -1.6980
15589TIP3   OH268257   4.009   2.993   0.406  0.4531  0.0333  0.2851
15589TIP3    H168258   3.961   2.922   0.362 -0.6350  2.1064 -2.0288
15589TIP3    H268259   3.954   3.015   0.481 -0.4654  0.0545 -0.3761
15590TIP3   OH268260   4.401   6.801  16.962 -0.0445 -0.8161 -0.1667
15590TIP3    H168261   4.399   6.776  17.054 -1.4142  3.4723  1.0873
15590TIP3    H268262   4.356   6.730  16.917  0.2927 -2.7886  2.4757
15591TIP3   OH268263   4.188   3.588   2.368 -0.1384  0.0577  0.4026
15591TIP3    H168264   4.127   3.577   2.295 -0.2053  0.6979  0.3555
15591TIP3    H268265   4.258   3.525   2.351 -0.7606 -0.6465  0.4306
15592TIP3   OH268266   0.749   6.690   2.044  0.2488  0.1310  0.0066
15592TIP3    H168267   0.665   6.649   2.022  0.9650 -1.6626  0.4725
15592TIP3    H268268   0.726   6.767   2.096 -1.1666  0.6016 -1.3049
15593TIP3   OH268269   3.232   3.101   0.280 -0.3055 -0.5334  0.1314
15593TIP3    H168270   3.231   3.192   0.250 -0.2515 -0.6598 -0.2539
15593TIP3    H268271   3.274   3.053   0.209 -2.3252 -1.2136 -0.6371
15594TIP3   OH268272   4.237   5.100  13.688 -0.0061  0.0462  0.0862
15594TIP3    H168273   4.203   5.175  13.639 -1.0482 -1.0072 -0.8349
15594TIP3    H268274   4.258   5.035  13.620  0.9270 -0.4778  0.8701
15595TIP3   OH268275   2.846   2.399   1.651 -0.0145  0.4353 -0.1560
15595TIP3    H168276   2.793   2.422   1.727 -0.2928 -1.1651  0.1651
15595TIP3    H268277   2.830   2.469   1.588 -0.2295  1.4800  1.0382
15596TIP3   OH268278   1.880   2.030   4.850 -0.2369 -0.0142  0.3978
15596TIP3    H168279   1.791   2.064   4.855 -0.0877  0.4444  0.0441
15596TIP3    H268280   1.869   1.938   4.829 -0.6326 -0.0045  0.5520
15597TIP3   OH268281   3.792   6.510   6.620  0.3321  0.2411 -0.6629
15597TIP3    H168282   3.697   6.526   6.616  0.2858  0.2659  0.3433
15597TIP3    H268283   3.828   6.561   6.548 -0.3388  0.9440 -0.5090
15598TIP3   OH268284   4.269   3.106  17.079  0.0890  0.1303 -0.1492
15598TIP3    H168285   4.220   3.174  17.033 -0.0972 -0.5766 -0.9961
15598TIP3    H268286   4.341   3.153  17.121 -1.0366  1.1037  0.7143
15599TIP3   OH268287   0.262   6.083   3.632 -0.0019  0.0772  0.4689
15599TIP3    H168288   0.167   6.072   3.644 -0.2311  1.2948 -0.2118
15599TIP3    H268289   0.271   6.157   3.573  1.3637 -0.6857 -0.3141
15600TIP3   OH268290   0.963   6.501   5.296  0.2391 -0.3674  0.0206
15600TIP3    H168291   0.962   6.413   5.334  2.0665 -0.6942 -0.6567
15600TIP3    H268292   0.936   6.488   5.205  0.3577 -0.2095 -0.0378
15601TIP3   OH268293   4.700   4.272  15.972  0.3670 -0.1985 -0.7753
15601TIP3    H168294   4.770   4.236  15.918  0.3277  1.0250 -1.6801
15601TIP3    H268295   4.705   4.224  16.054  3.0567  0.7028 -0.3709
15602TIP3   OH268296   0.349   0.960  11.905  0.2013 -0.6148 -0.0147
15602TIP3    H168297   0.299   0.961  11.987 -0.0883  1.7233 -0.1925
15602TIP3    H268298   0.310   0.888  11.855 -0.0526 -1.6452  1.6021
15603TIP3   OH268299   5.351   4.893  15.508 -0.4822 -0.4286  0.1133
15603TIP3    H168300   5.384   4.829  15.446 -0.6484 -0.1430 -0.2660
15603TIP3    H268301   5.277   4.850  15.550  0.1315 -0.9323  0.7025
15604TIP3   OH268302   5.276   3.374   3.351 -0.0647 -0.9613 -0.0832
15604TIP3    H168303   5.233   3.457   3.335  0.0255 -0.7465  0.7681
15604TIP3    H268304   5.365   3.397   3.377 -0.2879 -1.2752  0.9974
15605TIP3   OH268305   1.223   3.234   5.838  0.2023  0.2015  0.1789
15605TIP3    H168306   1.297   3.243   5.898  0.7211  0.8014 -0.5514
15605TIP3    H268307   1.263   3.226   5.752 -0.5988  0.9751 -0.2693
15606TIP3   OH268308   5.798   3.089  17.289 -0.4482  0.0754  0.1755
15606TIP3    H168309   5.857   3.131  17.226 -2.1122  0.2493 -1.3119
15606TIP3    H268310   5.820   2.996  17.284  0.1847  0.2251  0.1486
15607TIP3   OH268311   0.599   4.735   6.531 -0.1477 -0.3095  0.0231
15607TIP3    H168312   0.612   4.697   6.444 -0.7037 -1.0581  0.2604
15607TIP3    H268313   0.526   4.684   6.568  0.0550  0.0434  0.9017
15608TIP3   OH268314   1.995   4.686   0.530  0.0375 -0.3155  0.2775
15608TIP3    H168315   2.019   4.776   0.551  0.6361 -0.5168  0.4602
15608TIP3    H268316   2.075   4.635   0.544 -0.2951 -0.8770  0.1756
15609TIP3   OH268317   6.480   1.758   5.092 -0.3869 -0.6072 -0.2629
15609TIP3    H168318   6.536   1.824   5.132 -0.6429  1.2576 -2.8520
15609TIP3    H268319   6.540   1.703   5.041 -0.7095  0.6038 -1.9925
15610TIP3   OH268320   6.194   6.780  14.059  0.2021  0.0294  0.6089
15610TIP3    H168321   6.138   6.823  13.994  0.5816 -2.5300 -1.4874
15610TIP3    H268322   6.273   6.757  14.010  0.5045 -1.9314  1.9909
15611TIP3   OH268323   0.047   5.125   1.140 -0.5681  0.1782  0.0548
15611TIP3    H168324   0.122   5.075   1.173  0.0601 -0.4590 -2.2890
15611TIP3    H268325   0.081   5.213   1.125 -0.8208  0.4328  0.9441
15612TIP3   OH268326   0.074   0.692  13.906  0.2197  0.1322  0.5284
15612TIP3    H168327   0.143   0.749  13.873 -0.3873  0.8412  0.4833
15612TIP3    H268328   0.045   0.733  13.987 -0.0367 -0.2562  0.6342
15613TIP3   OH268329   3.358   2.561  15.664 -0.1210 -0.1986 -0.3188
15613TIP3    H168330   3.288   2.607  15.711 -1.1445 -1.8794 -0.1811
15613TIP3    H268331   3.356   2.599  15.576 -0.1629  0.8654  0.1329
15614TIP3   OH268332   0.211   5.309   0.323  0.2772  0.2999 -0.3602
15614TIP3    H168333   0.188   5.277   0.236  2.3826 -0.3173 -0.7380
15614TIP3    H268334   0.158   5.258   0.383 -1.2086  0.7410 -1.2789
15615TIP3   OH268335   1.747   1.332   0.175 -0.0755  0.3987  0.1722
15615TIP3    H168336   1.660   1.347   0.212 -0.9985 -0.6418 -1.4949
15615TIP3    H268337   1.805   1.333   0.250 -1.6719  0.0732  1.4444
15616TIP3   OH268338   2.949   3.219  12.550 -0.0235 -0.0853  0.6310
15616TIP3    H168339   3.031   3.182  12.516  0.9641  0.6045  2.2089
15616TIP3    H268340   2.935   3.298  12.498 -0.5013 -0.9899 -0.6523
15617TIP3   OH268341   3.424   1.600   0.618  0.2911 -0.7224  0.9442
15617TIP3    H168342   3.504   1.586   0.567  0.3635 -1.3041  1.2179
15617TIP3    H268343   3.396   1.689   0.593 -0.5340 -1.5653 -1.3073
15618TIP3   OH268344   6.714   0.110  12.526 -0.3609  0.1885  0.5080
15618TIP3    H168345   6.716   0.193  12.574  1.5483 -0.1999  1.1521
15618TIP3    H268346   6.644   0.059  12.568 -0.2252  0.7203  1.3794
15619TIP3   OH268347   0.653   0.937   2.844  0.0458  0.1253 -0.1553
15619TIP3    H168348   0.736   0.979   2.820  0.4691 -0.6506 -0.0538
15619TIP3    H268349   0.679   0.862   2.899 -0.6621 -0.7316 -0.9833
15620TIP3   OH268350   2.967   0.095   0.570 -0.5870  0.1073 -0.2250
15620TIP3    H168351   2.889   0.039   0.566 -0.4103 -0.3863  2.1610
15620TIP3    H268352   2.954   0.160   0.501 -2.8919 -0.2485 -0.1740
15621TIP3   OH268353   1.798   0.280  11.939 -0.1385 -0.2072 -0.1514
15621TIP3    H168354   1.766   0.258  12.027  0.3068  1.2181  0.3859
15621TIP3    H268355   1.839   0.199  11.908  0.3823 -0.5130  1.2697
15622TIP3   OH268356   6.434   1.010   2.135  0.2235 -0.0099 -0.0653
15622TIP3    H168357   6.443   0.953   2.212  1.6165 -0.2119 -0.3656
15622TIP3    H268358   6.468   0.957   2.063  1.5163  1.2042 -0.3469
15623TIP3   OH268359   1.219   4.754  12.267 -0.2116 -0.2599 -0.2764
15623TIP3    H168360   1.135   4.798  12.280 -0.0642  0.2396 -0.9451
15623TIP3    H268361   1.201   4.661  12.282 -0.4330  0.0703  1.5860
15624TIP3   OH268362   0.214   3.409   2.727  0.2482  0.4729 -0.4466
15624TIP3    H168363   0.149   3.453   2.672  0.1387  0.2631 -0.4843
15624TIP3    H268364   0.166   3.336   2.768  0.3606  0.5501 -0.1747
15625TIP3   OH268365   2.824   4.614  12.189  0.0631  0.1847  0.5804
15625TIP3    H168366   2.800   4.671  12.261  3.5108  2.0823  0.3526
15625TIP3    H268367   2.905   4.652  12.155 -0.8179 -1.3670 -3.5091
15626TIP3   OH268368   0.110   0.893   3.751  0.0234  0.1572  0.3371
15626TIP3    H168369   0.170   0.821   3.731  2.0682  2.5938 -2.8643
15626TIP3    H268370   0.165   0.956   3.798 -1.6413 -0.1429  2.7424
15627TIP3   OH268371   1.854   4.207  16.478 -0.2848 -0.3521 -0.5421
15627TIP3    H168372   1.886   4.118  16.491 -1.8699 -1.0664 -1.4342
15627TIP3    H268373   1.933   4.260  16.472  0.7431 -1.9971 -2.0832
15628TIP3   OH268374   4.570   1.222   2.884  0.0476  0.6070  0.3912
15628TIP3    H168375   4.481   1.194   2.905  0.2407  0.1139  0.5657
15628TIP3    H268376   4.560   1.281   2.809 -0.3813  0.1520  0.0870
15629TIP3   OH268377   6.685   4.451   6.871 -0.2477  0.3927  0.1409
15629TIP3    H168378   6.714   4.379   6.926  0.1590  1.7296  1.6965
15629TIP3    H268379   6.628   4.504   6.927 -0.3103  1.4491 -0.8872
15630TIP3   OH268380   3.886   1.583  16.638 -0.1055  0.4956  0.0173
15630TIP3    H168381   3.920   1.653  16.694 -0.0486 -0.4140  1.1473
15630TIP3    H268382   3.920   1.502  16.677 -0.5945 -0.1994 -0.9607
15631TIP3   OH268383   4.308   3.330   1.068 -0.0739  0.1064  0.2891
15631TIP3    H168384   4.330   3.297   1.155 -0.3413  1.1327  0.7557
15631TIP3    H268385   4.294   3.424   1.081  1.1780  0.4917 -1.1032
15632TIP3   OH268386   6.002   0.472  15.695 -0.2956 -0.4661  0.0042
15632TIP3    H168387   6.090   0.507  15.681 -0.5892  0.0503 -0.5930
15632TIP3    H268388   6.013   0.407  15.764  0.6972 -0.9916 -0.6276
15633TIP3   OH268389   1.812   2.178   3.482  0.5628  0.0840 -0.5308
15633TIP3    H168390   1.801   2.179   3.387  1.3486 -0.1301 -0.6276
15633TIP3    H268391   1.781   2.092   3.508 -0.5440  0.4969 -0.4824
15634TIP3   OH268392   3.828   6.436   3.368  0.1614 -0.3369  0.5811
15634TIP3    H168393   3.807   6.459   3.277  0.4069  1.2641  0.9162
15634TIP3    H268394   3.833   6.341   3.367 -1.9267 -0.4742 -0.6306
15635TIP3   OH268395   4.922   5.363  11.416 -0.1738 -0.4669 -0.0509
15635TIP3    H168396   4.937   5.406  11.500  1.1626  0.7343 -0.8811
15635TIP3    H268397   4.838   5.319  11.426 -0.9221  1.2240  1.2749
15636TIP3   OH268398   0.540   5.478   2.169  0.2748  0.0216 -0.0743
15636TIP3    H168399   0.610   5.447   2.111  0.9402 -1.1101  1.3068
15636TIP3    H268400   0.578   5.555   2.212  0.4866 -0.2628  0.2568
15637TIP3   OH268401   6.714   5.758   6.097  0.0583 -0.5068  0.3372
15637TIP3    H168402   6.673   5.754   6.010  0.1725 -0.9063  0.2991
15637TIP3    H268403   6.671   5.832   6.140  0.2112 -0.1174 -0.1669
15638TIP3   OH268404   4.215   1.128  12.174 -0.5657  0.5021  0.3254
15638TIP3    H168405   4.207   1.054  12.235 -0.1790 -0.2103 -0.4674
15638TIP3    H268406   4.185   1.093  12.090  0.7403  0.8943 -0.3212
15639TIP3   OH268407   6.294   5.817   1.265 -0.6013  0.6216 -0.5880
15639TIP3    H168408   6.201   5.793   1.272 -0.8305  1.1734 -1.7216
15639TIP3    H268409   6.312   5.866   1.345 -0.5176 -2.0080  1.0606
15640TIP3   OH268410   1.572   5.713   2.547  0.3964  0.0570  0.1727
15640TIP3    H168411   1.510   5.771   2.592  1.0259  0.2888  0.7682
15640TIP3    H268412   1.519   5.660   2.489 -0.0472  2.2546 -1.4852
15641TIP3   OH268413   4.111   5.024  16.194 -0.8022 -0.1245  0.3069
15641TIP3    H168414   4.168   5.064  16.129 -1.5754  0.6856  0.1320
15641TIP3    H268415   4.142   5.060  16.278 -0.1873 -0.7238  0.3454
15642TIP3   OH268416   4.220   5.940  11.029  0.0095  0.6174  0.1619
15642TIP3    H168417   4.284   5.972  10.965 -0.1176  2.3115  0.8614
15642TIP3    H268418   4.155   6.010  11.035 -1.2067 -0.5059  0.4724
15643TIP3   OH268419   3.139   3.013   0.601 -0.2599  0.4821  0.0032
15643TIP3    H168420   3.102   3.099   0.583 -1.5014  0.0310  0.2753
15643TIP3    H268421   3.088   2.953   0.546  0.3494 -0.1210  0.0813
15644TIP3   OH268422   5.534   6.435  13.028 -1.1313  0.6783  0.5250
15644TIP3    H168423   5.563   6.524  13.005  2.2455 -0.6384 -0.6661
15644TIP3    H268424   5.539   6.432  13.123 -1.1953  1.7458  0.5684
15645TIP3   OH268425   3.746   1.077  15.152  0.3075  0.1924  0.1406
15645TIP3    H168426   3.776   1.002  15.204  1.1448  0.5483  0.1811
15645TIP3    H268427   3.767   1.053  15.062  1.1737  0.6447  0.2140
15646TIP3   OH268428   3.536   2.858  12.575 -0.5174 -0.0645  0.0713
15646TIP3    H168429   3.627   2.851  12.605 -0.7769  0.4762  0.9910
15646TIP3    H268430   3.540   2.835  12.482  0.1021 -2.9762  0.7773
15647TIP3   OH268431   4.291   1.508  13.505  0.3159  0.3348  0.0953
15647TIP3    H168432   4.278   1.467  13.590 -1.0512  2.0111  0.7287
15647TIP3    H268433   4.331   1.440  13.451 -1.6377 -1.7307  1.1791
15648TIP3   OH268434   1.952   2.141  16.759  0.1754 -0.1757 -0.6218
15648TIP3    H168435   1.922   2.151  16.849  0.1559  1.1493 -0.7616
15648TIP3    H268436   2.048   2.147  16.765  0.2193 -0.9637 -0.5819
15649TIP3   OH268437   1.402   1.288   5.915 -0.0740 -0.3320 -0.4286
15649TIP3    H168438   1.361   1.374   5.910 -0.5152 -0.4400  1.1266
15649TIP3    H268439   1.473   1.299   5.979  0.3637 -0.9156 -0.8146
15650TIP3   OH268440   3.127   5.890  13.043  0.6294 -0.4017  0.3904
15650TIP3    H168441   3.036   5.913  13.020  1.1391  2.9368  1.4375
15650TIP3    H268442   3.180   5.952  12.993  2.2184 -0.7219  1.6584
15651TIP3   OH268443   5.229   0.669  16.287  0.8567  0.2278 -0.0718
15651TIP3    H168444   5.189   0.754  16.270 -1.9415 -0.7376  1.3861
15651TIP3    H268445   5.244   0.632  16.200 -2.1329  0.3630 -0.7114
15652TIP3   OH268446   2.981   4.098   3.989  0.8968  0.3870 -0.9301
15652TIP3    H168447   2.944   4.019   3.949 -0.7069  0.6530 -0.0112
15652TIP3    H268448   2.906   4.142   4.028  2.0349  1.5300 -0.0005
15653TIP3   OH268449   6.776   1.041   2.204 -0.3089  0.0384  0.1582
15653TIP3    H168450   6.844   1.089   2.157 -1.0333  0.7047 -0.2132
15653TIP3    H268451   6.750   1.100   2.275 -0.2041 -0.3906  0.5596
15654TIP3   OH268452   4.772   6.327  11.320 -0.1285 -0.5463  0.5485
15654TIP3    H168453   4.819   6.250  11.351 -0.3119 -0.6101  0.6736
15654TIP3    H268454   4.811   6.347  11.235 -0.8776 -1.4793 -0.0248
15655TIP3   OH268455   3.786   3.749   2.309 -0.7308  0.3130 -0.2073
15655TIP3    H168456   3.801   3.817   2.244 -0.8042 -0.8387 -1.4610
15655TIP3    H268457   3.817   3.668   2.267  0.1249 -0.3039  1.5650
15656TIP3   OH268458   4.709   2.125   5.556  0.5067 -0.0145 -0.7539
15656TIP3    H168459   4.719   2.163   5.469 -0.1641 -0.3590 -0.9843
15656TIP3    H268460   4.795   2.089   5.577  0.9966  1.1356 -0.7592
15657TIP3   OH268461   3.684   1.392   5.819  0.0656  0.3151 -0.5592
15657TIP3    H168462   3.619   1.462   5.825 -1.6105 -1.2373  0.0403
15657TIP3    H268463   3.634   1.316   5.789  0.5900 -2.1078  4.1094
15658TIP3   OH268464   5.782   1.274   4.183  0.2363 -0.0182 -0.6698
15658TIP3    H168465   5.848   1.205   4.193 -0.3194 -0.2088  2.2834
15658TIP3    H268466   5.831   1.356   4.193  0.0780 -0.1610  1.5947
15659TIP3   OH268467   2.592   4.814  12.969 -0.2357 -0.4834  0.0039
15659TIP3    H168468   2.607   4.835  13.061 -1.4719  1.6539 -0.2616
15659TIP3    H268469   2.677   4.829  12.927 -0.4564  1.5852  0.2644
15660TIP3   OH268470   4.586   3.948  15.285  0.0504  0.5589  0.4488
15660TIP3    H168471   4.674   3.911  15.289 -0.0477  0.0190 -1.7723
15660TIP3    H268472   4.597   4.033  15.241 -0.6171  0.1706 -0.4913
15661TIP3   OH268473   4.146   2.464  11.776  0.3807  0.0601 -0.0240
15661TIP3    H168474   4.226   2.501  11.737  0.0805  0.7784  0.0451
15661TIP3    H268475   4.109   2.411  11.706 -0.6773  2.1319 -1.0642
15662TIP3   OH268476   2.330   6.181  17.246  0.1801 -1.1950  0.3300
15662TIP3    H168477   2.239   6.154  17.234 -0.4338  1.0958 -0.2647
15662TIP3    H268478   2.339   6.192  17.341  0.2961 -2.9077  0.5393
15663TIP3   OH268479   4.247   0.068   5.840  0.3503 -0.1630  0.1192
15663TIP3    H168480   4.298   0.117   5.905  1.7004 -1.1610 -0.1554
15663TIP3    H268481   4.182   0.131   5.809  1.4551  1.1792  0.4386
15664TIP3   OH268482   3.955   3.444   4.039 -0.1423  0.4226  0.0818
15664TIP3    H168483   3.907   3.450   3.956  0.6283 -0.2645 -0.4294
15664TIP3    H268484   3.892   3.470   4.105 -0.4264  2.1230 -0.8291
15665TIP3   OH268485   5.917   2.549  12.617 -0.5411  0.3664  0.0056
15665TIP3    H168486   5.961   2.557  12.702 -1.1949  1.7127  0.2230
15665TIP3    H268487   5.857   2.623  12.614 -1.0333 -0.0811 -1.3391
15666TIP3   OH268488   4.144   6.368   0.917  0.1545  0.3266 -0.0106
15666TIP3    H168489   4.208   6.343   0.850 -0.8879 -2.0466 -0.1712
15666TIP3    H268490   4.078   6.418   0.869 -0.2500 -0.7974 -0.6412
15667TIP3   OH268491   3.748   2.480   6.364 -0.5196 -0.2634 -0.4744
15667TIP3    H168492   3.705   2.418   6.305 -0.7257  0.6193 -1.2788
15667TIP3    H268493   3.838   2.449   6.371 -0.8857 -1.2313 -0.0462
15668TIP3   OH268494   4.951   4.950  14.258  0.0347  0.3067 -0.4077
15668TIP3    H168495   5.043   4.936  14.281  0.0249 -0.5416 -0.8796
15668TIP3    H268496   4.930   5.035  14.296  0.6509 -0.0693  0.8114
15669TIP3   OH268497   6.054   5.887  11.720  0.4880  0.0590  0.1181
15669TIP3    H168498   6.008   5.835  11.787  1.3505 -1.0106 -0.1249
15669TIP3    H268499   5.985   5.943  11.683 -0.2675 -0.2695  0.9947
15670TIP3   OH268500   3.663   6.172   6.307  0.2042  0.2422  0.5951
15670TIP3    H168501   3.586   6.204   6.261 -0.5298 -0.1305  1.5502
15670TIP3    H268502   3.648   6.196   6.398  1.1048 -0.0551  0.8251
15671TIP3   OH268503   0.297   0.714  14.851  0.1109 -0.2825 -0.0886
15671TIP3    H168504   0.356   0.730  14.778 -0.3381  2.3112  0.0462
15671TIP3    H268505   0.211   0.742  14.819  0.2373  2.8098  1.9848
15672TIP3   OH268506   1.077   0.287  16.614  1.1433  0.0813  0.3008
15672TIP3    H168507   1.011   0.328  16.558  2.0624 -0.1228 -0.9566
15672TIP3    H268508   1.046   0.303  16.703  0.2340  1.3968 -0.2300
15673TIP3   OH268509   0.762   3.664   1.028 -0.1004  0.1450 -0.0460
15673TIP3    H168510   0.726   3.745   0.992  1.7165  1.5446  1.1998
15673TIP3    H268511   0.806   3.691   1.109 -0.9965 -2.3763  1.3145
15674TIP3   OH268512   0.125   2.088   3.921 -0.2784 -0.4314  0.2455
15674TIP3    H168513   0.203   2.032   3.920  0.6503  0.8477  0.5543
15674TIP3    H268514   0.055   2.031   3.955  0.2189 -1.9436 -1.1847
15675TIP3   OH268515   4.257   4.731   1.624 -0.2377  0.2073  0.6472
15675TIP3    H168516   4.323   4.664   1.641  0.0181  0.5445  0.9947
15675TIP3    H268517   4.272   4.758   1.533  1.2535  1.5292  1.2520
15676TIP3   OH268518   3.279   3.832   2.776  0.4430 -0.5290  0.2082
15676TIP3    H168519   3.266   3.824   2.871  0.2034  0.3505  0.2462
15676TIP3    H268520   3.338   3.759   2.755 -0.5537 -1.5381  0.8115
15677TIP3   OH268521   4.857   5.414   1.657 -0.1740  0.0481 -0.6900
15677TIP3    H168522   4.812   5.488   1.699  0.6728  1.2637 -1.8753
15677TIP3    H268523   4.943   5.412   1.699 -0.0756 -0.0485 -0.8979
15678TIP3   OH268524   0.729   3.189   3.819  0.2391 -0.0327 -0.2596
15678TIP3    H168525   0.799   3.252   3.802 -0.9140  0.9344 -1.5252
15678TIP3    H268526   0.649   3.234   3.793 -0.9013 -1.0375  1.4149
15679TIP3   OH268527   3.516   0.642   2.858  0.1434  0.5019  0.1114
15679TIP3    H168528   3.553   0.730   2.860  1.5497 -0.0947  0.5326
15679TIP3    H268529   3.587   0.584   2.886 -1.5751 -0.5097  2.5370
15680TIP3   OH268530   3.731   3.210   4.785  0.2634 -0.2280  0.3294
15680TIP3    H168531   3.794   3.259   4.836  0.9632 -2.6046  1.8280
15680TIP3    H268532   3.649   3.218   4.834  0.4464 -0.7945  0.7290
15681TIP3   OH268533   1.210   4.449  16.818  0.0338 -0.3171  0.2440
15681TIP3    H168534   1.291   4.482  16.857  0.4021 -0.6856 -0.2186
15681TIP3    H268535   1.145   4.517  16.838  1.0781  1.3281 -1.8602
15682TIP3   OH268536   6.364   1.854   6.190 -0.1084  0.0873 -0.1799
15682TIP3    H168537   6.338   1.766   6.164 -0.8582  0.3888 -0.4660
15682TIP3    H268538   6.440   1.874   6.135 -0.5545  0.0054 -0.8313
15683TIP3   OH268539   4.436   1.922   1.701 -0.5432  0.0411  0.6204
15683TIP3    H168540   4.445   1.880   1.615  1.6951  0.7298  0.4813
15683TIP3    H268541   4.513   1.978   1.708 -1.6039  1.3284  2.3627
15684TIP3   OH268542   3.547   1.539   0.232 -0.4154  0.3171 -0.1513
15684TIP3    H168543   3.482   1.470   0.248 -1.4478  1.5122  0.8844
15684TIP3    H268544   3.589   1.552   0.317 -0.4231  1.1586 -0.2766
15685TIP3   OH268545   4.125   2.566   0.988 -0.4377 -0.4562  0.0515
15685TIP3    H168546   4.087   2.558   0.901 -0.0662  0.2240 -0.1757
15685TIP3    H268547   4.186   2.640   0.981 -0.9451  0.0716  1.0627
15686TIP3   OH268548   2.748   5.803   2.658 -0.6536  0.2948  0.0140
15686TIP3    H168549   2.720   5.775   2.746 -2.3074  0.5306 -0.4161
15686TIP3    H268550   2.765   5.896   2.667 -0.8059  0.3155  0.0905
15687TIP3   OH268551   4.545   0.066  13.270 -0.4366  0.5954  0.1918
15687TIP3    H168552   4.461   0.075  13.314 -0.1302 -0.7752  1.1046
15687TIP3    H268553   4.551   0.142  13.212 -1.5537  1.5886  1.3648
15688TIP3   OH268554   0.365   3.156  15.973 -0.5771 -0.2155  0.3322
15688TIP3    H168555   0.368   3.243  16.013 -1.5811 -0.2330  0.4483
15688TIP3    H268556   0.357   3.173  15.879  0.2052 -0.1812  0.2683
15689TIP3   OH268557   2.219   2.346  11.173  0.0442 -0.1323  0.6007
15689TIP3    H168558   2.138   2.397  11.178  1.1078  1.8001 -1.2866
15689TIP3    H268559   2.287   2.404  11.205  0.7510 -1.6954  2.0123
15690TIP3   OH268560   1.345   4.967  14.600 -0.2505 -0.1639 -0.7406
15690TIP3    H168561   1.336   4.932  14.688  0.0043 -1.6914 -1.2964
15690TIP3    H268562   1.286   4.913  14.547 -0.3375  0.6787 -1.5115
15691TIP3   OH268563   4.949   6.406  14.186  1.0846  0.2820  0.4507
15691TIP3    H168564   4.901   6.446  14.114  0.9894  1.1470  0.9913
15691TIP3    H268565   5.032   6.379  14.148  0.3760 -0.7448 -0.3671
15692TIP3   OH268566   4.957   3.238  12.560 -0.4347 -0.6925 -0.2579
15692TIP3    H168567   5.052   3.224  12.557 -0.0978  1.3718 -0.4209
15692TIP3    H268568   4.938   3.287  12.479 -1.3911  0.1905  0.4841
15693TIP3   OH268569   5.440   5.817  12.488 -0.1263 -0.1408 -0.3671
15693TIP3    H168570   5.369   5.851  12.542  0.0875 -2.1483  1.2393
15693TIP3    H268571   5.516   5.869  12.511 -0.3221 -0.1801  0.3581
15694TIP3   OH268572   4.909   2.634  12.497  0.0088  0.8918 -0.5220
15694TIP3    H168573   4.990   2.635  12.446  0.7699 -3.8537  0.4004
15694TIP3    H268574   4.843   2.601  12.437  0.0335 -0.8097  0.3640
15695TIP3   OH268575   1.622   2.143   4.888 -0.2839  0.3220  0.1365
15695TIP3    H168576   1.584   2.169   4.972 -1.1854 -0.1612 -0.1149
15695TIP3    H268577   1.560   2.177   4.823  0.3824  0.6460 -0.3332
15696TIP3   OH268578   1.430   0.675   1.735 -0.4127  0.0573  0.4181
15696TIP3    H168579   1.423   0.637   1.648  0.2597  0.5784  0.1339
15696TIP3    H268580   1.370   0.623   1.789 -0.3520 -0.6724 -0.2132
15697TIP3   OH268581   0.592   6.399  10.571 -0.3315  0.3453 -0.0062
15697TIP3    H168582   0.635   6.465  10.626  0.7962  0.1914 -0.6952
15697TIP3    H268583   0.545   6.450  10.505 -0.1700  0.4819 -0.0174
15698TIP3   OH268584   3.005   2.008   3.444 -0.1097 -0.3835 -0.0591
15698TIP3    H168585   2.993   2.096   3.480 -1.3998  0.9734 -3.6635
15698TIP3    H268586   2.933   1.957   3.480  1.2394 -0.3428  2.9051
15699TIP3   OH268587   2.217   0.098  12.489  0.4263 -0.2794  0.4689
15699TIP3    H168588   2.130   0.124  12.519  1.0588  0.5685  1.5575
15699TIP3    H268589   2.224   0.006  12.515 -0.8643 -0.9215 -1.2964
15700TIP3   OH268590   2.655   6.752  15.237 -0.6003  0.3782  0.0069
15700TIP3    H168591   2.697   6.789  15.314  1.1374  2.8907 -2.0500
15700TIP3    H268592   2.696   6.666  15.226  1.2347  1.1954  0.2723
15701TIP3   OH268593   3.761   5.814   2.180  0.4530 -0.1050  0.3662
15701TIP3    H168594   3.724   5.800   2.093  0.0321 -1.2306  0.7229
15701TIP3    H268595   3.786   5.907   2.180  0.9840 -0.2341 -1.1412
15702TIP3   OH268596   2.107   6.741   2.723  0.2717  0.0930 -0.1686
15702TIP3    H168597   2.043   6.798   2.766 -1.2641 -0.5162 -1.5991
15702TIP3    H268598   2.098   6.657   2.767  0.4782  0.1506 -0.0135
15703TIP3   OH268599   6.225   2.342  12.640 -0.3774  0.1630 -0.1421
15703TIP3    H168600   6.289   2.305  12.701 -0.6363 -2.1682 -1.2692
15703TIP3    H268601   6.141   2.307  12.669 -0.5130 -0.9012 -1.7604
15704TIP3   OH268602   5.601   0.760   6.555 -0.2546  0.0371  0.2341
15704TIP3    H168603   5.609   0.673   6.517  0.1161  1.0424 -2.0772
15704TIP3    H268604   5.607   0.819   6.480  0.3113  2.0870  1.8560
15705TIP3   OH268605   5.237   6.654   6.509 -0.4006 -0.1208  0.1553
15705TIP3    H168606   5.179   6.609   6.570 -1.1122  0.7229  0.1161
15705TIP3    H268607   5.187   6.657   6.427  0.7457 -1.6906 -0.6331
15706TIP3   OH268608   4.122   1.269   3.838  0.5397  0.6167 -0.3900
15706TIP3    H168609   4.030   1.290   3.824  0.4694 -0.8020 -2.3068
15706TIP3    H268610   4.169   1.345   3.803  0.1579 -0.0037 -2.2997
15707TIP3   OH268611   4.570   1.164   3.172  0.3930  0.1938 -0.5998
15707TIP3    H168612   4.515   1.127   3.242  1.2111 -1.4291 -0.7950
15707TIP3    H268613   4.511   1.168   3.096  0.1071 -0.0645 -0.3953
15708TIP3   OH268614   2.729   5.505   0.421  0.0300 -0.5203  0.4393
15708TIP3    H168615   2.813   5.531   0.459  0.4247  0.8893 -1.3166
15708TIP3    H268616   2.751   5.450   0.346 -0.5207  1.0750 -0.9375
15709TIP3   OH268617   1.502   3.910   1.543  0.6994  0.0365 -1.2184
15709TIP3    H168618   1.434   3.961   1.499  0.4306 -0.0288 -0.8793
15709TIP3    H268619   1.488   3.928   1.637  1.2829  0.1972 -1.1635
15710TIP3   OH268620   1.043   4.373  16.537 -0.1745 -0.5443  0.6894
15710TIP3    H168621   1.031   4.344  16.447 -0.7745  0.1108  0.5524
15710TIP3    H268622   1.062   4.292  16.586 -0.3962 -0.9747  0.0688
15711TIP3   OH268623   3.743   3.520  16.778 -0.3359 -0.6266 -0.4035
15711TIP3    H168624   3.781   3.493  16.695 -0.4704  0.2699 -0.7637
15711TIP3    H268625   3.818   3.530  16.837  0.0524  1.4851 -1.2096
15712TIP3   OH268626   0.232   3.584   0.815  0.1964  0.3658 -0.1538
15712TIP3    H168627   0.237   3.637   0.895 -1.3390  0.3800 -0.0400
15712TIP3    H268628   0.138   3.570   0.802  0.5330 -1.6392 -0.6270
15713TIP3   OH268629   1.735   3.047   0.888  0.2028 -0.5632  0.5073
15713TIP3    H168630   1.670   3.087   0.830 -1.3345 -0.8964  1.9447
15713TIP3    H268631   1.688   2.973   0.927  0.6499  0.6296  3.4044
15714TIP3   OH268632   5.712   4.503  14.959 -0.0862 -0.4427 -0.1995
15714TIP3    H168633   5.687   4.447  15.033  0.6590  0.6722  0.9409
15714TIP3    H268634   5.760   4.575  15.000 -2.8379  2.1550 -1.3880
15715TIP3   OH268635   0.864   4.188  16.781  0.2321 -0.0768  0.0951
15715TIP3    H168636   0.946   4.169  16.735 -0.3291  0.6430 -1.2487
15715TIP3    H268637   0.891   4.243  16.855  1.0681 -0.6023  0.1931
15716TIP3   OH268638   6.516   0.575  12.232  0.0999 -0.0316 -0.4443
15716TIP3    H168639   6.475   0.652  12.191  0.5932  0.3325 -0.2561
15716TIP3    H268640   6.445   0.533  12.280 -0.2998 -0.0061 -1.0016
15717TIP3   OH268641   0.422   4.378  11.129 -0.0777  0.8734 -0.3258
15717TIP3    H168642   0.400   4.391  11.221 -0.4022 -0.2124 -0.2373
15717TIP3    H268643   0.363   4.437  11.081 -2.2970 -0.9997 -0.0113
15718TIP3   OH268644   1.354   6.571  15.474 -0.2989  0.2354 -0.7724
15718TIP3    H168645   1.412   6.512  15.522 -1.5449 -0.9342 -0.6577
15718TIP3    H268646   1.377   6.557  15.382 -0.7217 -0.5920 -0.7575
15719TIP3   OH268647   6.090   1.407   2.307  0.2291  0.2836 -0.1388
15719TIP3    H168648   6.169   1.446   2.344  0.3478  0.0983 -0.1955
15719TIP3    H268649   6.119   1.368   2.224  0.4692 -1.4374  0.7386
15720TIP3   OH268650   5.297   1.126   5.435  0.2887 -0.2658  0.2538
15720TIP3    H168651   5.223   1.141   5.376  1.0588 -2.6045 -1.3713
15720TIP3    H268652   5.351   1.204   5.427 -2.1458  1.6482  1.7376
15721TIP3   OH268653   2.542   1.710   6.244  0.2189 -0.1082  0.1794
15721TIP3    H168654   2.570   1.762   6.319 -0.3860  0.4354  0.0265
15721TIP3    H268655   2.450   1.689   6.262  0.0819 -0.0077 -0.3948
15722TIP3   OH268656   3.701   0.508   4.612  0.3509 -0.1071  0.5766
15722TIP3    H168657   3.752   0.427   4.608 -0.6425 -0.6626 -0.7479
15722TIP3    H268658   3.765   0.577   4.595  1.0494 -0.6501  0.9515
15723TIP3   OH268659   5.529   4.450   4.066  0.8261 -0.8041  0.2654
15723TIP3    H168660   5.543   4.496   4.149  0.4682  1.4015 -0.8686
15723TIP3    H268661   5.456   4.390   4.084  0.0864  0.3763  1.2448
15724TIP3   OH268662   2.941   5.534  13.150  0.4930  0.7391  0.0129
15724TIP3    H168663   2.897   5.545  13.066  0.3537  1.1523  0.1391
15724TIP3    H268664   3.034   5.522  13.127  0.3315 -0.0224 -0.2450
15725TIP3   OH268665   6.658   0.813   3.743 -0.5434  0.4868  0.2444
15725TIP3    H168666   6.747   0.841   3.764 -1.2722  2.9239  0.1796
15725TIP3    H268667   6.626   0.772   3.824  0.8733 -1.1265  0.0285
15726TIP3   OH268668   3.497   4.783  15.430  0.2297 -0.4809 -0.4642
15726TIP3    H168669   3.410   4.817  15.411 -0.1883 -1.7649 -0.8817
15726TIP3    H268670   3.528   4.837  15.503 -0.9824 -0.1269 -0.1999
15727TIP3   OH268671   0.468   0.888   5.035  0.2207  0.3579 -0.2360
15727TIP3    H168672   0.467   0.858   5.126  0.4339 -1.5360 -0.8522
15727TIP3    H268673   0.377   0.879   5.006  0.3869 -0.1447 -0.5838
15728TIP3   OH268674   2.520   2.768  13.135  0.5796  0.4492  0.0700
15728TIP3    H168675   2.499   2.686  13.180  0.5802  2.3818  3.7956
15728TIP3    H268676   2.435   2.806  13.113  0.5314  0.2904 -0.0151
15729TIP3   OH268677   1.675   1.868  13.984  0.2127 -0.1872  0.1769
15729TIP3    H168678   1.760   1.889  13.945  0.2913 -2.8170 -1.1419
15729TIP3    H268679   1.688   1.881  14.078  1.6874  0.7037 -0.1314
15730TIP3   OH268680   2.695   0.642   2.819  0.3274  0.3169  0.9042
15730TIP3    H168681   2.748   0.604   2.890 -0.4211 -1.3882  0.5822
15730TIP3    H268682   2.616   0.586   2.816  0.3877  0.3158 -1.3185
15731TIP3   OH268683   2.114   6.666   3.321  0.1110  0.0870  0.4459
15731TIP3    H168684   2.143   6.694   3.408  0.7466 -0.2858  0.3562
15731TIP3    H268685   2.164   6.587   3.303  0.0078  0.1772 -0.2722
15732TIP3   OH268686   2.506   4.427  15.341 -0.1079 -0.3586  0.3221
15732TIP3    H168687   2.419   4.437  15.303 -0.6659 -0.1837  1.6293
15732TIP3    H268688   2.531   4.516  15.367  0.6531 -0.3393 -0.4476
15733TIP3   OH268689   1.996   1.407   1.060 -0.4294 -0.0064  0.0918
15733TIP3    H168690   2.034   1.372   0.980 -1.2192  1.0309 -0.7504
15733TIP3    H268691   1.988   1.332   1.118  0.6676 -0.6605 -0.5979
15734TIP3   OH268692   4.647   1.392  13.842  0.2634  0.5651  0.2511
15734TIP3    H168693   4.734   1.367  13.873 -0.3799 -1.2812  0.6336
15734TIP3    H268694   4.660   1.477  13.800  2.0650  0.7787  1.1834
15735TIP3   OH268695   4.796   0.512  13.860 -0.5882 -0.7271  0.7278
15735TIP3    H168696   4.751   0.589  13.824  0.8014 -0.0209  0.4807
15735TIP3    H268697   4.726   0.448  13.872 -1.3913 -0.3473 -1.5221
15736TIP3   OH268698   4.242   6.653  12.182  0.4386  0.3337  0.5067
15736TIP3    H168699   4.184   6.682  12.112 -1.3306  1.8084  2.5202
15736TIP3    H268700   4.324   6.700  12.166  0.2329  0.2288 -0.8858
15737TIP3   OH268701   5.845   2.303  16.039 -0.5335 -0.1978 -0.1285
15737TIP3    H168702   5.866   2.393  16.014  1.7285  0.2040  2.9103
15737TIP3    H268703   5.751   2.303  16.055 -0.7282  1.3490 -1.1965
15738TIP3   OH268704   5.638   5.205   4.034 -0.1416  0.1640  0.5855
15738TIP3    H168705   5.686   5.286   4.052 -2.2301  2.2299 -2.5957
15738TIP3    H268706   5.693   5.157   3.973  1.0942 -0.8653  2.4637
15739TIP3   OH268707   6.782   5.114   5.962 -0.5195 -0.2020  0.4985
15739TIP3    H168708   6.734   5.188   5.999 -1.0294 -1.1906  1.8706
15739TIP3    H268709   6.806   5.060   6.037  1.7564 -0.3345 -0.2711
15740TIP3   OH268710   1.320   6.366   4.248  0.3716  0.1045 -0.1646
15740TIP3    H168711   1.350   6.388   4.160  0.7939  1.1252  0.2229
15740TIP3    H268712   1.367   6.427   4.305  0.2437 -0.6729  0.7840
15741TIP3   OH268713   4.485   1.600   0.017 -0.2970 -0.3209 -0.3224
15741TIP3    H168714   4.404   1.636  -0.020 -0.3669 -0.9481 -0.7903
15741TIP3    H268715   4.547   1.600  -0.055  0.4193  1.0237  0.2760
15742TIP3   OH268716   0.565   6.482  16.357  0.9101 -0.0667 -0.0800
15742TIP3    H168717   0.561   6.578  16.353  0.2338 -0.1253 -1.0040
15742TIP3    H268718   0.594   6.463  16.446  1.9058  1.0121 -0.1619
15743TIP3   OH268719   3.444   5.590  13.293  0.5995 -0.1754 -0.0209
15743TIP3    H168720   3.460   5.588  13.387 -0.0992 -2.2043  0.0712
15743TIP3    H268721   3.383   5.662  13.281 -1.7432 -1.8472  1.5049
15744TIP3   OH268722   2.225   0.122   2.320 -0.0238 -0.0072 -0.4939
15744TIP3    H168723   2.239   0.216   2.311  0.6205  0.2140  2.3079
15744TIP3    H268724   2.278   0.083   2.251 -1.0703  1.7079 -2.3069
15745TIP3   OH268725   2.113   4.232   3.343 -0.6335  0.3178 -0.0956
15745TIP3    H168726   2.057   4.294   3.296 -0.3977  2.5048  2.4214
15745TIP3    H268727   2.100   4.253   3.435  2.0554 -1.1452  0.6632
15746TIP3   OH268728   4.604   3.413   5.018 -0.2331  0.3287 -0.3876
15746TIP3    H168729   4.564   3.336   5.058 -0.0429  1.2760  1.6956
15746TIP3    H268730   4.640   3.381   4.935 -0.5930 -1.7104  0.2165
15747TIP3   OH268731   1.951   0.629  17.079  0.0625  0.5181 -0.5442
15747TIP3    H168732   2.014   0.681  17.129 -0.9284  1.9067 -0.6993
15747TIP3    H268733   1.932   0.555  17.135 -1.2277  2.1838  1.2878
15748TIP3   OH268734   0.606   5.365  12.104  0.1897  0.1367  0.5527
15748TIP3    H168735   0.582   5.448  12.062 -2.2926 -0.2423  1.1251
15748TIP3    H268736   0.619   5.387  12.196 -3.0786 -0.4714  1.2424
15749TIP3   OH268737   5.632   6.020   1.866  0.9503 -0.1185 -0.1053
15749TIP3    H168738   5.557   6.023   1.925  1.3389 -0.6415  0.4093
15749TIP3    H268739   5.701   5.976   1.915  0.8866 -1.6875 -1.3849
15750TIP3   OH268740   6.364   6.332  17.049  0.1164  0.0533 -0.0302
15750TIP3    H168741   6.303   6.403  17.068  0.2225  0.5140 -1.3189
15750TIP3    H268742   6.405   6.312  17.133 -0.1113  1.3314  0.4010
15751TIP3   OH268743   2.937   2.389  12.939  0.3035 -0.0188 -0.3378
15751TIP3    H168744   2.919   2.296  12.954  1.5172 -0.1405  0.3900
15751TIP3    H268745   2.910   2.433  13.020 -1.2963  0.4217 -1.0787
15752TIP3   OH268746   3.770   0.837   4.854  0.1670  0.0415  0.3557
15752TIP3    H168747   3.737   0.919   4.892  2.6751  1.2132  0.1255
15752TIP3    H268748   3.692   0.786   4.836 -1.3802  1.7480  1.9595
15753TIP3   OH268749   5.424   5.442  17.016  0.0635  0.3313  0.2041
15753TIP3    H168750   5.334   5.458  17.045  0.3385  1.6269  0.3728
15753TIP3    H268751   5.450   5.524  16.973  0.9783 -0.2263 -0.3207
15754TIP3   OH268752   5.764   5.530   1.376 -0.4435 -0.2936  0.0837
15754TIP3    H168753   5.757   5.625   1.393  0.3546 -0.4745  1.5761
15754TIP3    H268754   5.856   5.511   1.390 -0.9017 -1.5870  1.5053
15755TIP3   OH268755   0.355   0.246  16.706  0.2063  0.1551  0.1300
15755TIP3    H168756   0.299   0.281  16.776 -0.1702  0.5770 -0.3753
15755TIP3    H268757   0.390   0.324  16.663 -0.3438 -0.0999 -0.7729
15756TIP3   OH268758   5.597   0.928  14.438 -0.1198  0.0656 -0.5788
15756TIP3    H168759   5.623   0.896  14.352 -0.4532 -0.4214 -0.5004
15756TIP3    H268760   5.652   1.004  14.453  1.2277 -0.9082 -0.4486
15757TIP3   OH268761   5.520   4.972  16.745  0.1301 -0.7526 -0.3132
15757TIP3    H168762   5.614   4.976  16.767  0.5079 -1.8828 -1.6741
15757TIP3    H268763   5.501   5.058  16.707  0.0757  0.2881  1.9856
15758TIP3   OH268764   2.342   5.541  17.191  0.0760  0.5851  0.0876
15758TIP3    H168765   2.338   5.637  17.187  0.2244  0.5841 -0.1304
15758TIP3    H268766   2.306   5.519  17.276  3.7787  1.0574  1.8685
15759TIP3   OH268767   3.692   4.260   5.226 -0.3676  0.0103 -0.1128
15759TIP3    H168768   3.681   4.264   5.322  0.0947  0.9168 -0.0935
15759TIP3    H268769   3.771   4.311   5.209 -0.3768 -0.2609 -0.9714
15760TIP3   OH268770   1.284   3.632  12.409 -0.0956  0.0216 -0.0051
15760TIP3    H168771   1.380   3.637  12.410 -0.1025  0.3438 -0.4873
15760TIP3    H268772   1.255   3.722  12.422 -0.3104  0.1811 -1.4456
15761TIP3   OH268773   4.820   2.501   4.165 -0.3045 -0.4640  0.2238
15761TIP3    H168774   4.836   2.408   4.150  2.5303 -0.1164  0.7244
15761TIP3    H268775   4.727   2.507   4.186 -0.7965 -3.0070 -1.0702
15762TIP3   OH268776   5.909   5.618  12.442  0.8013 -0.2629 -0.1377
15762TIP3    H168777   5.933   5.588  12.354  0.5803  0.0935 -0.3215
15762TIP3    H268778   5.822   5.580  12.457 -0.3966  1.9610 -1.2099
15763TIP3   OH268779   4.465   1.392   5.166  0.2737  0.3157 -0.2903
15763TIP3    H168780   4.396   1.327   5.186 -0.1163  0.5170 -0.9817
15763TIP3    H268781   4.419   1.476   5.163  0.2093  0.2292 -2.6177
15764TIP3   OH268782   2.362   1.111  15.316 -0.4247  0.0474  0.5425
15764TIP3    H168783   2.439   1.126  15.371  1.6161 -1.3601 -1.8082
15764TIP3    H268784   2.303   1.058  15.371  2.4432 -3.1115  0.7548
15765TIP3   OH268785   4.490   3.136  11.829  0.4692 -0.1209  0.7421
15765TIP3    H168786   4.478   3.149  11.735 -0.5898 -2.2128  0.5575
15765TIP3    H268787   4.455   3.216  11.869 -0.2835  0.2152 -0.5703
15766TIP3   OH268788   0.855   4.002  10.894  0.5035 -0.2346 -0.4721
15766TIP3    H168789   0.810   3.920  10.872  0.3666 -0.1173 -0.6383
15766TIP3    H268790   0.942   3.994  10.855  0.1287  0.1295 -1.3951
15767TIP3   OH268791   2.131   5.445   1.699  0.0853 -0.1966  0.1836
15767TIP3    H168792   2.041   5.460   1.726  0.3983  0.0077  1.1576
15767TIP3    H268793   2.130   5.357   1.661 -0.5539 -0.1332  0.0499
15768TIP3   OH268794   5.230   4.051  11.414 -0.1189 -0.5310  0.2356
15768TIP3    H168795   5.190   4.045  11.327  0.3838 -0.1480 -0.0304
15768TIP3    H268796   5.234   4.145  11.432  2.2655 -0.4356 -0.5202
15769TIP3   OH268797   5.010   1.641  13.876  0.4739  0.0066  0.3687
15769TIP3    H168798   5.038   1.614  13.788  1.0476 -0.3919  0.6774
15769TIP3    H268799   4.915   1.652  13.868  0.4791 -0.3462 -0.2191
15770TIP3   OH268800   3.594   2.110   2.206 -0.1060  0.5476  0.0133
15770TIP3    H168801   3.637   2.034   2.244  0.2648 -0.2828 -1.9885
15770TIP3    H268802   3.656   2.143   2.141 -0.2295  2.6341  0.9288
15771TIP3   OH268803   6.012   6.484   1.830  0.6407  0.1227 -0.2774
15771TIP3    H168804   5.962   6.403   1.836 -0.2789  0.5804 -1.4428
15771TIP3    H268805   5.978   6.539   1.901  0.3771 -0.0454 -0.2752
15772TIP3   OH268806   0.926   1.694   0.163  0.4037  0.3292  0.1999
15772TIP3    H168807   0.864   1.707   0.235  0.5900 -0.4041  0.4936
15772TIP3    H268808   0.888   1.743   0.090 -0.2012  0.4017  0.5571
15773TIP3   OH268809   6.684   3.585   5.734 -0.6667 -0.4248 -0.2537
15773TIP3    H168810   6.671   3.497   5.770 -0.8673  0.4923  1.9886
15773TIP3    H268811   6.596   3.623   5.731 -0.3483  0.4022  0.6573
15774TIP3   OH268812   0.670   3.991   3.178 -0.5073 -0.3311 -0.0695
15774TIP3    H168813   0.643   3.995   3.086 -2.0707  0.1408  0.3821
15774TIP3    H268814   0.587   3.986   3.226  0.3301 -1.6853  1.2604
15775TIP3   OH268815   5.510   0.971   1.964  0.0251 -0.3587  0.2286
15775TIP3    H168816   5.430   0.952   2.012 -0.0389  1.2876  0.7958
15775TIP3    H268817   5.566   1.016   2.027  0.3461  0.8912 -0.9193
15776TIP3   OH268818   2.638   6.119  13.103 -0.1030  0.2974  0.5782
15776TIP3    H168819   2.641   6.199  13.051 -0.9120  0.8095  1.3042
15776TIP3    H268820   2.560   6.073  13.071  0.5070 -0.3400 -0.0226
15777TIP3   OH268821   2.891   1.209   3.382 -0.1357 -0.2994 -0.0289
15777TIP3    H168822   2.882   1.304   3.386  1.5799 -0.1186  0.0093
15777TIP3    H268823   2.860   1.178   3.467  1.8526  0.4784  1.0269
15778TIP3   OH268824   0.304   2.460  15.887 -0.5803  0.4978 -0.0988
15778TIP3    H168825   0.296   2.507  15.970 -0.3823  0.4745 -0.0668
15778TIP3    H268826   0.247   2.508  15.826  0.6082  1.5431 -0.4011
15779TIP3   OH268827   1.804   1.015  13.944  0.6057 -0.0024  0.1367
15779TIP3    H168828   1.875   1.064  13.901  1.2913  1.1433  2.5053
15779TIP3    H268829   1.747   1.083  13.979  0.3933 -0.9101  1.5686
15780TIP3   OH268830   2.360   4.144   1.261  0.1609  0.3728 -0.3320
15780TIP3    H168831   2.332   4.233   1.281  1.4347  0.6478  0.2816
15780TIP3    H268832   2.450   4.140   1.292  0.0902 -1.1518 -0.2914
15781TIP3   OH268833   4.827   1.978  15.110  0.6070 -0.3732 -0.5009
15781TIP3    H168834   4.755   1.927  15.147  0.3721 -0.3357 -0.9024
15781TIP3    H268835   4.830   2.057  15.163  0.7701 -0.6697 -0.0720
15782TIP3   OH268836   3.659   2.722   4.125  0.4958 -0.4776 -0.4571
15782TIP3    H168837   3.644   2.764   4.210  0.8688 -0.6869 -0.2896
15782TIP3    H268838   3.681   2.794   4.066  0.2730 -0.3363 -0.3705
15783TIP3   OH268839   0.090   4.378   6.129  0.1710 -0.5145  0.6276
15783TIP3    H168840   0.180   4.411   6.132 -0.3608  0.8309  3.3771
15783TIP3    H268841   0.036   4.457   6.124 -0.9397 -1.1713  1.9598
15784TIP3   OH268842   6.078   2.369   2.243 -0.4676  0.2351  0.0206
15784TIP3    H168843   6.081   2.464   2.253 -1.5979  0.3267 -0.4004
15784TIP3    H268844   5.984   2.348   2.242 -0.2206 -0.9901  1.0612
15785TIP3   OH268845   5.628   0.118   1.940 -1.0879  0.3812 -0.3036
15785TIP3    H168846   5.723   0.106   1.941 -1.2441 -0.9206 -0.6007
15785TIP3    H268847   5.609   0.163   2.022 -0.2128  0.6876 -0.2601
15786TIP3   OH268848   5.094   6.510   1.915  0.0065  0.3731 -0.9830
15786TIP3    H168849   5.048   6.505   1.831 -1.2832  1.8069 -0.3682
15786TIP3    H268850   5.026   6.503   1.981  1.0941 -1.4668 -0.0054
15787TIP3   OH268851   2.466   3.602  11.204 -0.0738 -0.1543  0.2874
15787TIP3    H168852   2.404   3.600  11.276 -0.5130 -0.9046 -0.1095
15787TIP3    H268853   2.527   3.531  11.222  0.9236  0.8324  0.8906
15788TIP3   OH268854   2.807   1.554  16.117 -0.5438  0.0638 -0.6615
15788TIP3    H168855   2.764   1.629  16.077  0.5157  1.1987  0.2738
15788TIP3    H268856   2.736   1.491  16.133 -1.7711  1.6334  0.2678
15789TIP3   OH268857   6.054   5.482   4.201 -0.2991 -0.3477  0.0296
15789TIP3    H168858   6.107   5.499   4.123 -0.4062 -1.3320 -0.2598
15789TIP3    H268859   6.097   5.407   4.242 -0.9201 -0.5483  0.3046
15790TIP3   OH268860   0.697   1.420  16.073 -0.1264 -0.2544 -0.1628
15790TIP3    H168861   0.751   1.484  16.027  2.0999 -1.5356  0.6106
15790TIP3    H268862   0.652   1.470  16.141  2.9023  0.2464  1.5275
15791TIP3   OH268863   4.488   0.268   2.341  0.0602 -0.0911  0.1263
15791TIP3    H168864   4.506   0.317   2.421 -1.1760  0.5071  0.0523
15791TIP3    H268865   4.424   0.321   2.294  2.4221  0.6810 -2.3487
15792TIP3   OH268866   2.188   0.369   4.989  0.4711 -0.0283  0.0669
15792TIP3    H168867   2.277   0.359   5.023  0.3324  0.4806  0.5890
15792TIP3    H268868   2.167   0.283   4.952  0.3400 -0.8370  1.9611
15793TIP3   OH268869   1.585   5.338  15.215 -0.0541  0.9988 -0.2013
15793TIP3    H168870   1.566   5.431  15.205 -1.0260  1.0799  2.2054
15793TIP3    H268871   1.557   5.317  15.304  0.3074 -1.5589 -0.6568
15794TIP3   OH268872   0.491   3.743   1.742 -0.1671  0.5124 -0.6848
15794TIP3    H168873   0.567   3.736   1.799 -1.6591  1.0221  1.4654
15794TIP3    H268874   0.525   3.731   1.654  2.2267 -0.2512  0.3087
15795TIP3   OH268875   4.959   4.617   3.286 -0.3575  0.2044  0.4301
15795TIP3    H168876   4.865   4.634   3.297 -0.5745 -0.7319  0.0705
15795TIP3    H268877   4.994   4.618   3.375 -0.6426  0.8913  0.5437
15796TIP3   OH268878   2.744   1.333   2.933  0.3281 -0.1499 -0.0774
15796TIP3    H168879   2.809   1.265   2.917  0.3307 -0.4830  1.3550
15796TIP3    H268880   2.720   1.324   3.025  1.9551  3.1937  0.7720
15797TIP3   OH268881   6.301   3.058   3.142  0.1193 -0.1498  0.0301
15797TIP3    H168882   6.391   3.027   3.157  0.3942  0.9078  0.6314
15797TIP3    H268883   6.249   3.013   3.207  0.6893  1.4203  1.6162
15798TIP3   OH268884   5.012   3.110   5.587 -0.5722  0.8299  0.2087
15798TIP3    H168885   5.077   3.047   5.618 -0.1797  1.2441  0.2301
15798TIP3    H268886   4.934   3.057   5.569 -0.5170  0.4530  1.0343
15799TIP3   OH268887   5.891   0.147  12.683 -0.1004 -0.4997  0.1045
15799TIP3    H168888   5.951   0.076  12.660  1.1798  0.4744  0.4018
15799TIP3    H268889   5.923   0.179  12.767 -1.5297 -0.4959  0.6601
15800TIP3   OH268890   6.181   3.612   1.873 -0.2810  0.4881  0.3079
15800TIP3    H168891   6.233   3.535   1.851 -0.3812  0.6124 -0.3743
15800TIP3    H268892   6.231   3.656   1.942 -0.6733 -0.6728  1.3537
15801TIP3   OH268893   0.549   0.452   6.839 -0.0342  0.0495 -0.1400
15801TIP3    H168894   0.468   0.402   6.831 -0.5934  1.0053 -0.4886
15801TIP3    H268895   0.614   0.388   6.867 -0.6901 -0.9279 -0.8399
15802TIP3   OH268896   4.477   4.092  10.303  0.6683  0.1174 -0.2249
15802TIP3    H168897   4.407   4.142  10.262  0.0197 -1.5704 -1.1986
15802TIP3    H268898   4.557   4.125  10.262  0.2291  0.2003 -1.0112
15803TIP3   OH268899   4.438   0.196  10.790  0.2258  0.3658  0.7801
15803TIP3    H168900   4.445   0.141  10.712  1.2105  0.4050  0.8407
15803TIP3    H268901   4.409   0.281  10.756  0.6004  0.3681  0.4625
15804TIP3   OH268902   0.542   2.169   4.314  0.0402 -0.9827 -0.0976
15804TIP3    H168903   0.609   2.189   4.380 -0.1920  1.3627 -0.5392
15804TIP3    H268904   0.459   2.173   4.361 -0.1697  1.2359 -0.6104
15805TIP3   OH268905   3.621   2.437  14.293 -0.0058  0.4050 -0.1800
15805TIP3    H168906   3.679   2.370  14.328 -0.2981  1.2571  2.0111
15805TIP3    H268907   3.676   2.515  14.284 -0.1521  0.4438 -0.7425
15806TIP3   OH268908   2.796   5.296   0.245  0.1389  0.5584 -0.6542
15806TIP3    H168909   2.739   5.315   0.171  0.0480  0.7400 -0.5379
15806TIP3    H268910   2.772   5.208   0.273 -0.6385  0.9478 -0.0954
15807TIP3   OH268911   2.818   5.842  16.631 -0.3157  0.2719  0.8130
15807TIP3    H168912   2.807   5.897  16.709 -2.2716  2.3815 -0.8427
15807TIP3    H268913   2.729   5.819  16.606  0.3712 -1.5376 -0.0149
15808TIP3   OH268914   0.806   0.366  16.509  0.0066 -0.5065  0.4414
15808TIP3    H168915   0.831   0.364  16.601  3.0855  0.4031 -0.3304
15808TIP3    H268916   0.815   0.275  16.480  2.1703 -0.2343  0.2479
15809TIP3   OH268917   3.292   0.131  16.170 -0.3485 -0.1738 -0.2378
15809TIP3    H168918   3.384   0.106  16.171 -0.3234 -0.0978 -0.7824
15809TIP3    H268919   3.280   0.183  16.250 -0.0406 -0.6134  0.0902
15810TIP3   OH268920   2.061   6.703   0.341 -0.9591 -0.1781 -0.3891
15810TIP3    H168921   2.093   6.655   0.265  0.0322  1.4806 -1.0260
15810TIP3    H268922   2.103   6.789   0.336 -1.1068  0.0598  1.8663
15811TIP3   OH268923   3.902   6.777   1.798 -0.0307  0.1257 -0.0789
15811TIP3    H168924   3.981   6.810   1.755  1.8022 -2.8306  0.8796
15811TIP3    H268925   3.859   6.725   1.730  1.0273 -1.6526  0.5937
15812TIP3   OH268926   4.825   5.337   4.674  0.4926  0.0125  0.1962
15812TIP3    H168927   4.859   5.426   4.684 -0.6985  0.5464 -0.4608
15812TIP3    H268928   4.785   5.336   4.587 -2.7387 -0.0551  1.6110
15813TIP3   OH268929   5.787   0.481  14.950  0.5326 -0.3729  0.5610
15813TIP3    H168930   5.848   0.407  14.959  0.2236 -0.5328  1.3783
15813TIP3    H268931   5.702   0.444  14.973  0.2674  0.0610  0.2566
15814TIP3   OH268932   3.107   4.722  13.361  0.0709 -0.1554 -0.4473
15814TIP3    H168933   3.163   4.644  13.357  1.5569  0.8674 -0.0800
15814TIP3    H268934   3.140   4.778  13.291 -0.3133  0.5695 -0.0541
15815TIP3   OH268935   2.993   1.046   6.052  0.2844 -0.4428 -0.6002
15815TIP3    H168936   2.945   1.121   6.017 -0.3918 -0.8646 -0.5808
15815TIP3    H268937   3.084   1.062   6.028  0.5385  1.6717  1.6392
15816TIP3   OH268938   1.098   4.671   5.735  0.2012  0.3095 -0.6257
15816TIP3    H168939   1.131   4.718   5.658  1.7064  0.9289  0.3759
15816TIP3    H268940   1.154   4.594   5.742 -2.6838 -2.1081 -2.6622
15817TIP3   OH268941   1.303   1.716  14.222 -0.5127  0.3042  0.1154
15817TIP3    H168942   1.389   1.678  14.241 -0.7036  1.1962  3.0776
15817TIP3    H268943   1.299   1.720  14.126  2.3584 -0.6062 -0.0943
15818TIP3   OH268944   3.579   4.478  15.952 -0.1357  0.4889 -0.1469
15818TIP3    H168945   3.489   4.459  15.925 -0.0843 -0.1020  0.0931
15818TIP3    H268946   3.631   4.460  15.874 -0.1181 -0.1232 -0.0011
15819TIP3   OH268947   5.425   6.364   5.608 -0.1252 -0.4768 -0.4658
15819TIP3    H168948   5.402   6.290   5.664 -0.9554 -0.0828 -0.2712
15819TIP3    H268949   5.343   6.387   5.564  0.5625 -0.9380 -2.0332
15820TIP3   OH268950   3.851   0.280   5.340 -0.6602  0.1228 -0.0609
15820TIP3    H168951   3.819   0.205   5.289 -1.2266 -0.9893  1.8760
15820TIP3    H268952   3.835   0.356   5.284 -3.2859 -0.8187 -0.6572
15821TIP3   OH268953   2.852   6.291   3.811 -0.7442 -0.0919 -0.2698
15821TIP3    H168954   2.934   6.255   3.778 -0.2165  0.2180  0.6968
15821TIP3    H268955   2.792   6.283   3.737 -0.2022 -1.4769 -0.5897
15822TIP3   OH268956   4.943   3.645  13.786  0.1241  0.1981  0.3339
15822TIP3    H168957   5.033   3.613  13.777 -0.5687 -1.7653  0.2011
15822TIP3    H268958   4.904   3.634  13.699 -0.6203 -0.1348  0.7049
15823TIP3   OH268959   4.586   6.461  17.018  0.4026 -0.2208 -0.2431
15823TIP3    H168960   4.585   6.483  16.925 -0.9566 -0.0712 -0.2064
15823TIP3    H268961   4.557   6.370  17.022  0.7727 -0.3273  0.0076
15824TIP3   OH268962   6.436   4.846   0.399  0.4216 -0.1069  0.6516
15824TIP3    H168963   6.489   4.855   0.478  1.3935  0.7594 -0.0951
15824TIP3    H268964   6.441   4.932   0.357 -1.5124 -0.0340  0.5239
15825TIP3   OH268965   6.042   1.861   2.658 -0.2190 -0.3093  0.0062
15825TIP3    H168966   6.090   1.783   2.689  2.3067  1.0200 -0.3864
15825TIP3    H268967   6.025   1.843   2.566  1.3225  0.0053 -0.3666
15826TIP3   OH268968   2.526   2.314  11.944 -0.3242  0.2256  0.0967
15826TIP3    H168969   2.554   2.376  11.876  1.6766 -0.9331 -0.1676
15826TIP3    H268970   2.607   2.276  11.977 -1.2004  1.3194  3.6991
15827TIP3   OH268971   5.944   3.973   1.032 -0.5854 -0.7799  0.6240
15827TIP3    H168972   5.965   3.968   0.939 -1.7964 -2.9674  0.4428
15827TIP3    H268973   5.933   4.067   1.049  1.2815 -0.2325 -1.0362
15828TIP3   OH268974   2.273   5.673  11.656  0.1313 -0.5365  0.4329
15828TIP3    H168975   2.208   5.671  11.586 -0.5556  2.3566  0.9350
15828TIP3    H268976   2.267   5.587  11.697 -2.3614 -0.8092 -0.4676
15829TIP3   OH268977   4.579   1.209  12.808 -0.8238  0.4687  0.2063
15829TIP3    H168978   4.576   1.150  12.732 -0.5370  1.6553 -0.7373
15829TIP3    H268979   4.654   1.178  12.859  0.1362  0.8105 -0.9609
15830TIP3   OH268980   1.637   3.912   5.253  0.4132  0.2798 -0.3244
15830TIP3    H168981   1.724   3.872   5.266  0.1603  0.3516  1.8562
15830TIP3    H268982   1.579   3.837   5.241  0.7759  0.2359 -1.9550
15831TIP3   OH268983   0.697   5.185  14.565 -0.7589  0.5514 -0.5853
15831TIP3    H168984   0.754   5.233  14.626  0.2947 -0.1930 -0.9683
15831TIP3    H268985   0.656   5.254  14.513  0.7031  1.0700 -1.0900
15832TIP3   OH268986   3.603   1.139   0.095  0.2355 -0.0543 -0.1745
15832TIP3    H168987   3.632   1.147   0.186 -0.2057  0.2541 -0.0556
15832TIP3    H268988   3.624   1.049   0.070  2.3090  0.4918 -0.4606
15833TIP3   OH268989   0.481   4.788  13.884 -0.2983 -0.2298 -0.4866
15833TIP3    H168990   0.397   4.823  13.915 -0.8007  0.0536 -2.1163
15833TIP3    H268991   0.547   4.842  13.929 -0.9917 -0.1390  0.4388
15834TIP3   OH268992   0.732   3.251  16.645 -0.5765  0.1967  0.5083
15834TIP3    H168993   0.685   3.260  16.562  0.6093  0.9766 -0.0865
15834TIP3    H268994   0.667   3.272  16.712 -1.6176 -0.7310 -0.2003
15835TIP3   OH268995   5.556   2.024  15.008 -0.2779  0.2564 -0.2101
15835TIP3    H168996   5.461   2.032  15.009 -0.3528 -0.5567  0.1031
15835TIP3    H268997   5.572   1.932  15.031  0.5704  0.3249 -0.5182
15836TIP3   OH268998   1.578   6.144   2.620 -0.2908  0.3969 -0.2128
15836TIP3    H168999   1.619   6.181   2.542  0.0931  1.0657  0.3075
15836TIP3    H269000   1.650   6.106   2.670 -0.7329 -1.5476 -0.9858
15837TIP3   OH269001   5.943   4.820   3.669  0.2487 -0.6779  0.0069
15837TIP3    H169002   5.979   4.770   3.596  0.6848 -1.8401  1.0050
15837TIP3    H269003   5.849   4.803   3.666  0.3260 -1.1124  0.0109
15838TIP3   OH269004   2.492   0.048  13.384  0.1602 -0.2674 -0.1636
15838TIP3    H169005   2.533  -0.028  13.426  0.1986 -0.4988 -0.6155
15838TIP3    H269006   2.516   0.122  13.439  1.6519 -0.3167 -0.7151
15839TIP3   OH269007   3.596   4.389   3.576  0.0018 -0.2731 -0.1628
15839TIP3    H169008   3.691   4.394   3.586  0.0836 -0.6839 -0.7383
15839TIP3    H269009   3.582   4.317   3.515 -0.6359  0.4595 -0.8768
15840TIP3   OH269010   6.661   6.483  12.799 -0.1899 -0.3982 -0.2558
15840TIP3    H169011   6.708   6.560  12.767 -1.2369  0.6618  0.7436
15840TIP3    H269012   6.708   6.456  12.878 -0.1561 -0.4657 -0.2984
15841TIP3   OH269013   6.207   3.560  11.205  0.9929  0.7692 -0.0556
15841TIP3    H169014   6.209   3.466  11.223  0.4313  0.5917 -0.9588
15841TIP3    H269015   6.175   3.568  11.116  0.2260  1.8621  0.2974
15842TIP3   OH269016   5.069   1.681  10.908 -0.3439  0.1523 -0.2431
15842TIP3    H169017   5.160   1.665  10.932 -0.2828 -0.3894 -0.8286
15842TIP3    H269018   5.038   1.598  10.873 -0.9638  0.4305 -0.3698
15843TIP3   OH269019   0.124   5.666   1.218  0.1582 -0.0562 -0.3092
15843TIP3    H169020   0.123   5.608   1.294  1.5492 -0.4055 -0.5418
15843TIP3    H269021   0.111   5.754   1.254  2.3114 -0.0434  0.5346
15844TIP3   OH269022   6.122   3.905   3.870  0.1147  0.2558  0.4640
15844TIP3    H169023   6.208   3.934   3.901  0.9488 -1.8576  0.2025
15844TIP3    H269024   6.121   3.930   3.777  0.1453  0.9408  0.6432
15845TIP3   OH269025   3.703   4.374  15.746 -0.3822 -0.1027 -0.1095
15845TIP3    H169026   3.698   4.282  15.720  0.3568  0.4326 -2.2446
15845TIP3    H269027   3.655   4.420  15.678 -0.6022  1.1139  0.8649
15846TIP3   OH269028   4.264   6.166  16.701 -0.5187  0.0465  0.4848
15846TIP3    H169029   4.244   6.217  16.780 -0.8891  3.9465 -2.0043
15846TIP3    H269030   4.358   6.178  16.688 -0.9456  1.9533 -1.2351
15847TIP3   OH269031   4.954   2.368   5.558 -0.1033  0.2956 -0.1762
15847TIP3    H169032   5.045   2.345   5.539 -0.1582 -0.9815  1.0454
15847TIP3    H269033   4.931   2.317   5.635 -1.6023  1.2488  0.0500
15848TIP3   OH269034   3.092   3.442  17.086 -0.0671  0.2955 -0.5316
15848TIP3    H169035   3.163   3.420  17.145 -0.0750  3.1061  0.6227
15848TIP3    H269036   3.130   3.433  16.998  1.0072 -0.4516  0.0078
15849TIP3   OH269037   3.280   5.750  15.010  0.2560  0.6813 -0.1238
15849TIP3    H169038   3.352   5.808  15.034  1.0891  0.9114 -2.9885
15849TIP3    H269039   3.322   5.674  14.971 -0.9001 -1.3057  2.3807
15850TIP3   OH269040   6.131   1.075   2.543 -0.4860  0.4562 -0.1258
15850TIP3    H169041   6.178   1.097   2.624 -0.6065  0.3835 -0.0368
15850TIP3    H269042   6.039   1.071   2.569 -0.4327 -0.5206 -0.0610
15851TIP3   OH269043   5.106   2.753   1.430  0.1693 -0.4895  0.0320
15851TIP3    H169044   5.061   2.669   1.441  1.9604 -1.4624  0.0635
15851TIP3    H269045   5.058   2.812   1.488 -1.3626 -1.3762 -0.2880
15852TIP3   OH269046   6.517   3.525  13.174 -0.5051  0.3550  0.3438
15852TIP3    H169047   6.451   3.486  13.116  0.6594 -0.6680 -0.3144
15852TIP3    H269048   6.471   3.538  13.257 -1.3922 -0.8480  0.0608
15853TIP3   OH269049   2.503   1.729  13.341  0.0661 -0.6788  0.4336
15853TIP3    H169050   2.558   1.802  13.312 -0.1837  0.4048  2.5571
15853TIP3    H269051   2.496   1.672  13.265  0.4529  1.4032 -1.1978
15854TIP3   OH269052   4.097   2.636   6.644 -0.3569 -0.1228  0.1021
15854TIP3    H169053   4.126   2.701   6.580 -4.3697  0.7401 -0.9426
15854TIP3    H269054   4.068   2.561   6.592 -0.5507 -0.7232  1.0537
15855TIP3   OH269055   1.821   4.239  13.350 -0.7728 -0.3558 -0.2693
15855TIP3    H169056   1.764   4.259  13.425 -0.4198  0.9476 -0.3409
15855TIP3    H269057   1.824   4.320  13.300  0.1262 -0.8040 -0.9512
15856TIP3   OH269058   0.538   3.611  15.899 -0.4376  0.3799  0.0875
15856TIP3    H169059   0.500   3.529  15.867 -0.1581 -0.1200  1.0378
15856TIP3    H269060   0.571   3.654  15.819 -0.7282 -0.3522 -0.4345
15857TIP3   OH269061   4.850   5.217   0.553 -0.1591  0.3302 -0.4859
15857TIP3    H169062   4.777   5.242   0.610  1.5131 -0.6207  2.1519
15857TIP3    H269063   4.899   5.299   0.541 -0.5726  0.5577 -0.6145
15858TIP3   OH269064   2.640   3.404   3.332  0.1475 -0.2598 -0.2777
15858TIP3    H169065   2.722   3.441   3.299  0.0060 -1.2442 -1.7971
15858TIP3    H269066   2.654   3.309   3.329 -0.7285 -0.4166  0.3148
15859TIP3   OH269067   2.105   3.620   1.394  0.3665  0.4182  0.1179
15859TIP3    H169068   2.045   3.694   1.403  1.1500  0.9060  1.6306
15859TIP3    H269069   2.065   3.550   1.446  0.5677  0.3974  0.2462
15860TIP3   OH269070   4.698   0.750   1.174  0.5264  0.1112  0.2304
15860TIP3    H169071   4.626   0.765   1.113  0.0659  1.0025  0.9861
15860TIP3    H269072   4.768   0.808   1.143  0.5544  0.0225  0.1245
15861TIP3   OH269073   5.058   1.224   4.964 -0.0293  0.0386  0.4986
15861TIP3    H169074   5.020   1.257   4.882  3.1226 -0.5683 -1.3317
15861TIP3    H269075   5.037   1.290   5.029  2.1360  3.4757 -2.0715
15862TIP3   OH269076   2.396   5.012  17.085  0.0779 -0.1530 -0.1012
15862TIP3    H169077   2.347   5.054  17.156 -0.5960 -1.2193  0.0722
15862TIP3    H269078   2.391   4.918  17.104  1.3891 -0.3331 -0.6079
15863TIP3   OH269079   0.307   2.770  16.773 -0.2009  0.8641 -0.1295
15863TIP3    H169080   0.310   2.677  16.794  0.6267  0.4576 -1.9132
15863TIP3    H269081   0.263   2.774  16.688 -0.3683  2.1233  0.0080
15864TIP3   OH269082   1.065   5.030   1.351  0.7212  0.1030 -0.1757
15864TIP3    H169083   1.039   4.976   1.426  0.8344 -1.2056 -1.0672
15864TIP3    H269084   1.107   5.106   1.391  0.0742 -0.1890  1.1166
15865TIP3   OH269085   3.383   4.714   5.996 -0.0692 -0.0392  0.3598
15865TIP3    H169086   3.307   4.697   6.051 -0.2591  0.6161  0.3009
15865TIP3    H269087   3.421   4.627   5.980 -2.3903 -0.7122 -1.8990
15866TIP3   OH269088   5.125   6.299   5.856  0.0095  0.4488 -0.4797
15866TIP3    H169089   5.117   6.240   5.781 -1.6725  0.8558 -0.6360
15866TIP3    H269090   5.107   6.244   5.932  0.3264  0.3487 -0.4755
15867TIP3   OH269091   3.551   6.123   1.133  0.0738  0.2897 -0.7663
15867TIP3    H169092   3.601   6.083   1.204  0.2713  2.5260  0.3728
15867TIP3    H269093   3.469   6.074   1.131  1.6945 -2.4967 -1.7334
15868TIP3   OH269094   4.943   4.637  14.058  0.0554  0.2963  0.1967
15868TIP3    H169095   5.037   4.617  14.061 -0.0732 -0.3011  0.1472
15868TIP3    H269096   4.908   4.599  14.139 -0.2054  0.2228  0.0492
15869TIP3   OH269097   5.459   0.826  13.038  0.3706  0.2547 -0.0412
15869TIP3    H169098   5.498   0.855  13.121 -0.8175 -0.2033  0.6897
15869TIP3    H269099   5.368   0.806  13.060  0.2974 -0.8231 -1.2510
15870TIP3   OH269100   4.959   2.705  13.346 -0.5620  0.6501 -0.2067
15870TIP3    H169101   4.936   2.747  13.428  2.8743 -1.1459  1.8151
15870TIP3    H269102   4.986   2.777  13.289 -2.4249  1.8654  0.4189
15871TIP3   OH269103   3.749   4.390   2.188 -0.0602  0.2782 -0.3624
15871TIP3    H169104   3.736   4.459   2.253 -0.4667  1.0552 -1.2449
15871TIP3    H269105   3.838   4.359   2.203 -0.4827 -0.2334  1.1857
15872TIP3   OH269106   6.208   4.212  11.276 -0.2361  1.2151 -0.4963
15872TIP3    H169107   6.290   4.168  11.297 -0.5563 -0.2710 -2.2871
15872TIP3    H269108   6.158   4.211  11.358  0.8526  0.6655  0.1693
15873TIP3   OH269109   4.460   4.185  16.718 -0.3253  0.0950 -0.5612
15873TIP3    H169110   4.544   4.138  16.719  0.4897  1.5113  0.6003
15873TIP3    H269111   4.404   4.135  16.778  0.6077  0.7041  0.8506
15874TIP3   OH269112   1.692   3.485   3.516 -0.2803  0.2241 -0.4533
15874TIP3    H169113   1.625   3.499   3.583  0.0237  0.8283 -0.2678
15874TIP3    H269114   1.661   3.409   3.466 -1.6213  1.1073 -1.0158
15875TIP3   OH269115   3.528   1.168   5.699  0.4156  0.1885 -0.4151
15875TIP3    H169116   3.511   1.157   5.605  1.9302  0.3655 -0.7320
15875TIP3    H269117   3.443   1.155   5.741 -0.5777  1.6282 -1.9181
15876TIP3   OH269118   0.883   2.592   0.727 -0.0648  0.0572 -0.1622
15876TIP3    H169119   0.824   2.568   0.654  0.2202  0.6889 -0.5993
15876TIP3    H269120   0.824   2.606   0.801 -0.2695 -1.7290  0.0375
15877TIP3   OH269121   3.861   3.081  13.144  0.2153  0.2850 -0.1685
15877TIP3    H169122   3.902   2.999  13.117  0.3422  0.3180 -0.0709
15877TIP3    H269123   3.777   3.054  13.183 -1.4291  0.4122 -3.4234
15878TIP3   OH269124   4.805   2.445   1.040  0.2059 -0.2560  0.3451
15878TIP3    H169125   4.839   2.535   1.042  1.5077 -0.7089 -0.8857
15878TIP3    H269126   4.882   2.390   1.052 -0.4844 -1.2327  0.3460
15879TIP3   OH269127   3.728   0.322  15.711  0.2606 -0.1628 -0.7309
15879TIP3    H169128   3.682   0.246  15.676  0.8848 -0.2760 -1.3212
15879TIP3    H269129   3.668   0.396  15.695  0.6546 -0.1668 -2.3257
15880TIP3   OH269130   0.680   0.951  11.604 -0.1426 -0.5111 -0.0332
15880TIP3    H169131   0.737   0.878  11.630 -0.8385 -0.4591  1.6980
15880TIP3    H269132   0.737   1.008  11.553  0.4995 -2.0969 -1.1342
15881TIP3   OH269133   6.789   3.604  15.382  0.4318  0.3160 -0.3402
15881TIP3    H169134   6.756   3.516  15.361 -0.0246  0.0464  1.4261
15881TIP3    H269135   6.783   3.609  15.477 -2.0882  3.2577 -0.5842
15882TIP3   OH269136   2.089   1.159   6.326 -0.0192  0.3980  0.0793
15882TIP3    H169137   2.031   1.109   6.383 -0.8709 -0.1437 -1.2193
15882TIP3    H269138   2.162   1.100   6.307 -0.0749  0.3354  0.0628
15883TIP3   OH269139   1.303   0.034  11.001  0.3082  0.0528 -0.7920
15883TIP3    H169140   1.213   0.003  10.990 -0.0675  0.5527  0.7229
15883TIP3    H269141   1.352  -0.044  11.027 -0.1205  0.1871  0.4682
15884TIP3   OH269142   1.673   2.638   3.411 -0.2296 -0.1309  0.2628
15884TIP3    H169143   1.741   2.607   3.470 -0.8992  0.1229  1.1785
15884TIP3    H269144   1.610   2.567   3.407 -0.4567  0.0692  0.2827
15885TIP3   OH269145   6.183   5.299  13.615 -0.3107 -0.2736  0.4475
15885TIP3    H169146   6.106   5.266  13.568 -0.3401  1.2520 -0.6103
15885TIP3    H269147   6.257   5.261  13.568 -0.3909 -1.8213  1.5255
15886TIP3   OH269148   4.245   2.343   1.110 -0.5775 -0.1354  0.4913
15886TIP3    H169149   4.215   2.431   1.084 -0.7351 -0.4892 -0.5574
15886TIP3    H269150   4.332   2.335   1.071 -0.8787 -0.7311 -0.0700
15887TIP3   OH269151   4.465   6.116   5.027 -0.3246 -0.4813 -0.1328
15887TIP3    H169152   4.372   6.101   5.010 -0.0025  0.7501 -3.4258
15887TIP3    H269153   4.508   6.039   4.991 -0.0600 -1.3018  1.8694
15888TIP3   OH269154   2.351   1.365   2.097 -0.8000  0.3482 -0.0974
15888TIP3    H169155   2.301   1.374   2.178 -1.8620 -0.4914 -0.6304
15888TIP3    H269156   2.438   1.338   2.126 -1.2520 -0.2485  0.7612
15889TIP3   OH269157   2.937   4.324  16.351  0.3275 -0.1417  0.1351
15889TIP3    H169158   2.911   4.271  16.276 -0.2184  0.8738 -0.4050
15889TIP3    H269159   2.949   4.412  16.316  1.2951  0.0948  1.0066
15890TIP3   OH269160   6.428   5.989   4.252  0.0863  0.5772  0.3476
15890TIP3    H169161   6.458   5.900   4.230  0.0774  0.4972  0.6590
15890TIP3    H269162   6.505   6.044   4.236  0.3518  0.3938  0.9921
15891TIP3   OH269163   2.936   1.539   3.177  0.1876 -0.1479 -0.4094
15891TIP3    H169164   3.019   1.495   3.197 -0.1156 -0.8848 -0.7773
15891TIP3    H269165   2.876   1.511   3.245  0.7955  2.0301  1.0913
15892TIP3   OH269166   2.562   5.158   4.926 -0.2374 -0.4787  0.4237
15892TIP3    H169167   2.535   5.079   4.879 -0.8358 -1.8215  2.9188
15892TIP3    H269168   2.656   5.165   4.910 -0.9494  1.0531 -3.7085
15893TIP3   OH269169   5.663   3.872   0.691  0.4634  0.0614 -0.2292
15893TIP3    H169170   5.676   3.962   0.723 -1.1777 -0.3281  1.6163
15893TIP3    H269171   5.597   3.881   0.621  0.7136  0.3573 -0.4293
15894TIP3   OH269172   1.123   5.090  16.817 -0.0223 -0.1921 -0.4981
15894TIP3    H169173   1.132   5.180  16.850  0.5176 -1.3522  2.6691
15894TIP3    H269174   1.209   5.068  16.782  0.7012 -0.4867  1.4274
15895TIP3   OH269175   2.337   5.501  15.502 -1.0046 -0.0286  0.2775
15895TIP3    H169176   2.294   5.583  15.527  0.1686  0.0016  2.3413
15895TIP3    H269177   2.278   5.461  15.438 -1.4851  2.5172 -0.9158
15896TIP3   OH269178   1.981   0.675   1.883  0.3616 -0.5799 -0.5116
15896TIP3    H169179   1.977   0.582   1.906 -0.0579 -0.0741  1.5938
15896TIP3    H269180   1.907   0.715   1.929  0.4071  0.7706 -1.5680
15897TIP3   OH269181   1.332   4.225  16.368  0.1398 -0.0888 -0.3736
15897TIP3    H169182   1.311   4.315  16.394 -0.9522 -0.9269  1.7962
15897TIP3    H269183   1.420   4.211  16.402  0.4912  0.2864 -1.1083
15898TIP3   OH269184   6.606   2.983   4.336 -0.0315  0.0373  0.1861
15898TIP3    H169185   6.526   2.962   4.289 -0.4097  0.3220  0.6899
15898TIP3    H269186   6.626   2.903   4.386 -0.2808  0.1308  0.4416
15899TIP3   OH269187   5.218   0.944   3.151 -0.1190 -0.6254  0.3180
15899TIP3    H169188   5.213   0.993   3.233  1.3133  0.8134 -0.4204
15899TIP3    H269189   5.218   1.011   3.083 -0.2812 -1.7592 -0.8174
15900TIP3   OH269190   4.389   3.882   1.509  0.1101 -0.5748 -1.0372
15900TIP3    H169191   4.461   3.919   1.458  1.0934 -0.9219  0.0869
15900TIP3    H269192   4.428   3.811   1.559 -0.0824  1.7435  2.6794
15901TIP3   OH269193   2.129   5.709   4.757 -0.6112 -0.4940  0.2982
15901TIP3    H169194   2.217   5.730   4.727 -1.0535 -0.7341 -1.2334
15901TIP3    H269195   2.072   5.734   4.683 -1.5252 -3.2572  0.0252
15902TIP3   OH269196   6.638   6.696   1.381  0.3943  0.1921  0.2579
15902TIP3    H169197   6.692   6.775   1.378  2.9382 -1.3888  2.1893
15902TIP3    H269198   6.580   6.710   1.456 -0.4000  0.9512 -0.4815
15903TIP3   OH269199   0.592   4.037   2.876  0.0260 -0.0062 -0.0651
15903TIP3    H169200   0.524   3.971   2.861  1.1942 -1.4108  0.7042
15903TIP3    H269201   0.586   4.096   2.801 -0.8063 -1.1921 -0.9304
15904TIP3   OH269202   6.135   0.434  14.764  0.8548 -0.2233  0.4123
15904TIP3    H169203   6.066   0.414  14.702  1.4484 -0.7956 -0.0784
15904TIP3    H269204   6.135   0.529  14.771 -0.6811 -0.2718  1.2362
15905TIP3   OH269205   6.242   5.879   5.052  0.0760  0.3350 -0.3888
15905TIP3    H169206   6.267   5.801   5.002  2.1342 -1.0152  2.5559
15905TIP3    H269207   6.305   5.946   5.025  0.0563  0.1489 -0.9042
15906TIP3   OH269208   5.448   6.065  10.959  0.3097 -0.2291  0.1388
15906TIP3    H169209   5.363   6.059  11.002  0.3747  0.7460  0.4136
15906TIP3    H269210   5.442   6.003  10.886 -0.6936 -0.0481  0.0538
15907TIP3   OH269211   4.703   0.970  12.277 -0.3062  0.0276 -0.1423
15907TIP3    H169212   4.737   0.925  12.354  0.2254  0.5747 -0.0524
15907TIP3    H269213   4.773   0.962  12.212 -0.4026  0.2978 -0.2828
15908TIP3   OH269214   2.081   3.583   3.273 -0.4296  0.3793  0.0763
15908TIP3    H169215   2.042   3.553   3.355 -0.7438  0.3407 -0.0853
15908TIP3    H269216   2.152   3.641   3.299  0.4502 -0.8337  0.4086
15909TIP3   OH269217   0.674   3.818  12.248 -0.8590  0.0496  0.2046
15909TIP3    H169218   0.582   3.808  12.273 -0.5356 -1.3634  0.8703
15909TIP3    H269219   0.722   3.809  12.330 -0.0862  0.2270 -0.2206
15910TIP3   OH269220   0.398   5.422  12.879  0.4124 -0.4892 -1.0104
15910TIP3    H169221   0.318   5.458  12.917 -0.7700 -0.5248 -3.3524
15910TIP3    H269222   0.468   5.478  12.912 -0.4821 -0.7722  1.5027
15911TIP3   OH269223   4.577   0.523   3.480  0.0632 -0.5093  0.2373
15911TIP3    H169224   4.633   0.600   3.494 -0.5136  0.0164 -0.3650
15911TIP3    H269225   4.580   0.507   3.386 -1.1485 -0.2261  0.1513
15912TIP3   OH269226   0.512   1.865  13.011 -0.1959  0.3619  0.0895
15912TIP3    H169227   0.520   1.780  13.055 -0.9217  0.9607  1.3808
15912TIP3    H269228   0.506   1.842  12.918  0.0870 -0.9752  0.3781
15913TIP3   OH269229   2.496   2.362   5.203 -0.0266 -0.3058  0.8930
15913TIP3    H169230   2.441   2.397   5.133 -0.6466 -0.0043  1.5282
15913TIP3    H269231   2.456   2.278   5.225  2.4506 -2.3195 -1.8281
15914TIP3   OH269232   1.735   4.042   1.592 -0.0483  0.2629 -0.0390
15914TIP3    H169233   1.688   4.118   1.557  1.7049  1.6099  0.4544
15914TIP3    H269234   1.669   3.973   1.595 -1.3249  1.3527 -1.8498
15915TIP3   OH269235   3.727   0.576  11.295  0.1682  0.1269 -0.1554
15915TIP3    H169236   3.795   0.524  11.337 -0.7425  0.6666  2.0575
15915TIP3    H269237   3.763   0.664  11.292 -0.2175  0.3103  0.5406
15916TIP3   OH269238   5.312   3.571   3.919 -0.5426 -0.1912 -0.4188
15916TIP3    H169239   5.217   3.561   3.917 -0.5080 -0.4103 -1.0571
15916TIP3    H269240   5.330   3.641   3.856 -0.2771 -0.1900 -0.3438
15917TIP3   OH269241   0.253   6.558   2.740  0.1702 -0.1077  0.2435
15917TIP3    H169242   0.207   6.518   2.667  0.7740  0.0268 -0.2146
15917TIP3    H269243   0.330   6.599   2.701  0.2682  0.3422  0.8929
15918TIP3   OH269244   3.151   5.283   4.322  0.0852 -0.1664 -0.3435
15918TIP3    H169245   3.147   5.252   4.231 -0.1910  1.3367 -0.8643
15918TIP3    H269246   3.064   5.263   4.358 -0.2790  0.4786 -0.8435
15919TIP3   OH269247   5.530   6.711   2.765 -0.1269  0.1851 -0.0812
15919TIP3    H169248   5.579   6.664   2.698  0.5833  0.7354  0.0573
15919TIP3    H269249   5.596   6.748   2.823 -0.7378 -0.4033  1.0106
15920TIP3   OH269250   0.417   2.062  15.651  0.5966 -0.3589 -0.3375
15920TIP3    H169251   0.387   2.150  15.672 -1.2152 -0.7298 -1.2935
15920TIP3    H269252   0.422   2.017  15.736 -1.3472 -0.2062 -0.1135
15921TIP3   OH269253   3.967   3.772   1.871  0.3837  0.1094  0.2466
15921TIP3    H169254   3.910   3.758   1.795 -0.5466  2.9197  0.3727
15921TIP3    H269255   4.055   3.749   1.840 -0.2189 -0.2926 -1.2052
15922TIP3   OH269256   0.288   3.878   2.115 -0.4016  0.2825  0.0339
15922TIP3    H169257   0.282   3.899   2.022 -0.6875 -1.2873 -0.3117
15922TIP3    H269258   0.224   3.808   2.129 -0.6454  0.7681  1.4968
15923TIP3   OH269259   2.978   3.764   4.180 -0.3229 -0.1708  0.4011
15923TIP3    H169260   2.958   3.684   4.131  0.1183 -1.6447  2.5468
15923TIP3    H269261   2.900   3.780   4.232 -0.6414  1.1638 -0.4769
15924TIP3   OH269262   6.736   5.562  14.492  0.4414  0.1947 -0.1452
15924TIP3    H169263   6.821   5.598  14.467  0.8233  0.0312  0.8932
15924TIP3    H269264   6.700   5.627  14.553 -0.0558  0.1228 -0.3560
15925TIP3   OH269265   2.776   1.050   4.238 -0.2275  0.0190 -0.0447
15925TIP3    H169266   2.805   1.015   4.322  1.0031 -0.1721 -0.5288
15925TIP3    H269267   2.841   1.116   4.216 -1.5747  1.3748  0.0247
15926TIP3   OH269268   5.307   0.477  11.972 -0.3972 -0.1075  0.3916
15926TIP3    H169269   5.240   0.471  11.905 -0.9385 -1.2694  1.0221
15926TIP3    H269270   5.385   0.509  11.926 -0.1443 -2.8857 -1.2340
15927TIP3   OH269271   1.858   1.002   2.883  0.3989  0.1337 -0.6169
15927TIP3    H169272   1.817   1.059   2.817  0.3900 -1.0076 -1.6246
15927TIP3    H269273   1.869   1.058   2.960  2.3652  2.1221 -2.2587
15928TIP3   OH269274   1.512   3.249  11.322 -0.0109 -0.4569  0.3458
15928TIP3    H169275   1.475   3.327  11.280  0.3155  0.9239  2.5021
15928TIP3    H269276   1.593   3.280  11.363 -0.0136 -1.8634  1.4659
15929TIP3   OH269277   0.770   5.735  15.443  0.3203  0.2508  0.0891
15929TIP3    H169278   0.710   5.666  15.412 -0.0853  1.3784 -1.7540
15929TIP3    H269279   0.733   5.816  15.407  2.1886  1.1321  0.1063
15930TIP3   OH269280   1.126   2.642  16.257 -0.1823  0.4364 -0.2669
15930TIP3    H169281   1.065   2.702  16.300 -0.2796  0.4656 -0.4417
15930TIP3    H269282   1.187   2.615  16.326  1.3387  2.6084 -0.7093
15931TIP3   OH269283   4.404   1.926   2.771 -0.1003  0.3163  0.3468
15931TIP3    H169284   4.430   1.854   2.714 -0.1899 -0.5363  1.3690
15931TIP3    H269285   4.319   1.953   2.737 -1.9009 -2.6192  2.2647
15932TIP3   OH269286   6.226   2.229  16.466 -0.1256 -0.5639 -0.1149
15932TIP3    H169287   6.142   2.271  16.479  0.6232  0.8365  0.2135
15932TIP3    H269288   6.253   2.257  16.379 -0.3756 -1.6889 -0.5659
15933TIP3   OH269289   1.786   4.940  14.352  0.3239 -0.1288 -0.5522
15933TIP3    H169290   1.700   4.941  14.392 -1.0798 -0.9618 -3.4012
15933TIP3    H269291   1.782   5.009  14.284  1.1359 -1.5963 -2.1355
15934TIP3   OH269292   6.429   4.293   2.929  0.1664  0.2798  0.4022
15934TIP3    H169293   6.471   4.267   3.011  0.3526  0.1374  0.2617
15934TIP3    H269294   6.494   4.348   2.885  1.0249 -1.5755 -0.7494
15935TIP3   OH269295   2.629   6.743  14.149  0.0639  0.0499  0.8853
15935TIP3    H169296   2.694   6.677  14.126  1.1633  1.0021  1.2002
15935TIP3    H269297   2.549   6.714  14.106  1.6995  1.0431 -3.1525
15936TIP3   OH269298   5.351   4.237   3.062 -0.1058 -0.1881  0.2236
15936TIP3    H169299   5.435   4.265   3.098 -1.1665  1.5657  1.4176
15936TIP3    H269300   5.319   4.313   3.013 -1.2162 -0.6705  0.1854
15937TIP3   OH269301   3.484   5.553   1.895  0.2006  0.3283 -0.1880
15937TIP3    H169302   3.481   5.639   1.937  0.3104  0.2255  0.0337
15937TIP3    H269303   3.574   5.523   1.910  0.0310 -0.0210  0.1355
15938TIP3   OH269304   2.523   6.265  17.085  0.3356  0.0057  0.0501
15938TIP3    H169305   2.598   6.301  17.131 -0.7183  0.6585  1.2717
15938TIP3    H269306   2.470   6.223  17.153 -0.1324 -0.9404 -0.8754
15939TIP3   OH269307   4.043   4.104  17.012  0.3466 -0.0780  0.2076
15939TIP3    H169308   3.995   4.111  16.930  0.5114  0.2091  0.1366
15939TIP3    H269309   4.085   4.017  17.008  1.7412  0.6156 -0.7773
15940TIP3   OH269310   1.519   4.859   2.093  0.2018 -0.4400 -0.0526
15940TIP3    H169311   1.543   4.833   2.005 -0.1927 -2.4942  0.4201
15940TIP3    H269312   1.578   4.810   2.150 -1.0514 -0.8886  0.8846
15941TIP3   OH269313   4.115   4.426   4.285 -0.3919  0.3270 -0.4648
15941TIP3    H169314   4.025   4.457   4.289 -0.5074 -0.2135  1.3881
15941TIP3    H269315   4.108   4.335   4.256 -0.4534  0.2237 -0.1243
15942TIP3   OH269316   0.085   1.233   0.357  0.2270  0.2213  0.6820
15942TIP3    H169317   0.021   1.286   0.405  0.9505 -0.1117  2.0444
15942TIP3    H269318   0.128   1.181   0.425  0.3071 -1.2782 -0.5129
15943TIP3   OH269319   1.967   1.643   5.511  0.8583 -0.5933  0.5218
15943TIP3    H169320   2.058   1.615   5.522  0.9481  0.4518  2.8329
15943TIP3    H269321   1.941   1.674   5.598 -2.1861 -2.2170  0.2493
15944TIP3   OH269322   2.257   0.461   3.586 -0.0959 -0.3399  0.0016
15944TIP3    H169323   2.226   0.541   3.543 -2.9905 -0.4498  1.7830
15944TIP3    H269324   2.319   0.493   3.652 -0.9141  0.4276  0.4140
15945TIP3   OH269325   3.673   1.550   0.485  0.2816  0.4840 -0.0256
15945TIP3    H169326   3.748   1.492   0.472 -0.8904 -0.7229 -1.6894
15945TIP3    H269327   3.712   1.636   0.501  2.0319  0.0463 -1.7017
15946TIP3   OH269328   2.072   5.953  11.421  0.3239 -0.0495  0.0252
15946TIP3    H169329   2.163   5.960  11.450 -0.0092 -0.1563  1.1150
15946TIP3    H269330   2.021   5.951  11.502 -0.7299  1.1310 -0.5821
15947TIP3   OH269331   0.720   6.642   2.939 -0.4307  0.3945  0.4437
15947TIP3    H169332   0.684   6.676   3.021  0.7165  2.4720  0.1121
15947TIP3    H269333   0.650   6.586   2.904 -0.8078 -0.7967  2.9647
15948TIP3   OH269334   3.601   0.408  17.010 -0.3135  0.2971 -0.7808
15948TIP3    H169335   3.541   0.373  17.076  2.6136 -1.4721  1.0411
15948TIP3    H269336   3.574   0.367  16.928 -1.5360 -0.5319  0.0340
15949TIP3   OH269337   2.777   1.077  11.936 -0.2503 -0.7027  0.1980
15949TIP3    H169338   2.787   1.133  12.014 -0.3839 -0.7457  0.2468
15949TIP3    H269339   2.829   0.999  11.956 -0.1255 -0.6288  0.1627
15950TIP3   OH269340   0.310   6.200  11.768  0.1450 -0.3538  0.0200
15950TIP3    H169341   0.216   6.209  11.753  0.3457  0.9579 -0.4719
15950TIP3    H269342   0.327   6.255  11.845  0.1681 -2.2168  1.3864
15951TIP3   OH269343   0.733   1.076  13.604  0.0188  0.0951  0.0519
15951TIP3    H169344   0.775   1.062  13.518 -1.3472 -1.6647 -0.3650
15951TIP3    H269345   0.694   1.163  13.598 -0.5050 -0.2171 -1.3283
15952TIP3   OH269346   6.172   0.321  11.202  0.3241 -0.8943 -0.1194
15952TIP3    H169347   6.204   0.233  11.180  1.5862 -0.9454  1.7827
15952TIP3    H269348   6.244   0.379  11.181  0.3143 -0.5736  0.7083
15953TIP3   OH269349   1.977   2.733  12.927  0.1313  0.0185 -0.1853
15953TIP3    H169350   1.919   2.809  12.934  0.6738  0.3355  0.9151
15953TIP3    H269351   2.063   2.767  12.948  0.4666 -0.7989 -0.2371
15954TIP3   OH269352   1.617   4.022   3.213 -0.5203  0.8763  0.0169
15954TIP3    H169353   1.694   3.967   3.232 -1.2079  0.3989  1.5154
15954TIP3    H269354   1.601   4.069   3.295 -1.3741  1.5514 -0.5297
15955TIP3   OH269355   1.240   1.514   1.734 -0.0735  0.3680 -0.2844
15955TIP3    H169356   1.261   1.607   1.744 -1.4373  0.6413  0.2010
15955TIP3    H269357   1.281   1.488   1.651  0.8571  1.2326 -0.1030
15956TIP3   OH269358   3.263   4.485   0.304 -0.3821 -0.7685  0.2604
15956TIP3    H169359   3.341   4.539   0.291  0.7223 -2.4273 -0.2213
15956TIP3    H269360   3.202   4.516   0.238  0.9149 -1.3092 -1.2310
15957TIP3   OH269361   0.973   0.098  15.640 -0.2213  0.6941 -0.4790
15957TIP3    H169362   0.989   0.005  15.625 -0.4497  0.4745  0.5576
15957TIP3    H269363   0.942   0.102  15.731 -1.2763  1.6549 -0.8791
15958TIP3   OH269364   2.400   4.593  13.121 -0.0286  0.4189  0.1709
15958TIP3    H169365   2.424   4.660  13.056 -0.1015  0.1983 -0.0870
15958TIP3    H269366   2.479   4.540  13.130  0.2225  0.8997  0.8246
15959TIP3   OH269367   6.477   3.602   3.260  0.1863 -0.0234  0.0687
15959TIP3    H169368   6.446   3.596   3.351  2.8260  2.0781  1.1718
15959TIP3    H269369   6.535   3.527   3.250 -0.7418 -0.7205 -0.1647
15960TIP3   OH269370   5.789   5.710   4.683 -0.5055 -0.0340 -0.0662
15960TIP3    H169371   5.725   5.747   4.622 -1.7298 -1.3548  0.3991
15960TIP3    H269372   5.872   5.715   4.636 -1.5549 -1.9204 -2.2651
15961TIP3   OH269373   0.510   6.432  15.873 -0.0265  0.0673  0.1681
15961TIP3    H169374   0.507   6.374  15.948  0.3897 -1.0813 -0.6908
15961TIP3    H269375   0.466   6.384  15.803 -1.8379  1.7668  0.0792
15962TIP3   OH269376   0.252   0.167  16.950  0.0301 -0.0111 -0.1024
15962TIP3    H169377   0.272   0.089  16.898 -0.0731 -0.5805  0.6914
15962TIP3    H269378   0.171   0.145  16.996  0.5254  0.1819  0.8729
15963TIP3   OH269379   4.085   0.726   0.656  0.2344 -0.1843  0.1612
15963TIP3    H169380   3.996   0.760   0.657  0.8209  1.4102 -0.2354
15963TIP3    H269381   4.111   0.726   0.748  0.2267  0.5000  0.1721
15964TIP3   OH269382   4.925   0.769   2.632 -0.3598  0.6396 -0.8590
15964TIP3    H169383   4.989   0.830   2.595 -1.2940  1.5971 -0.9409
15964TIP3    H269384   4.939   0.774   2.727  1.4452 -1.1498 -1.0088
15965TIP3   OH269385   6.151   2.622   0.598 -0.4989 -0.1200  0.3040
15965TIP3    H169386   6.243   2.612   0.623  0.0436  0.4681 -1.3885
15965TIP3    H269387   6.128   2.710   0.627  0.7079  1.3353 -2.8330
15966TIP3   OH269388   3.869   3.279  15.997  0.1180 -0.1132  0.5965
15966TIP3    H169389   3.856   3.335  15.921  1.8791  0.6868  0.8482
15966TIP3    H269390   3.943   3.319  16.044 -0.4713 -0.9992  2.3341
15967TIP3   OH269391   0.620   3.029  16.020 -0.0499 -0.5307  0.2894
15967TIP3    H169392   0.675   3.091  16.067 -0.4616 -1.1578  1.6491
15967TIP3    H269393   0.539   3.077  16.002 -0.1430 -0.4820  0.8249
15968TIP3   OH269394   1.103   1.295  13.538 -0.0271 -0.4877 -0.4649
15968TIP3    H169395   1.075   1.220  13.591 -0.4847  0.5235  0.7436
15968TIP3    H269396   1.032   1.306  13.475 -0.4045 -0.4922 -0.0475
15969TIP3   OH269397   6.421   5.702   0.348 -0.2752  0.0564 -0.0289
15969TIP3    H169398   6.352   5.762   0.377  0.6501  0.6758  0.9506
15969TIP3    H269399   6.501   5.755   0.353  0.9235 -1.9607  3.2192
15970TIP3   OH269400   4.036   2.484  14.228 -0.1825  0.6767  0.1525
15970TIP3    H169401   4.056   2.390  14.233  0.2862  0.8033  0.6841
15970TIP3    H269402   3.961   2.489  14.169  0.5544  0.0725 -0.8563
15971TIP3   OH269403   1.577   1.883  11.776  0.0644 -0.5667  0.2017
15971TIP3    H169404   1.607   1.792  11.780  0.7813 -0.3684 -0.5821
15971TIP3    H269405   1.625   1.927  11.847 -0.8398 -0.9464  1.0674
15972TIP3   OH269406   4.740   0.864   6.380 -0.3414 -0.3665 -0.0121
15972TIP3    H169407   4.832   0.876   6.403 -0.1747  0.4207 -1.0657
15972TIP3    H269408   4.692   0.908   6.451  0.0283 -2.2781  1.4656
15973TIP3   OH269409   4.277   2.734  13.749 -0.0196 -0.6830  0.3610
15973TIP3    H169410   4.370   2.713  13.760 -0.0206 -0.5862  0.5638
15973TIP3    H269411   4.257   2.792  13.823 -0.1855 -0.5206  0.1879
15974TIP3   OH269412   4.691   2.528   4.682  0.1267 -0.2207  0.5087
15974TIP3    H169413   4.785   2.540   4.688 -0.1821  1.6536  1.7225
15974TIP3    H269414   4.658   2.550   4.768 -1.7322  1.9919 -0.7239
15975TIP3   OH269415   1.692   5.695   3.203 -0.0810 -0.4668  0.0926
15975TIP3    H169416   1.694   5.774   3.150  0.7742  0.1195  0.9737
15975TIP3    H269417   1.655   5.723   3.287  3.0891 -0.3093  1.4824
15976TIP3   OH269418   5.295   2.396   1.621  0.0589  0.0721  0.5436
15976TIP3    H169419   5.371   2.349   1.657 -0.9658 -2.0019  0.1230
15976TIP3    H269420   5.222   2.371   1.678 -0.7093  0.3255 -0.3100
15977TIP3   OH269421   0.424   1.534  17.104 -0.1924  0.2526  0.0152
15977TIP3    H169422   0.368   1.570  17.173  0.3431  1.3863 -0.1176
15977TIP3    H269423   0.467   1.611  17.067  0.7872 -0.5184 -0.4588
15978TIP3   OH269424   1.588   3.245  12.546  0.0433  0.5570  0.3518
15978TIP3    H169425   1.534   3.204  12.478 -0.6537  0.5467  0.9128
15978TIP3    H269426   1.674   3.256  12.504 -0.8227  2.0511 -1.0710
15979TIP3   OH269427   3.583   3.514  14.588 -0.0509  0.3949  0.1053
15979TIP3    H169428   3.624   3.436  14.626  0.9409 -1.3273 -4.2244
15979TIP3    H269429   3.656   3.575  14.574  0.1991 -0.3729 -2.1685
15980TIP3   OH269430   4.040   1.436  17.280 -0.0530 -0.1857 -0.5336
15980TIP3    H169431   3.958   1.460  17.237  1.9198  1.5780 -3.5366
15980TIP3    H269432   4.069   1.357  17.233  0.6616  0.0413 -0.4863
15981TIP3   OH269433   3.807   2.890  13.845  0.0204 -0.2354 -0.4179
15981TIP3    H169434   3.818   2.860  13.754  0.8906 -0.8943 -0.1004
15981TIP3    H269435   3.713   2.881  13.862 -0.2073  0.2506 -1.3743
15982TIP3   OH269436   2.053   1.084   5.527 -0.3657  0.3928  0.3126
15982TIP3    H169437   2.048   1.096   5.621 -1.7535 -1.8999  0.5663
15982TIP3    H269438   1.962   1.073   5.499  0.2384 -1.8911 -0.8523
15983TIP3   OH269439   6.184   4.170   0.316  0.5294  0.2312  0.2234
15983TIP3    H169440   6.216   4.259   0.333 -1.1541  1.0041 -0.5222
15983TIP3    H269441   6.096   4.183   0.283 -0.1556 -1.7979  1.1941
15984TIP3   OH269442   2.313   1.718  13.059  0.0927  0.2722  0.8565
15984TIP3    H169443   2.292   1.631  13.095 -0.8813  0.7146  1.3661
15984TIP3    H269444   2.232   1.768  13.068  0.4485  1.0358 -0.0629
15985TIP3   OH269445   2.608   0.871  13.430 -0.3276 -0.2298 -0.0570
15985TIP3    H169446   2.629   0.783  13.401  1.6389  0.4702 -0.8344
15985TIP3    H269447   2.681   0.896  13.487 -1.1316  0.7013  0.5889
15986TIP3   OH269448   0.426   6.085  12.063 -0.5347  0.2037  0.4781
15986TIP3    H169449   0.521   6.090  12.062 -0.5523  0.7720 -1.7128
15986TIP3    H269450   0.397   6.174  12.040 -1.5889 -0.0409  0.8092
15987TIP3   OH269451   5.637   3.690  11.868 -0.4831 -0.7916 -0.1645
15987TIP3    H169452   5.599   3.740  11.797  0.7175  3.5831  2.1194
15987TIP3    H269453   5.575   3.699  11.940  0.5107 -1.2302  0.7668
15988TIP3   OH269454   0.123   1.902   5.512  0.1823  0.1074 -0.5234
15988TIP3    H169455   0.103   1.815   5.476 -0.4932 -0.6401  1.5830
15988TIP3    H269456   0.038   1.943   5.523  0.0794 -0.8512  3.0008
15989TIP3   OH269457   6.485   3.876   5.199  0.3359 -0.0173 -0.2706
15989TIP3    H169458   6.477   3.846   5.290  0.3414  0.4765 -0.1087
15989TIP3    H269459   6.396   3.868   5.164  0.3103 -0.0954 -0.1889
15990TIP3   OH269460   4.581   2.253   3.971 -0.0037 -0.0360 -0.3269
15990TIP3    H169461   4.633   2.188   3.924  0.0467  0.7501 -1.3830
15990TIP3    H269462   4.557   2.210   4.053  2.1322 -0.4852  0.0874
15991TIP3   OH269463   4.025   1.511   5.171  0.1538  0.2263  0.2999
15991TIP3    H169464   3.984   1.541   5.090  0.8799 -0.4852 -0.3444
15991TIP3    H269465   4.114   1.546   5.168  0.2561  0.0079  0.6865
15992TIP3   OH269466   2.154   3.387   4.051 -0.1613  0.5678 -0.0733
15992TIP3    H169467   2.076   3.393   4.107  0.6269 -0.0595  1.1058
15992TIP3    H269468   2.225   3.363   4.111  0.8072  0.4366 -1.2553
15993TIP3   OH269469   4.033   0.445  16.728  0.5488 -0.3202 -0.9754
15993TIP3    H169470   3.966   0.514  16.733 -1.0611 -1.9846  1.1278
15993TIP3    H269471   4.025   0.412  16.639 -0.3388  0.5853 -1.2538
15994TIP3   OH269472   0.317   6.340  16.360 -0.1928 -0.4877 -0.1520
15994TIP3    H169473   0.387   6.394  16.323  1.0160 -1.2952  0.9452
15994TIP3    H269474   0.244   6.351  16.298  0.6794  0.8465 -0.9740
15995TIP3   OH269475   5.613   1.351  13.335  0.1160  0.3716  0.2571
15995TIP3    H169476   5.536   1.406  13.320 -1.3915 -1.6113  0.6077
15995TIP3    H269477   5.685   1.414  13.344 -1.9545  2.4903  3.2629
15996TIP3   OH269478   0.533   3.601  14.033 -0.8325 -0.1941 -0.2506
15996TIP3    H169479   0.498   3.684  14.065  0.4074  0.1040  0.4050
15996TIP3    H269480   0.546   3.549  14.113  0.5607 -0.1371 -0.4242
15997TIP3   OH269481   0.222   3.601  14.176 -0.3049  0.0309 -0.0076
15997TIP3    H169482   0.274   3.524  14.153  0.1008 -0.0751  1.2045
15997TIP3    H269483   0.285   3.672  14.183 -0.2423 -0.1544  1.7312
15998TIP3   OH269484   3.024   1.510  14.377  0.1622  0.0900  0.4793
15998TIP3    H169485   3.007   1.557  14.296 -0.8248  0.1800  0.7263
15998TIP3    H269486   3.117   1.524  14.395  0.1933  0.7439 -0.2088
15999TIP3   OH269487   5.467   1.305  14.111  0.7546  0.5806  0.2626
15999TIP3    H169488   5.491   1.284  14.020  1.9533  2.2659  0.1604
15999TIP3    H269489   5.404   1.238  14.135  0.3456  0.1646 -1.8567
16000TIP3   OH269490   3.061   0.135  14.341 -0.1170  0.3896  0.4684
16000TIP3    H169491   2.967   0.119  14.353  0.0964 -1.3551 -0.0137
16000TIP3    H269492   3.103   0.075  14.402  0.7114 -0.1551 -0.6274
16001TIP3   OH269493   6.081   2.419  12.418 -0.1901  0.0226 -0.4941
16001TIP3    H169494   6.004   2.459  12.458 -0.2429 -0.3727 -0.1887
16001TIP3    H269495   6.132   2.387  12.493 -0.4448 -1.0062 -0.7470
16002TIP3   OH269496   4.370   5.347   3.366  0.5261 -0.6607 -0.1084
16002TIP3    H169497   4.283   5.314   3.345 -0.3414  1.8843 -0.6767
16002TIP3    H269498   4.398   5.393   3.287  1.4098  0.4897  0.8560
16003TIP3   OH269499   3.759   2.860   3.292 -0.7193  0.7597  0.9971
16003TIP3    H169500   3.714   2.861   3.376 -1.3186  2.9801  0.6941
16003TIP3    H269501   3.702   2.811   3.234 -0.0126 -1.3227  2.0142
16004TIP3   OH269502   0.035   1.754   4.581  0.6843 -0.2648 -0.2386
16004TIP3    H169503   0.108   1.727   4.525 -0.1693  0.3392 -1.6835
16004TIP3    H269504   0.073   1.818   4.640  1.0380  1.1985 -1.9857
16005TIP3   OH269505   2.063   5.857   1.103 -0.3815  0.1201  0.8045
16005TIP3    H169506   1.976   5.842   1.066  0.4977  0.8340 -1.6571
16005TIP3    H269507   2.068   5.951   1.117  0.1872  0.1466  0.4486
16006TIP3   OH269508   0.569   6.198  16.948 -0.4793 -0.1323 -0.1385
16006TIP3    H169509   0.607   6.136  16.886  0.6181 -0.7918  1.1569
16006TIP3    H269510   0.623   6.276  16.939 -0.8470  0.0738 -0.6012
16007TIP3   OH269511   2.207   5.838   4.356  0.1747  0.1442  0.0602
16007TIP3    H169512   2.123   5.799   4.380  0.0181 -0.5807 -1.6112
16007TIP3    H269513   2.241   5.873   4.438 -1.0315 -0.9533  1.0551
16008TIP3   OH269514   3.729   6.284   3.112 -0.1778  0.0239 -0.8632
16008TIP3    H169515   3.770   6.298   3.027 -1.5222 -0.0110 -1.5371
16008TIP3    H269516   3.722   6.189   3.119 -1.2298  0.0628 -1.2953
16009TIP3   OH269517   4.739   2.493   3.897  0.3207  0.2224  0.2224
16009TIP3    H169518   4.753   2.399   3.889  3.1656  0.6223 -0.2758
16009TIP3    H269519   4.781   2.518   3.979  0.1686  1.1554  0.0323
16010TIP3   OH269520   4.342   2.570   6.122 -0.0892 -0.1112  0.3309
16010TIP3    H169521   4.425   2.599   6.084 -0.2869  0.0562  0.0286
16010TIP3    H269522   4.274   2.612   6.069 -0.3710 -0.3540  0.4928
16011TIP3   OH269523   0.797   1.355   3.369 -0.0603 -0.1950 -0.2756
16011TIP3    H169524   0.868   1.335   3.431 -0.4350  1.7478  0.8348
16011TIP3    H269525   0.836   1.415   3.306 -1.1338  2.3221  1.3803
16012TIP3   OH269526   6.661   3.741   1.846  0.1341 -0.3893  0.0153
16012TIP3    H169527   6.657   3.719   1.753 -2.3987  0.6324 -0.1682
16012TIP3    H269528   6.656   3.657   1.892  0.3114 -0.8245 -0.7609
16013TIP3   OH269529   1.201   3.458  12.194 -1.0381  0.2691 -0.6117
16013TIP3    H169530   1.189   3.525  12.126 -0.3106  0.5231 -0.4968
16013TIP3    H269531   1.217   3.507  12.274  2.1537 -0.0292 -1.0195
16014TIP3   OH269532   6.043   2.900   0.701  0.8237  0.0850  0.4884
16014TIP3    H169533   5.968   2.958   0.687 -2.0811 -3.8173 -1.1102
16014TIP3    H269534   6.058   2.904   0.796 -1.6599  0.6425  0.8995
16015TIP3   OH269535   1.635   4.943   4.052 -0.8396 -0.4172  0.4539
16015TIP3    H169536   1.579   4.936   3.975 -1.1923 -0.0048  0.6693
16015TIP3    H269537   1.636   5.037   4.073  0.4709 -0.3364  0.0583
16016TIP3   OH269538   6.143   1.730  11.316 -0.2312 -0.6465  0.0652
16016TIP3    H169539   6.076   1.750  11.250  0.1421 -1.6981 -0.6411
16016TIP3    H269540   6.206   1.675  11.270  0.8362 -0.1170  0.8782
16017TIP3   OH269541   6.522   5.899  15.736  0.5900 -0.3430  0.0888
16017TIP3    H169542   6.456   5.969  15.730  0.1057 -0.6549  1.7158
16017TIP3    H269543   6.548   5.884  15.645  0.3288  1.6063 -0.3286
16018TIP3   OH269544   5.415   5.304  12.770 -0.3777 -0.2455 -0.1538
16018TIP3    H169545   5.505   5.336  12.756 -0.7220  0.7909 -0.0560
16018TIP3    H269546   5.380   5.361  12.838 -0.5611 -1.7457  1.0250
16019TIP3   OH269547   5.293   0.297  17.274 -0.3850  0.2197 -0.1967
16019TIP3    H169548   5.337   0.369  17.319 -2.4234 -0.8084  3.6517
16019TIP3    H269549   5.213   0.336  17.238 -0.6142  0.2381  0.3353
16020TIP3   OH269550   2.311   3.767   2.972 -0.0657 -0.2801  0.1622
16020TIP3    H169551   2.250   3.702   2.936 -1.7096  0.2769  1.8462
16020TIP3    H269552   2.391   3.717   2.991 -1.1609 -1.7613  1.0368
16021TIP3   OH269553   6.164   4.643   3.824 -0.5992 -0.1264  0.0209
16021TIP3    H169554   6.187   4.698   3.749  0.2475  0.1903  0.5053
16021TIP3    H269555   6.236   4.579   3.829 -0.9789 -0.5390  0.1793
16022TIP3   OH269556   5.844   0.031  15.055  0.4300  0.4103  0.7789
16022TIP3    H169557   5.825   0.062  15.143 -2.5490 -0.7735  0.5960
16022TIP3    H269558   5.787   0.083  14.998 -0.6966 -1.6483 -0.0202
16023TIP3   OH269559   1.275   3.960   5.540 -0.3707  0.3251 -0.3956
16023TIP3    H169560   1.266   3.929   5.450 -0.1865 -1.8873  0.3039
16023TIP3    H269561   1.321   3.889   5.585 -0.6425  1.3146  1.4973
16024TIP3   OH269562   3.470   0.547  12.066  0.3753  0.8234 -0.5066
16024TIP3    H169563   3.411   0.478  12.035 -0.6008  1.7123 -0.6328
16024TIP3    H269564   3.423   0.589  12.137  1.9013 -0.0751  1.0827
16025TIP3   OH269565   0.435   3.343   4.698 -0.7602  0.4936  0.1261
16025TIP3    H169566   0.529   3.356   4.685 -0.7281 -0.2378 -0.4191
16025TIP3    H269567   0.393   3.412   4.647 -0.5252  0.5428 -0.0005
16026TIP3   OH269568   5.841   5.157   4.431  0.0942 -0.1438 -0.5175
16026TIP3    H169569   5.898   5.088   4.396 -0.6449 -0.7698 -0.4783
16026TIP3    H269570   5.770   5.164   4.368  1.4946  2.4106 -1.9296
16027TIP3   OH269571   4.854   5.416   5.744  0.3203 -0.2681 -0.2702
16027TIP3    H169572   4.829   5.405   5.836  0.8236  2.2156  0.1920
16027TIP3    H269573   4.918   5.487   5.745  0.0272  0.0509 -2.6091
16028TIP3   OH269574   5.730   1.489   3.356  0.4115 -0.0222 -0.5076
16028TIP3    H169575   5.793   1.505   3.426 -0.9464 -0.4195  0.8484
16028TIP3    H269576   5.723   1.394   3.351 -1.4144  0.0156  0.6415
16029TIP3   OH269577   3.075   0.619  13.353  0.5415 -0.1826  0.5549
16029TIP3    H169578   3.042   0.603  13.264 -0.2617  2.0153  0.4315
16029TIP3    H269579   3.114   0.536  13.379  2.7489 -0.2810 -2.7045
16030TIP3   OH269580   2.335   1.896   4.807  0.0199 -0.2232  0.3411
16030TIP3    H169581   2.254   1.849   4.788  0.6934 -0.8152 -1.1370
16030TIP3    H269582   2.403   1.829   4.810  0.9894  0.6192 -1.7847
16031TIP3   OH269583   4.772   6.782  13.049 -0.1255 -0.0102  0.1117
16031TIP3    H169584   4.737   6.870  13.065  0.4623  0.4735 -1.1193
16031TIP3    H269585   4.696   6.724  13.056 -0.7890  0.7689 -0.4723
16032TIP3   OH269586   6.339   3.308   3.230  0.5386  0.1413 -0.4313
16032TIP3    H169587   6.337   3.232   3.171  0.4060  1.1864 -1.8047
16032TIP3    H269588   6.432   3.322   3.248  0.3999 -2.7377  3.0433
16033TIP3   OH269589   2.664   1.165   5.350  0.2066 -0.8472  0.4977
16033TIP3    H169590   2.610   1.227   5.302 -0.2739  0.0642  2.1700
16033TIP3    H269591   2.754   1.186   5.325  0.0071  0.1758  0.6472
16034TIP3   OH269592   4.721   4.265  11.894 -0.4439 -0.0405  0.4525
16034TIP3    H169593   4.699   4.280  11.802 -0.6405  0.4577  0.5831
16034TIP3    H269594   4.728   4.352  11.931  1.4683 -0.1829  0.4727
16035TIP3   OH269595   1.348   3.519   5.247 -0.1007 -0.0202  0.1016
16035TIP3    H169596   1.414   3.586   5.264  0.3798 -0.2860 -0.6948
16035TIP3    H269597   1.390   3.436   5.272  0.0730 -0.2476 -0.9246
16036TIP3   OH269598   4.179   3.568  13.082  0.1327 -0.7197 -0.4489
16036TIP3    H169599   4.250   3.579  13.018  0.2158  2.5642  0.1114
16036TIP3    H269600   4.118   3.639  13.062 -1.3526 -1.4912  1.2250
16037TIP3   OH269601   1.185   3.002  10.518 -0.6611 -0.7514  0.4771
16037TIP3    H169602   1.268   2.989  10.472 -1.0208  3.0358 -1.4611
16037TIP3    H269603   1.208   3.058  10.593 -1.7331  2.6514 -1.5910
16038TIP3   OH269604   4.901   0.665  12.895 -0.1255  0.3149 -0.2002
16038TIP3    H169605   4.996   0.679  12.891 -0.2112  0.8413 -0.4341
16038TIP3    H269606   4.885   0.589  12.840  0.1712  0.1762 -0.0951
16039TIP3   OH269607   1.816   1.739   3.735 -1.0033 -0.1314  0.3075
16039TIP3    H169608   1.851   1.748   3.823 -1.4266 -1.4127  0.6159
16039TIP3    H269609   1.882   1.689   3.688 -0.7767  0.5521 -0.1088
16040TIP3   OH269610   5.283   1.013   0.894 -0.6316  0.3052 -0.3813
16040TIP3    H169611   5.325   1.098   0.887 -1.3627  0.7050 -0.0012
16040TIP3    H269612   5.191   1.030   0.875 -1.0857 -0.0992  1.3192
16041TIP3   OH269613   1.279   0.139  11.360 -0.5467  0.2468  0.0441
16041TIP3    H169614   1.235   0.057  11.336 -0.1401  0.1958 -0.5455
16041TIP3    H269615   1.372   0.121  11.347 -0.4562  0.7981 -0.0820
16042TIP3   OH269616   0.608   1.533   5.066 -0.1958  0.2037  0.3982
16042TIP3    H169617   0.570   1.476   4.999  0.1219 -1.2542  1.4553
16042TIP3    H269618   0.583   1.622   5.038 -2.9239 -0.5856  0.1457
16043TIP3   OH269619   2.397   6.243   3.642  0.0851 -0.5826  0.1747
16043TIP3    H169620   2.453   6.268   3.715 -1.1483  0.9363  0.6261
16043TIP3    H269621   2.323   6.198   3.682 -1.2850  1.4731  0.0279
16044TIP3   OH269622   4.293   1.589  14.892  0.1429  0.3170  0.0319
16044TIP3    H169623   4.286   1.506  14.938 -0.1250 -1.0331 -2.4085
16044TIP3    H269624   4.378   1.586  14.848  0.4372  1.6347  0.4658
16045TIP3   OH269625   0.348   2.775   0.985 -0.5573  0.3555 -0.0777
16045TIP3    H169626   0.402   2.778   1.064 -0.6703  0.7459 -0.0153
16045TIP3    H269627   0.397   2.719   0.925 -0.7911 -0.4751  0.5010
16046TIP3   OH269628   3.179   5.427  13.948  0.0568  0.8017 -0.1318
16046TIP3    H169629   3.129   5.348  13.967  0.2985  0.6471 -0.1307
16046TIP3    H269630   3.114   5.498  13.948 -0.3479  0.4486 -1.2431
16047TIP3   OH269631   0.134   4.224   2.487 -0.4693 -0.3858 -0.2043
16047TIP3    H169632   0.167   4.136   2.468 -0.7436 -0.4067 -0.5905
16047TIP3    H269633   0.212   4.273   2.514  0.2433  0.0776 -2.8858
16048TIP3   OH269634   2.535   4.660  16.149  0.1864 -0.3628  0.3824
16048TIP3    H169635   2.601   4.651  16.081 -0.3591 -1.2261 -0.0417
16048TIP3    H269636   2.579   4.632  16.230  1.6164  3.0841  0.8713
16049TIP3   OH269637   5.950   4.445  15.262  0.7294 -0.4294 -0.6920
16049TIP3    H169638   5.998   4.499  15.325  0.3507 -1.3297  0.3954
16049TIP3    H269639   5.869   4.494  15.246  0.5773 -0.4567 -0.0429
16050TIP3   OH269640   6.657   3.812   2.496 -0.8182 -0.2133  0.5069
16050TIP3    H169641   6.579   3.794   2.549 -1.8900  1.1519 -0.5843
16050TIP3    H269642   6.708   3.874   2.548 -1.6011  0.6980  0.1949
16051TIP3   OH269643   1.938   6.226   6.245 -0.5059  0.2253 -0.0681
16051TIP3    H169644   1.928   6.208   6.339 -2.3176 -0.9177 -0.4584
16051TIP3    H269645   1.989   6.152   6.212 -1.7112 -0.4756 -0.3658
16052TIP3   OH269646   3.950   5.603   1.742  1.0654  0.7854  0.3096
16052TIP3    H169647   3.869   5.571   1.783 -0.9501 -0.3508 -4.2349
16052TIP3    H269648   4.016   5.539   1.766 -0.8020 -1.6605 -0.8025
16053TIP3   OH269649   1.134   2.998   1.710 -0.5722  0.0185  0.4786
16053TIP3    H169650   1.077   3.050   1.654 -2.1056 -0.7858  1.2683
16053TIP3    H269651   1.216   2.991   1.661 -0.3655  3.0931  0.3293
16054TIP3   OH269652   5.691   0.826   1.303 -0.4160  0.1074  0.0890
16054TIP3    H169653   5.767   0.801   1.250  0.3769  2.6829 -0.1047
16054TIP3    H269654   5.617   0.783   1.262  0.5666 -0.1352 -1.4694
16055TIP3   OH269655   6.526   3.001   3.610 -0.1628 -0.4364 -0.0806
16055TIP3    H169656   6.601   2.984   3.668  0.0615  0.0623 -0.2136
16055TIP3    H269657   6.465   3.051   3.664  0.2033  0.3418 -0.3678
16056TIP3   OH269658   2.487   4.567  13.998  0.9053 -0.5269  0.0553
16056TIP3    H169659   2.531   4.606  14.073  1.4567 -0.3696 -0.3524
16056TIP3    H269660   2.546   4.497  13.969  1.2932  0.2420 -1.0232
16057TIP3   OH269661   5.662   5.155  15.763  0.8049 -0.1977 -0.3695
16057TIP3    H169662   5.690   5.174  15.674 -0.4697 -2.2447 -1.2549
16057TIP3    H269663   5.572   5.123  15.753 -0.1440  1.6530  1.8861
16058TIP3   OH269664   2.356   0.196   4.111  0.7318 -0.3661 -0.3832
16058TIP3    H169665   2.430   0.154   4.066  1.9375  0.5336  0.7163
16058TIP3    H269666   2.350   0.151   4.195 -0.3950 -0.8576 -0.7152
16059TIP3   OH269667   2.455   3.757   0.689 -0.1140 -0.5480 -0.0682
16059TIP3    H169668   2.469   3.723   0.600  0.1253 -0.1567 -0.1793
16059TIP3    H269669   2.403   3.836   0.676  0.4962 -0.1190  0.0893
16060TIP3   OH269670   2.106   3.657  16.821 -0.3724 -0.3098 -0.0864
16060TIP3    H169671   2.073   3.605  16.895  0.1306  0.3403  0.6104
16060TIP3    H269672   2.112   3.746  16.856 -0.0520 -0.0110 -0.8990
16061TIP3   OH269673   0.797   5.241   6.468  0.0618 -0.2197 -0.0104
16061TIP3    H169674   0.834   5.167   6.515  0.2697 -0.0796  0.0486
16061TIP3    H269675   0.703   5.237   6.485  0.0488 -0.5681 -0.1467
16062TIP3   OH269676   0.241   0.425   2.778 -0.3492  0.3508  0.1464
16062TIP3    H169677   0.146   0.411   2.776 -0.1165 -1.2849 -2.2079
16062TIP3    H269678   0.258   0.482   2.702  0.4353  1.6109  1.2451
16063TIP3   OH269679   5.049   5.335  13.714 -0.0775  0.3710  0.2252
16063TIP3    H169680   5.140   5.357  13.733 -0.4607  2.4687 -0.2609
16063TIP3    H269681   4.998   5.398  13.766 -1.2431 -0.1333 -0.2861
16064TIP3   OH269682   5.308   2.549  16.835  0.3315  0.0957 -0.1593
16064TIP3    H169683   5.351   2.600  16.767 -0.0907 -0.2890 -0.7176
16064TIP3    H269684   5.230   2.600  16.859  1.4848  1.1790  1.4020
16065TIP3   OH269685   1.062   1.197  15.192 -0.2453 -0.5975 -0.0328
16065TIP3    H169686   0.999   1.265  15.214  0.2327 -0.2882  0.4157
16065TIP3    H269687   1.129   1.204  15.261  1.1054  0.1424 -1.4021
16066TIP3   OH269688   5.301   3.623  14.463  0.3484 -0.0598  0.2841
16066TIP3    H169689   5.271   3.669  14.385 -1.9332 -3.2255 -0.8212
16066TIP3    H269690   5.397   3.630  14.460  0.1946  1.6075 -1.6692
16067TIP3   OH269691   0.277   1.348   5.760 -0.0383 -0.4768 -0.0265
16067TIP3    H169692   0.351   1.352   5.820 -0.4274  1.0180  0.3725
16067TIP3    H269693   0.312   1.381   5.677 -0.2079  0.0516  0.1121
16068TIP3   OH269694   2.236   4.542  13.360  0.5600 -0.2059 -0.6098
16068TIP3    H169695   2.297   4.579  13.296 -0.8792  0.4799 -1.6117
16068TIP3    H269696   2.227   4.451  13.334  0.2578 -0.0182 -1.1610
16069TIP3   OH269697   3.237   5.131  11.639  0.1512  0.1631 -0.2783
16069TIP3    H169698   3.230   5.144  11.545  1.7731  2.7049 -0.0825
16069TIP3    H269699   3.324   5.165  11.662 -0.0071 -0.9068  2.0540
16070TIP3   OH269700   0.572   4.760  13.097 -0.4211  0.2608 -0.1892
16070TIP3    H169701   0.646   4.820  13.098  0.5170 -0.8752  0.2418
16070TIP3    H269702   0.586   4.707  13.018 -1.4373  0.8428 -0.7662
16071TIP3   OH269703   5.993   2.045  14.973  0.0129 -0.2914 -0.0853
16071TIP3    H169704   5.898   2.038  14.980 -0.0347  0.0117 -0.4268
16071TIP3    H269705   6.017   2.113  15.036  0.1208 -1.1385  0.8027
16072TIP3   OH269706   1.390   0.682  11.225 -0.2059  0.0452 -0.2123
16072TIP3    H169707   1.354   0.609  11.274  0.9907 -0.3688  0.0728
16072TIP3    H269708   1.314   0.725  11.185 -1.0711 -0.3107  1.0392
16073TIP3   OH269709   6.012   3.754   5.244  0.4471 -0.4242 -0.3838
16073TIP3    H169710   5.970   3.834   5.274  0.2474 -0.9453  0.7445
16073TIP3    H269711   5.956   3.722   5.173  0.9634  0.8517 -1.3836
16074TIP3   OH269712   1.082   1.476  15.524 -0.3291  0.0811 -0.0395
16074TIP3    H169713   1.016   1.519  15.471  0.4042 -0.1690 -1.1578
16074TIP3    H269714   1.154   1.456  15.464  0.1975 -0.8740  0.8717
16075TIP3   OH269715   3.653   4.655  16.375  0.3692  0.4341  0.0361
16075TIP3    H169716   3.703   4.616  16.303 -2.0538  1.1224 -2.1277
16075TIP3    H269717   3.634   4.744  16.346 -1.9815  0.2232  0.8053
16076TIP3   OH269718   2.296   0.716  11.728  0.2798  0.0303  0.7467
16076TIP3    H169719   2.216   0.666  11.741 -0.0486  0.7318  1.4884
16076TIP3    H269720   2.302   0.727  11.633 -0.5256  0.0040  0.6871
16077TIP3   OH269721   1.594   4.345  11.740  0.3997 -0.5930  0.1742
16077TIP3    H169722   1.646   4.266  11.725  0.5270 -0.6716  1.0250
16077TIP3    H269723   1.653   4.406  11.783  0.5740  0.3192 -1.3011
16078TIP3   OH269724   0.964   6.063   4.383  0.3079 -0.2666  0.1837
16078TIP3    H169725   0.892   5.999   4.377 -0.7624  0.8370  1.0447
16078TIP3    H269726   1.043   6.009   4.384 -0.3977 -1.4395 -2.4578
16079TIP3   OH269727   1.446   3.103   2.254 -0.3969 -0.7076 -0.0773
16079TIP3    H169728   1.376   3.149   2.208  0.8921  1.8048  0.3921
16079TIP3    H269729   1.526   3.126   2.207  0.5673 -0.5394  1.5967
16080TIP3   OH269730   1.643   3.185   0.265 -0.2176  0.3612 -0.4195
16080TIP3    H169731   1.676   3.262   0.219 -0.4790  0.7889  0.0977
16080TIP3    H269732   1.551   3.179   0.240  0.2087 -0.7618 -1.7686
16081TIP3   OH269733   3.438   2.759  11.987 -0.4689  0.1478  0.0162
16081TIP3    H169734   3.514   2.765  12.044  0.4114  0.7568 -1.2133
16081TIP3    H269735   3.468   2.791  11.902 -1.9645 -0.0399 -0.6080
16082TIP3   OH269736   3.139   2.578   6.538 -0.1855  0.2903  0.2155
16082TIP3    H169737   3.079   2.520   6.490  0.0309  1.6970 -1.7991
16082TIP3    H269738   3.087   2.612   6.610 -1.1062 -0.3124 -0.1576
16083TIP3   OH269739   0.242   0.601  16.836  0.1761  0.5583 -0.1877
16083TIP3    H169740   0.279   0.609  16.924 -1.6192  0.7258  0.5850
16083TIP3    H269741   0.230   0.692  16.807  1.1137  0.5018 -0.7602
16084TIP3   OH269742   4.322   1.102   0.148  0.0232  0.4079 -0.1092
16084TIP3    H169743   4.391   1.133   0.207 -0.0878 -0.3668  0.4416
16084TIP3    H269744   4.315   1.170   0.081  0.9791  0.7277  0.1062
16085TIP3   OH269745   2.685   4.011   1.961  0.4616 -0.1654 -0.3362
16085TIP3    H169746   2.637   3.968   2.031 -1.1767  1.4322 -0.4386
16085TIP3    H269747   2.774   4.020   1.995  0.0245 -0.6622  0.9766
16086TIP3   OH269748   5.032   0.140   2.293  0.6436  0.6280  0.4971
16086TIP3    H169749   4.984   0.154   2.375  0.1405  0.4000  0.2424
16086TIP3    H269750   5.052   0.047   2.293 -1.5583  0.1204 -0.8304
16087TIP3   OH269751   0.905   6.306  16.718 -0.0795 -0.1803  0.3238
16087TIP3    H169752   0.892   6.325  16.811  0.3000 -0.1859  0.3775
16087TIP3    H269753   0.976   6.243  16.716 -0.7092 -0.8978  0.0856
16088TIP3   OH269754   1.760   2.476   1.997 -0.2022  0.2846 -0.4765
16088TIP3    H169755   1.732   2.385   1.983  0.3398  0.0863 -0.3047
16088TIP3    H269756   1.854   2.474   1.983 -0.2933  0.9803 -1.2026
16089TIP3   OH269757   0.499   0.215   5.382  0.0560  0.1710  0.5925
16089TIP3    H169758   0.584   0.258   5.382  0.7895 -1.2056  2.9004
16089TIP3    H269759   0.514   0.133   5.334 -0.3429  0.5773 -0.2441
16090TIP3   OH269760   3.756   5.491  12.718 -0.3120  0.0364 -0.3041
16090TIP3    H169761   3.740   5.545  12.641  0.3551  2.6059  1.3144
16090TIP3    H269762   3.847   5.509  12.742 -0.1623 -1.5973  0.4343
16091TIP3   OH269763   3.201   2.969   4.866 -0.1605  0.1538  0.2589
16091TIP3    H169764   3.191   2.985   4.960  1.2460  0.5720  0.3482
16091TIP3    H269765   3.174   2.878   4.854 -2.0153  0.6109  0.7812
16092TIP3   OH269766   1.578   0.979  12.480 -0.3169 -0.1730  0.2476
16092TIP3    H169767   1.666   1.016  12.489 -0.6036  0.2642  1.4563
16092TIP3    H269768   1.575   0.909  12.546  0.2780 -2.5152 -2.1431
16093TIP3   OH269769   5.026   2.446   5.251  0.1957 -0.0954 -1.3314
16093TIP3    H169770   5.108   2.454   5.202  1.0814 -0.6211  0.0294
16093TIP3    H269771   5.035   2.510   5.322 -0.5090 -0.2603 -1.0953
16094TIP3   OH269772   1.833   3.064   2.929 -0.2815 -0.3919 -0.0171
16094TIP3    H169773   1.835   3.131   2.998 -1.1918 -1.6022  1.2119
16094TIP3    H269774   1.758   3.087   2.875  0.0795  0.2233 -0.2606
16095TIP3   OH269775   6.326   2.922  10.992  0.0447 -0.9222  0.1084
16095TIP3    H169776   6.326   2.922  11.088  1.5846 -0.6823  0.1204
16095TIP3    H269777   6.270   2.996  10.968  1.1119  0.1486  0.8523
16096TIP3   OH269778   1.087   6.808   4.713  0.5173 -0.2175 -0.5095
16096TIP3    H169779   1.144   6.819   4.789 -1.0917  3.0213  0.3192
16096TIP3    H269780   1.019   6.747   4.742  1.3394 -0.9993 -0.2148
16097TIP3   OH269781   2.300   1.896   2.266  0.3355  0.3248 -0.1267
16097TIP3    H169782   2.286   1.804   2.289 -1.9279  0.3284 -1.3703
16097TIP3    H269783   2.226   1.942   2.305 -0.1124  1.2063 -1.9922
16098TIP3   OH269784   6.248   0.416  12.892  0.0060 -0.2187  0.2292
16098TIP3    H169785   6.284   0.444  12.976 -1.7122  1.1702  0.5283
16098TIP3    H269786   6.156   0.396  12.911 -0.7890  1.5216 -1.6046
16099TIP3   OH269787   5.013   5.907   4.743 -0.4757 -0.2169  0.2019
16099TIP3    H169788   4.946   5.857   4.790  0.2669 -1.3698  0.0338
16099TIP3    H269789   4.994   5.998   4.765 -0.2904 -0.7090  2.5692
16100TIP3   OH269790   2.786   3.506  15.471 -0.2462 -0.1104 -0.1415
16100TIP3    H169791   2.785   3.481  15.563  1.7979 -2.8611 -0.7919
16100TIP3    H269792   2.876   3.535  15.455 -1.4156  3.5367 -0.5296
16101TIP3   OH269793   3.872   3.781  15.282 -0.2224  0.4944  0.4677
16101TIP3    H169794   3.804   3.839  15.318 -2.6565 -1.2681 -1.1349
16101TIP3    H269795   3.938   3.840  15.246 -2.0177  2.2753  0.0347
16102TIP3   OH269796   3.318   1.562   5.377 -0.0500 -0.1650 -0.8076
16102TIP3    H169797   3.291   1.585   5.466 -1.0762 -2.0927 -0.5925
16102TIP3    H269798   3.303   1.641   5.327 -0.2303  0.7029  0.5800
16103TIP3   OH269799   5.254   3.034   3.079  0.2529 -0.5854  0.3170
16103TIP3    H169800   5.301   3.067   3.156  1.1548 -0.5285 -0.2464
16103TIP3    H269801   5.274   2.941   3.077 -0.5851 -0.7831  0.7080
16104TIP3   OH269802   4.799   1.476  12.195  0.0945  0.0750  0.0300
16104TIP3    H169803   4.798   1.534  12.119  2.3066 -1.3040 -1.1080
16104TIP3    H269804   4.805   1.388  12.158  0.0076 -0.6976  1.7791
16105TIP3   OH269805   2.133   2.915  15.888  0.3041  0.4859 -0.3201
16105TIP3    H169806   2.141   2.900  15.982 -0.6156 -1.2276 -0.4847
16105TIP3    H269807   2.205   2.865  15.849  0.9281  1.5150 -0.5233
16106TIP3   OH269808   3.277   4.544  11.671  0.4785  0.0098  0.1262
16106TIP3    H169809   3.367   4.548  11.702  0.2531 -0.5468  0.8422
16106TIP3    H269810   3.226   4.513  11.746  0.0155 -1.8830 -0.9361
16107TIP3   OH269811   2.876   1.389  15.888  0.0689 -0.2719  0.2222
16107TIP3    H169812   2.797   1.415  15.841 -0.6339 -2.2335  0.3036
16107TIP3    H269813   2.880   1.448  15.963 -1.7194 -0.6396  0.6151
16108TIP3   OH269814   4.367   3.543   4.894 -0.0605  0.1543 -0.6672
16108TIP3    H169815   4.369   3.638   4.896  0.5158  0.1299  1.0781
16108TIP3    H269816   4.459   3.517   4.906 -0.4405 -0.6023  0.8249
16109TIP3   OH269817   2.548   4.069   6.060 -0.3517 -1.1202  0.1393
16109TIP3    H169818   2.552   4.018   5.979  2.2655 -0.2591 -0.3279
16109TIP3    H269819   2.639   4.074   6.089 -0.8897  1.1129  1.5434
16110TIP3   OH269820   5.358   5.451   5.323  0.0424  0.0399  0.5706
16110TIP3    H169821   5.292   5.430   5.257 -0.2757 -2.4925  1.6245
16110TIP3    H269822   5.313   5.437   5.407  1.7777 -1.3375  1.3057
16111TIP3   OH269823   4.476   4.354   2.652 -0.2814  0.2657  0.0063
16111TIP3    H169824   4.561   4.323   2.683 -1.0824 -0.6347  1.3423
16111TIP3    H269825   4.462   4.306   2.570  0.9658  1.2169 -0.7841
16112TIP3   OH269826   2.551   0.424   4.141  0.4663  0.7345 -0.6539
16112TIP3    H169827   2.521   0.495   4.199 -0.1147  1.1200 -1.4239
16112TIP3    H269828   2.473   0.369   4.130  0.3721  1.0764 -1.6830
16113TIP3   OH269829   0.863   1.643   0.856 -0.0262  0.3126 -0.0905
16113TIP3    H169830   0.826   1.643   0.944 -2.2519 -0.2061 -0.9843
16113TIP3    H269831   0.836   1.727   0.818  1.4669  0.8131 -0.0793
16114TIP3   OH269832   3.929   2.385  14.539  0.0221 -0.9860  0.5693
16114TIP3    H169833   4.006   2.343  14.578 -0.1303 -1.2118  0.6230
16114TIP3    H269834   3.901   2.326  14.470  0.4887 -0.4257 -0.1111
16115TIP3   OH269835   5.294   5.060   1.096  0.8118  0.0937 -0.1374
16115TIP3    H169836   5.293   4.991   1.163  0.5379 -0.5796 -0.8285
16115TIP3    H269837   5.329   5.137   1.141  1.6701 -0.6534  0.4941
16116TIP3   OH269838   2.813   5.071   0.389  0.3132 -0.7138  0.3187
16116TIP3    H169839   2.890   5.085   0.444  0.9448  2.7505 -1.2627
16116TIP3    H269840   2.834   4.995   0.336  1.1011 -2.0155  2.4448
16117TIP3   OH269841   3.713   1.929   6.236  0.0843 -0.7492 -0.1483
16117TIP3    H169842   3.797   1.916   6.192  0.0230 -0.1209 -0.4558
16117TIP3    H269843   3.684   1.840   6.258  1.2565 -0.9056  0.7930
16118TIP3   OH269844   3.337   2.431  10.844  0.4223  0.1863  0.0279
16118TIP3    H169845   3.318   2.503  10.784 -2.9925  0.0061  0.7921
16118TIP3    H269846   3.364   2.359  10.788  0.7348  1.0853 -0.9943
16119TIP3   OH269847   1.898   4.714  14.454 -0.6876 -0.2699  1.4261
16119TIP3    H169848   1.853   4.797  14.441  1.3207  0.4813 -1.1263
16119TIP3    H269849   1.851   4.652  14.399 -1.7507 -0.7013  2.7869
16120TIP3   OH269850   2.442   0.920   5.356  0.2870  0.3098  0.2780
16120TIP3    H169851   2.382   0.859   5.398 -0.1795  0.2265 -0.4882
16120TIP3    H269852   2.402   1.006   5.369  0.6600  0.3920  0.8787
16121TIP3   OH269853   2.299   4.067   5.739 -0.2571  0.4864  0.2839
16121TIP3    H169854   2.316   4.014   5.817  2.1576  0.5611 -0.1773
16121TIP3    H269855   2.285   4.155   5.773 -1.1530  0.1628  0.7824
16122TIP3   OH269856   4.121   5.780   3.332 -0.2490 -0.0483 -0.6155
16122TIP3    H169857   4.168   5.806   3.411  1.9156  0.2013 -1.9267
16122TIP3    H269858   4.074   5.859   3.305 -1.5473 -0.3278  0.7679
16123TIP3   OH269859   1.127   4.670   5.061 -0.2488  0.0680  0.0734
16123TIP3    H169860   1.064   4.724   5.014  1.0287  0.6180 -1.0529
16123TIP3    H269861   1.173   4.731   5.119 -0.9898 -0.3927  1.1566
16124TIP3   OH269862   6.713   5.421  15.722 -0.2341 -0.5047 -0.4666
16124TIP3    H169863   6.659   5.500  15.729  0.6031  0.0464 -0.1277
16124TIP3    H269864   6.671   5.358  15.781 -0.9579 -0.3504 -0.8107
16125TIP3   OH269865   2.871   4.798  12.899  0.4834  0.2836  0.1417
16125TIP3    H169866   2.924   4.869  12.937  0.3064  1.6394 -2.0417
16125TIP3    H269867   2.927   4.721  12.904  0.8447  0.6542  2.1720
16126TIP3   OH269868   5.473   3.366  11.228 -0.7386 -0.8290 -0.0488
16126TIP3    H169869   5.567   3.379  11.235 -0.3873 -1.2673 -3.2996
16126TIP3    H269870   5.449   3.402  11.143 -3.2037 -2.2771 -0.0348
16127TIP3   OH269871   0.141   1.647   4.970  0.0020 -0.1838  0.0497
16127TIP3    H169872   0.197   1.716   5.006  1.0039 -1.5469  1.1218
16127TIP3    H269873   0.058   1.691   4.951  0.7811  1.4153  0.2971
16128TIP3   OH269874   3.985   5.577   2.525  0.2249  0.2576 -0.0824
16128TIP3    H169875   3.929   5.648   2.493  1.4891  1.7547  0.9452
16128TIP3    H269876   4.047   5.560   2.453 -0.2860 -0.0482 -0.4556
16129TIP3   OH269877   5.230   0.308  15.642  0.0730  0.3150 -0.2491
16129TIP3    H169878   5.301   0.254  15.607 -1.3125 -0.7064 -1.5807
16129TIP3    H269879   5.242   0.394  15.602  0.4636  0.0929 -0.6126
16130TIP3   OH269880   0.845   0.119  16.361  0.1890 -0.4027 -0.7440
16130TIP3    H169881   0.829   0.148  16.271  0.1787 -1.4779 -1.1038
16130TIP3    H269882   0.778   0.052  16.377  0.8756 -1.0099 -0.3342
16131TIP3   OH269883   5.744   3.640  15.737 -0.1134 -0.5921 -0.0512
16131TIP3    H169884   5.796   3.560  15.750  0.2426 -0.7818 -2.3742
16131TIP3    H269885   5.659   3.608  15.708  0.5239 -0.1083 -2.5372
16132TIP3   OH269886   2.222   5.583   3.699  0.5664  0.2395  0.1714
16132TIP3    H169887   2.188   5.648   3.760 -0.1511 -0.2216  0.2598
16132TIP3    H269888   2.145   5.542   3.660  0.9997  0.9241 -1.4905
16133TIP3   OH269889   6.406   1.923   0.470  0.2399  0.1394  0.0755
16133TIP3    H169890   6.377   1.843   0.513 -0.2301  0.9285  1.2291
16133TIP3    H269891   6.501   1.912   0.460 -0.2060 -1.9277 -2.6466
16134TIP3   OH269892   6.112   4.904   6.235  0.4962 -0.5755 -0.4520
16134TIP3    H169893   6.143   4.835   6.293  1.7379 -0.4121 -0.9129
16134TIP3    H269894   6.077   4.971   6.294  3.3725  0.4057  0.2445
16135TIP3   OH269895   0.248   5.592  11.683 -0.7547  0.2569 -0.3590
16135TIP3    H169896   0.249   5.497  11.701  1.7136  0.4189  0.5804
16135TIP3    H269897   0.273   5.632  11.767  0.4046  1.6165 -1.3389
16136TIP3   OH269898   1.430   3.096  16.026 -0.0386  0.0875 -0.3522
16136TIP3    H169899   1.502   3.046  16.063  0.2534 -1.2460 -2.6091
16136TIP3    H269900   1.470   3.148  15.956 -0.5318  2.7202  1.2517
16137TIP3   OH269901   2.145   4.005  15.263  0.1350  0.4534 -0.1126
16137TIP3    H169902   2.161   4.064  15.338 -0.2050  0.5855 -0.1423
16137TIP3    H269903   2.058   3.969  15.279  0.0840  0.4388 -0.4157
16138TIP3   OH269904   0.917   3.463   6.529 -0.3954 -0.5374 -0.3448
16138TIP3    H169905   0.885   3.378   6.501  1.5856 -1.5419  0.3642
16138TIP3    H269906   1.010   3.464   6.504 -0.2671  1.2013  0.1023
16139TIP3   OH269907   3.040   5.799  12.205  0.5931 -0.6754 -0.5186
16139TIP3    H169908   3.030   5.873  12.266 -0.1110 -1.3518  0.2012
16139TIP3    H269909   2.981   5.821  12.132 -0.5432 -1.0949  0.2563
16140TIP3   OH269910   5.092   4.538   3.544 -0.2536  0.0562  0.0928
16140TIP3    H169911   5.173   4.511   3.502 -0.0309 -1.2484  1.3235
16140TIP3    H269912   5.120   4.590   3.619 -0.5689  0.0154  0.2401
16141TIP3   OH269913   4.450   6.373  10.765  0.0389  0.0202 -0.4997
16141TIP3    H169914   4.426   6.459  10.801 -0.2695 -0.4566  0.4467
16141TIP3    H269915   4.542   6.382  10.740  0.0357  0.5995 -0.3101
16142TIP3   OH269916   2.369   4.270   4.631 -0.1064 -0.4868  0.6683
16142TIP3    H169917   2.452   4.230   4.605  1.5069  2.6205  0.7472
16142TIP3    H269918   2.328   4.296   4.548  0.5807  0.9364  0.7613
16143TIP3   OH269919   1.932   3.291   5.726  0.0586  0.1602  0.5854
16143TIP3    H169920   2.021   3.258   5.712 -0.3430 -0.6926 -0.0255
16143TIP3    H269921   1.911   3.339   5.645  0.2411  1.0077  1.0380
16144TIP3   OH269922   0.251   2.401   4.897  0.5902  0.0516 -0.2386
16144TIP3    H169923   0.278   2.349   4.973  2.4517  0.1920 -0.7935
16144TIP3    H269924   0.220   2.483   4.934  1.7878  0.2448  0.3698
16145TIP3   OH269925   6.149   3.208   0.268  0.0663 -0.0361  0.3322
16145TIP3    H169926   6.075   3.263   0.244 -0.6860 -2.3402 -2.8459
16145TIP3    H269927   6.226   3.256   0.237 -0.4499  0.1585 -0.6615
16146TIP3   OH269928   5.163   6.317   5.474 -0.4216 -0.9315 -1.0817
16146TIP3    H169929   5.111   6.268   5.538  0.3397  0.2392  0.4795
16146TIP3    H269930   5.111   6.314   5.394 -3.2166  0.7008  0.5778
16147TIP3   OH269931   6.122   6.452  11.980  0.4256 -0.0060 -0.3542
16147TIP3    H169932   6.057   6.517  12.007  2.0597  2.0053 -1.0846
16147TIP3    H269933   6.071   6.378  11.949 -1.4940  0.9774  0.3808
16148TIP3   OH269934   0.965   0.052  14.657  0.5289 -0.3526  0.0615
16148TIP3    H169935   1.007  -0.003  14.722 -2.0307  0.5205  2.5946
16148TIP3    H269936   1.016   0.133  14.658  1.1587 -0.7453  0.1832
16149TIP3   OH269937   0.911   4.605  12.086  0.5057 -0.2770 -0.6381
16149TIP3    H169938   0.994   4.628  12.045 -0.0177  1.1274 -0.9207
16149TIP3    H269939   0.935   4.568  12.170  1.4259 -0.1272 -0.8334
16150TIP3   OH269940   1.224   2.028   2.068 -0.2855  0.1687  0.4000
16150TIP3    H169941   1.208   2.118   2.040  0.9358  0.0136 -0.8429
16150TIP3    H269942   1.316   2.027   2.094  0.3482 -1.2626 -1.7900
16151TIP3   OH269943   3.439   4.885  14.762  0.3291 -0.5874  0.4606
16151TIP3    H169944   3.381   4.908  14.689 -1.2722  2.1327  2.5026
16151TIP3    H269945   3.527   4.888  14.725 -0.4508  0.8494 -1.3426
16152TIP3   OH269946   6.330   1.185  12.097 -0.8029  0.2516  0.6988
16152TIP3    H169947   6.421   1.178  12.069 -0.3644  0.1060  2.1050
16152TIP3    H269948   6.305   1.275  12.075 -0.0522  0.5587  1.0707
16153TIP3   OH269949   1.665   0.696  11.251 -0.5233  0.1530 -0.4391
16153TIP3    H169950   1.678   0.651  11.334 -0.4156  1.4262  0.2565
16153TIP3    H269951   1.571   0.689  11.234 -1.2087  3.0119  1.6747
16154TIP3   OH269952   6.227   3.803   5.644 -0.6780  0.4687 -0.0809
16154TIP3    H169953   6.211   3.895   5.625  0.0826  0.7405  0.5650
16154TIP3    H269954   6.204   3.793   5.737  1.0583  0.4424  0.3570
16155TIP3   OH269955   3.762   0.643  12.317 -0.1424 -0.4240 -0.1022
16155TIP3    H169956   3.747   0.555  12.282 -0.1699 -0.4498 -0.0273
16155TIP3    H269957   3.846   0.670  12.281 -0.1232 -0.4907 -0.1079
16156TIP3   OH269958   4.816   2.170  15.866  0.1175  0.7252 -0.1715
16156TIP3    H169959   4.907   2.189  15.889  0.4649 -0.0841 -0.8515
16156TIP3    H269960   4.814   2.172  15.770 -0.2321 -0.7432 -0.2131
16157TIP3   OH269961   3.983   5.777  16.816 -0.4341  0.0548 -0.1490
16157TIP3    H169962   3.975   5.759  16.909  0.8043 -1.6882 -0.3555
16157TIP3    H269963   4.077   5.790  16.803 -0.3328 -1.9690 -1.5480
16158TIP3   OH269964   4.514   0.158   0.405 -0.2153 -0.0568 -0.0409
16158TIP3    H169965   4.534   0.095   0.336 -0.2282 -0.3471  0.2184
16158TIP3    H269966   4.567   0.129   0.479  0.8692  1.0836 -0.3648
16159TIP3   OH269967   5.165   1.521   5.805  0.5064 -0.1381 -0.0659
16159TIP3    H169968   5.215   1.451   5.764  1.7776 -0.3310  1.7118
16159TIP3    H269969   5.080   1.519   5.763  1.1005 -1.6385 -1.2214
16160TIP3   OH269970   4.644   5.640  16.011  0.3364 -0.4274 -0.2859
16160TIP3    H169971   4.691   5.634  16.095 -1.1051  0.7647  0.6455
16160TIP3    H269972   4.584   5.565  16.012  0.9512 -0.9222 -0.6559
16161TIP3   OH269973   2.345   1.769  13.563  0.0383 -0.3090  0.4985
16161TIP3    H169974   2.326   1.859  13.535 -1.6910 -0.9401 -0.4958
16161TIP3    H269975   2.411   1.739  13.501  0.0836  0.0498  0.3678
16162TIP3   OH269976   5.332   2.501   5.776 -0.1664 -0.3392 -0.7292
16162TIP3    H169977   5.400   2.470   5.717 -0.5598 -0.3012 -1.1994
16162TIP3    H269978   5.370   2.489   5.864  1.4372  2.0044 -1.0575
16163TIP3   OH269979   1.900   1.029   0.343 -0.4740  0.0999 -0.3745
16163TIP3    H169980   1.965   0.958   0.341 -0.4356  0.1625 -1.5038
16163TIP3    H269981   1.871   1.038   0.252 -1.3185  0.7666 -0.0467
16164TIP3   OH269982   2.663   6.311   5.920  0.3070 -0.1606  0.0283
16164TIP3    H169983   2.583   6.334   5.966  0.4430  0.4570 -0.0443
16164TIP3    H269984   2.649   6.340   5.830  0.2836 -0.8033 -0.1749
16165TIP3   OH269985   4.797   4.586  15.535  0.4646  0.2916 -0.4524
16165TIP3    H169986   4.743   4.553  15.464 -1.8143 -1.1639  1.8768
16165TIP3    H269987   4.754   4.668  15.562  1.6030  1.1024 -1.0311
16166TIP3   OH269988   0.225   1.156  12.504 -0.5139  0.0817  0.2332
16166TIP3    H169989   0.318   1.157  12.528 -0.4982 -0.2341  0.1785
16166TIP3    H269990   0.207   1.246  12.477 -0.0519 -0.0106 -0.4025
16167TIP3   OH269991   5.574   2.142   0.178  0.1229  0.0430 -0.3464
16167TIP3    H169992   5.619   2.114   0.099  1.3334  2.0888 -0.4214
16167TIP3    H269993   5.529   2.223   0.153 -1.0204 -0.2963  0.5673
16168TIP3   OH269994   4.780   0.971  16.053  0.8761 -0.6298  0.5254
16168TIP3    H169995   4.723   0.998  15.980  0.8393 -2.5156 -0.1727
16168TIP3    H269996   4.724   0.977  16.130  0.9497  1.5171  0.4448
16169TIP3   OH269997   3.665   1.831  12.935  0.4559 -0.1002 -0.0071
16169TIP3    H169998   3.654   1.764  12.867  0.8763  0.3265 -0.4995
16169TIP3    H269999   3.704   1.784  13.009 -0.6094 -0.7051  0.1805
16170TIP3   OH270000   1.759   6.690  14.409 -0.3495  0.3017  0.1498
16170TIP3    H170001   1.758   6.635  14.331  1.0172 -0.2276  0.4956
16170TIP3    H270002   1.742   6.778  14.377 -0.6366 -0.0413 -0.6377
16171TIP3   OH270003   1.205   0.568  14.783  0.1675  0.1483 -0.2012
16171TIP3    H170004   1.222   0.493  14.840 -0.1418  0.7244  0.6636
16171TIP3    H270005   1.204   0.531  14.695 -0.9667 -1.0443  0.2842
16172TIP3   OH270006   5.014   2.777   4.582 -0.4416 -0.0364 -0.3507
16172TIP3    H170007   4.966   2.832   4.644 -1.3027 -0.1226 -0.9359
16172TIP3    H270008   5.008   2.689   4.620 -0.4385  0.0116 -0.2378
16173TIP3   OH270009   5.113   4.902  15.931 -0.1909 -0.3622  0.1558
16173TIP3    H170010   5.018   4.914  15.938  0.0049  1.3029  0.1492
16173TIP3    H270011   5.130   4.903  15.837 -0.2080 -1.0908  0.1408
16174TIP3   OH270012   5.570   1.699  12.813 -0.6115  0.0866 -0.1531
16174TIP3    H170013   5.581   1.654  12.897  0.9201  1.2461  0.2876
16174TIP3    H270014   5.514   1.773  12.833  0.0805  0.5923 -0.0481
16175TIP3   OH270015   5.192   5.262  15.783 -0.4476  0.1648 -0.5480
16175TIP3    H170016   5.103   5.295  15.769 -1.2875 -1.1475  1.5612
16175TIP3    H270017   5.223   5.309  15.860 -0.0053 -0.7658 -0.1570
16176TIP3   OH270018   2.926   4.615  14.055 -0.2690  0.6013 -0.1156
16176TIP3    H170019   2.995   4.592  14.118  0.4045  0.5917 -0.8562
16176TIP3    H270020   2.888   4.696  14.090  0.8229  1.1847 -0.2595
16177TIP3   OH270021   4.430   5.556  13.267 -0.0309  0.2006  0.2650
16177TIP3    H170022   4.465   5.477  13.225 -1.4340  0.1071 -0.7897
16177TIP3    H270023   4.506   5.612  13.280  0.5837 -0.1723 -1.5753
16178TIP3   OH270024   5.359   4.768   2.447  0.5598 -0.0693 -0.1134
16178TIP3    H170025   5.406   4.835   2.496  1.5316 -0.0322 -1.0701
16178TIP3    H270026   5.337   4.702   2.512  1.0832  0.3722  0.5240
16179TIP3   OH270027   3.911   4.050   1.420 -0.4422  0.5513  0.0018
16179TIP3    H170028   3.935   4.133   1.462  0.3630  0.4610 -0.2748
16179TIP3    H270029   3.942   4.058   1.330  5.0809 -2.2980  1.4113
16180TIP3   OH270030   2.401   4.619   3.697  0.3116  0.5083  0.8284
16180TIP3    H170031   2.319   4.667   3.682 -0.4674 -0.7505  1.0366
16180TIP3    H270032   2.383   4.563   3.772  1.0428 -0.5288  0.2354
16181TIP3   OH270033   0.500   6.715  14.653  0.1371 -0.0553 -0.3831
16181TIP3    H170034   0.446   6.698  14.577 -1.4688  0.7204  0.5654
16181TIP3    H270035   0.513   6.629  14.693 -0.5517 -0.2222 -0.5120
16182TIP3   OH270036   3.993   1.307  12.227 -0.5319 -0.3385  0.6249
16182TIP3    H170037   4.056   1.236  12.238 -0.4744 -0.1210  1.7591
16182TIP3    H270038   4.042   1.377  12.185 -0.2920 -0.5414  0.5657
16183TIP3   OH270039   6.005   1.167   5.146  0.3446 -0.2763 -0.3690
16183TIP3    H170040   6.038   1.257   5.133 -0.1083 -0.4417 -2.8463
16183TIP3    H270041   6.077   1.122   5.189  1.3373  0.7863 -0.8762
16184TIP3   OH270042   4.460   3.019   4.941  0.3960 -0.2246 -0.8535
16184TIP3    H170043   4.464   3.079   4.866 -1.5911 -1.4522 -2.0117
16184TIP3    H270044   4.519   2.948   4.918  0.5614 -0.1051 -0.7961
16185TIP3   OH270045   0.751   4.959  14.774  0.2894 -0.4094 -0.0588
16185TIP3    H170046   0.669   4.976  14.727  0.6253 -0.4705 -0.6783
16185TIP3    H270047   0.781   5.045  14.803  1.7349  0.0792 -2.7558
16186TIP3   OH270048   4.298   1.348  16.312  0.3524  0.1514 -0.4985
16186TIP3    H170049   4.352   1.426  16.304  1.1945 -0.2277  1.1145
16186TIP3    H270050   4.221   1.377  16.360 -0.3600  0.4467 -1.8043
16187TIP3   OH270051   6.509   0.065  16.862  0.8030  0.2454 -0.2010
16187TIP3    H170052   6.505  -0.027  16.887 -0.7224  0.5141  0.6285
16187TIP3    H270053   6.597   0.078  16.828  1.4796 -1.1764  1.0056
16188TIP3   OH270054   5.856   3.599   5.082  0.2867 -0.6222 -0.1457
16188TIP3    H170055   5.817   3.537   5.144  0.8403 -1.6943 -0.8518
16188TIP3    H270056   5.859   3.551   4.999  3.6892 -0.8317  0.0194
16189TIP3   OH270057   3.198   2.172  12.615  0.2230 -0.2045 -0.7254
16189TIP3    H170058   3.283   2.210  12.593  0.8085 -0.7425  0.5804
16189TIP3    H270059   3.152   2.165  12.531  1.8468 -0.8510 -1.5647
16190TIP3   OH270060   5.581   2.121   5.261  0.2673  0.8444  1.0948
16190TIP3    H170061   5.553   2.210   5.284 -1.6162  0.0568  1.9517
16190TIP3    H270062   5.673   2.119   5.285  0.1606  2.3530  1.7453
16191TIP3   OH270063   5.205   5.450   3.556  0.1264  0.9783  0.1844
16191TIP3    H170064   5.118   5.469   3.591 -0.1150  0.2735 -0.0174
16191TIP3    H270065   5.232   5.532   3.515 -0.0434  1.4842  1.0666
16192TIP3   OH270066   4.559   4.740  12.391 -0.3835 -0.1742  0.9735
16192TIP3    H170067   4.482   4.783  12.354 -0.6374 -1.3311  0.1342
16192TIP3    H270068   4.630   4.758  12.330 -0.1155  0.4041  1.4498
16193TIP3   OH270069   6.665   3.707   1.286  0.6855  0.7432  0.2852
16193TIP3    H170070   6.693   3.795   1.314  0.0240  0.7876  0.8069
16193TIP3    H270071   6.736   3.649   1.315 -0.0733  0.7596  2.2396
16194TIP3   OH270072   2.264   0.626  15.772 -0.1449 -0.6630 -0.2198
16194TIP3    H170073   2.316   0.675  15.836  1.6238 -0.0784 -2.0752
16194TIP3    H270074   2.186   0.680  15.757  0.2429  0.0011  0.1493
16195TIP3   OH270075   2.462   3.843  13.994 -0.8184  0.1920  0.3759
16195TIP3    H170076   2.375   3.823  14.029 -1.1680  0.1109 -0.5160
16195TIP3    H270077   2.448   3.849  13.899  0.0841  0.5218  0.2639
16196TIP3   OH270078   5.663   4.786  12.043 -0.0638 -0.5437 -0.0765
16196TIP3    H170079   5.660   4.691  12.052  0.4934 -0.5230  0.3611
16196TIP3    H270080   5.668   4.818  12.134  1.8183 -0.1795 -0.2881
16197TIP3   OH270081   2.777   0.376   5.335 -0.1624  0.0866 -0.1977
16197TIP3    H170082   2.748   0.338   5.418  1.5304 -1.0660 -0.1233
16197TIP3    H270083   2.715   0.343   5.270 -0.8866  0.1708  0.4438
16198TIP3   OH270084   6.581   2.462   3.736  0.4561  0.6096  0.0057
16198TIP3    H170085   6.531   2.473   3.817 -0.9994  1.7951 -1.0144
16198TIP3    H270086   6.517   2.430   3.673  1.2849  0.9343 -1.0063
16199TIP3   OH270087   4.350   3.829   4.896  0.3188 -0.1988  0.6668
16199TIP3    H170088   4.301   3.908   4.871  0.8459  0.0500  0.4203
16199TIP3    H270089   4.425   3.862   4.944  1.6128 -0.4189 -1.1562
16200TIP3   OH270090   4.245   3.923  14.782  0.1090 -0.0471  0.2533
16200TIP3    H170091   4.263   3.829  14.779  0.3597  0.0195 -0.2955
16200TIP3    H270092   4.252   3.952  14.691 -1.9533  0.1421  0.1418
16201TIP3   OH270093   2.761   5.679  13.998 -0.1696 -0.0657  0.5850
16201TIP3    H170094   2.773   5.588  14.026 -0.7121  0.0918  1.3134
16201TIP3    H270095   2.820   5.730  14.054  0.2444  0.0223  0.0805
16202TIP3   OH270096   5.322   1.202  14.670 -0.0122  0.1912 -0.6568
16202TIP3    H170097   5.277   1.122  14.697 -0.9788  0.8976 -0.0966
16202TIP3    H270098   5.411   1.175  14.650  0.2840 -0.6562  1.6664
16203TIP3   OH270099   2.807   2.195   0.671 -0.4644 -1.1719  0.0509
16203TIP3    H170100   2.738   2.130   0.685 -0.3724 -0.8497  2.2310
16203TIP3    H270101   2.849   2.203   0.756  1.3130 -0.2633 -0.8924
16204TIP3   OH270102   1.174   1.845  11.907  0.0332  0.0830 -0.2957
16204TIP3    H170103   1.104   1.889  11.859  1.5122  0.1760 -2.4077
16204TIP3    H270104   1.213   1.915  11.960  0.0748  0.5370 -0.9232
16205TIP3   OH270105   5.313   6.702  12.485  0.4766 -0.5029  0.4114
16205TIP3    H170106   5.329   6.611  12.459  1.6566 -0.3139  0.4238
16205TIP3    H270107   5.398   6.732  12.519 -0.1017  0.3669  1.1102
16206TIP3   OH270108   6.788   1.162  14.688 -0.4283  0.1928  0.3185
16206TIP3    H170109   6.781   1.253  14.717 -0.2465  0.3705 -0.2044
16206TIP3    H270110   6.854   1.163  14.620  0.8147 -0.6084  1.4864
16207TIP3   OH270111   0.461   0.452   6.300 -0.2053  0.4902  0.1193
16207TIP3    H170112   0.395   0.382   6.296 -0.9358  1.1087  1.1070
16207TIP3    H270113   0.540   0.409   6.331  0.0720 -0.4024 -1.7402
16208TIP3   OH270114   5.380   2.738   5.130  0.1447  0.3655 -0.1744
16208TIP3    H170115   5.285   2.726   5.121  0.1334 -0.7417  1.1473
16208TIP3    H270116   5.408   2.776   5.047 -1.5228  1.0939 -0.4255
16209TIP3   OH270117   0.059   4.221   0.179 -0.0540 -0.0349  0.2310
16209TIP3    H170118  -0.011   4.284   0.194  1.0084  1.2131  0.0969
16209TIP3    H270119   0.128   4.246   0.241  1.8742  1.2999 -2.3149
16210TIP3   OH270120   2.802   6.081  11.144  0.4040 -0.0713 -0.2733
16210TIP3    H170121   2.745   6.158  11.139 -0.8040 -0.8348  1.2722
16210TIP3    H270122   2.746   6.008  11.119  1.2646 -0.6046 -0.6856
16211TIP3   OH270123   1.603   1.348   6.083  0.2037  1.2883 -0.0865
16211TIP3    H170124   1.538   1.379   6.147  0.7108 -0.8821  1.5427
16211TIP3    H270125   1.685   1.344   6.132  0.2082 -2.3004 -0.2849
16212TIP3   OH270126   4.262   4.849   3.158 -0.2952 -0.7813  0.2218
16212TIP3    H170127   4.207   4.926   3.144  1.1187  0.6887  2.3687
16212TIP3    H270128   4.347   4.874   3.120 -0.3235 -1.9657 -0.6399
16213TIP3   OH270129   0.862   2.449  11.876 -0.4780  0.7304  0.1406
16213TIP3    H170130   0.794   2.502  11.833 -1.2345 -2.2464 -2.5257
16213TIP3    H270131   0.813   2.383  11.925  0.4760  1.8584  2.7048
16214TIP3   OH270132   4.609   4.199  15.108  0.3277  0.2870  0.2801
16214TIP3    H170133   4.589   4.292  15.093 -1.1614 -0.0338  0.2230
16214TIP3    H270134   4.544   4.152  15.055  0.4179 -0.7968  1.1268
16215TIP3   OH270135   2.874   5.754   5.675 -0.3992 -0.3215 -0.1428
16215TIP3    H170136   2.837   5.807   5.605  0.3410 -1.3097 -1.2810
16215TIP3    H270137   2.894   5.817   5.745 -1.8609  0.5528 -0.4931
16216TIP3   OH270138   3.884   2.655  11.503 -0.0287 -0.0037 -0.3482
16216TIP3    H170139   3.945   2.636  11.431 -1.2145 -2.4298 -0.7448
16216TIP3    H270140   3.798   2.657  11.461 -0.6358 -0.5529  0.8656
16217TIP3   OH270141   5.539   5.731  11.400  0.3989 -0.4680 -0.1289
16217TIP3    H170142   5.533   5.781  11.319  1.2281  1.7928  1.1611
16217TIP3    H270143   5.631   5.705  11.406  0.5243  0.1094  0.5077
16218TIP3   OH270144   0.897   5.458  14.525 -0.0426 -0.1425  0.0319
16218TIP3    H170145   0.822   5.517  14.523  0.6328  0.9045  2.9552
16218TIP3    H270146   0.904   5.432  14.617  4.1374  1.0286  0.1196
16219TIP3   OH270147   5.495   2.236   1.702 -0.2499 -0.3172 -0.3273
16219TIP3    H170148   5.552   2.263   1.774 -0.1237  0.1597 -0.6017
16219TIP3    H270149   5.463   2.150   1.728 -0.5412  0.0277  0.4960
16220TIP3   OH270150   6.428   1.520   3.433  0.3255 -0.2764  0.5046
16220TIP3    H170151   6.384   1.452   3.382 -1.1321  1.0268 -0.0223
16220TIP3    H270152   6.468   1.578   3.368  1.2135 -0.4073  0.9336
16221TIP3   OH270153   1.246   1.367  10.327 -0.1622 -0.4159  0.1308
16221TIP3    H170154   1.153   1.355  10.309 -0.0396  0.4945 -1.1698
16221TIP3    H270155   1.288   1.288  10.293 -0.3458 -0.3865 -0.1633
16222TIP3   OH270156   6.017   1.980  14.307  0.0744  0.1524 -0.1878
16222TIP3    H170157   6.102   1.950  14.274 -0.2643 -0.1484 -0.7965
16222TIP3    H270158   6.038   2.053  14.365  0.8998 -1.0528  1.0723
16223TIP3   OH270159   2.120   4.773   1.264  0.2676 -0.0358  0.4681
16223TIP3    H170160   2.182   4.701   1.260 -0.7130 -0.7983 -1.5128
16223TIP3    H270161   2.044   4.737   1.310 -0.3285 -0.3557 -0.7594
16224TIP3   OH270162   4.368   5.068   1.130 -0.1469  0.0290  0.1774
16224TIP3    H170163   4.373   5.099   1.040  0.0935 -1.6689 -0.4274
16224TIP3    H270164   4.275   5.056   1.147 -0.1251 -0.8047 -0.2714
16225TIP3   OH270165   2.728   0.608   5.711  0.0264 -0.3656  0.8720
16225TIP3    H170166   2.816   0.615   5.674 -0.2066  0.0081  0.3826
16225TIP3    H270167   2.695   0.524   5.678 -0.1813 -0.0332  0.2214
16226TIP3   OH270168   0.316   3.737  12.967  0.2582  0.9905 -0.3111
16226TIP3    H170169   0.408   3.735  12.993  1.5199  3.2703 -4.1658
16226TIP3    H270170   0.296   3.646  12.944  2.0409  0.7575 -1.0054
16227TIP3   OH270171   5.988   2.135   0.789 -0.6769  0.1530 -0.0870
16227TIP3    H170172   6.035   2.215   0.764 -1.0406  0.5216  0.3982
16227TIP3    H270173   5.933   2.116   0.713 -2.3401  1.7002  0.6928
16228TIP3   OH270174   6.525   5.496  11.671 -0.2860 -0.4832  0.0396
16228TIP3    H170175   6.490   5.552  11.741 -0.8395 -0.5349 -0.1956
16228TIP3    H270176   6.448   5.467  11.623  0.1218 -0.1628 -0.8154
16229TIP3   OH270177   0.305   2.561  14.176  0.5572  0.3383  0.2162
16229TIP3    H170178   0.390   2.576  14.219 -0.1174  0.3587  1.5930
16229TIP3    H270179   0.243   2.558  14.249 -0.5215 -0.4220 -0.7318
16230TIP3   OH270180   3.074   3.261  14.217 -0.7375  0.0599 -0.2287
16230TIP3    H170181   3.084   3.176  14.259  1.2027 -0.0240 -0.8188
16230TIP3    H270182   3.055   3.240  14.125  3.3268  0.1772 -1.2134
16231TIP3   OH270183   0.322   4.208   4.806  0.4550 -0.8934 -0.4699
16231TIP3    H170184   0.361   4.285   4.764  1.3616 -0.5096  1.0743
16231TIP3    H270185   0.379   4.188   4.880 -1.4347 -1.2135  0.9467
16232TIP3   OH270186   3.989   2.563  15.950 -0.1891  0.0972  0.0966
16232TIP3    H170187   3.937   2.637  15.921 -0.3670  0.5620  1.5696
16232TIP3    H270188   3.937   2.486  15.926 -0.4949  0.4801 -0.4742
16233TIP3   OH270189   1.155   1.094   1.810  0.3570 -0.3608 -0.6453
16233TIP3    H170190   1.240   1.082   1.769  1.4454  1.2702  1.0588
16233TIP3    H270191   1.139   1.012   1.857  0.1073 -1.3873 -2.5146
16234TIP3   OH270192   1.616   0.123   0.635  0.1393  0.2201 -0.1397
16234TIP3    H170193   1.703   0.145   0.667  0.4958 -0.9437 -0.2998
16234TIP3    H270194   1.607   0.172   0.553  0.8954 -0.1886 -0.4641
16235TIP3   OH270195   4.213   1.643  17.218 -0.4534  0.4267 -0.0777
16235TIP3    H170196   4.165   1.725  17.206 -2.1773 -0.7105 -1.1829
16235TIP3    H270197   4.147   1.581  17.250  0.8843 -0.4583  1.0044
16236TIP3   OH270198   6.555   0.858  13.292 -0.5891  0.1344  0.6186
16236TIP3    H170199   6.591   0.875  13.205 -0.4616 -0.4767  0.5445
16236TIP3    H270200   6.582   0.933  13.345  0.7652 -0.2922  0.5536
16237TIP3   OH270201   0.791   5.845   5.232  0.5156 -0.0845  0.1856
16237TIP3    H170202   0.736   5.889   5.296 -0.1972  0.1728 -0.5936
16237TIP3    H270203   0.746   5.762   5.215 -0.1607  0.5313 -1.1591
16238TIP3   OH270204   4.751   0.186  13.628  0.1264 -0.0354  0.3125
16238TIP3    H170205   4.782   0.275  13.612 -0.8757  0.2811  0.1053
16238TIP3    H270206   4.825   0.130  13.602  1.3167  0.7833  1.8850
16239TIP3   OH270207   1.755   5.533   4.527 -0.3741  0.1294  0.3849
16239TIP3    H170208   1.801   5.531   4.611  1.2250  0.0581 -0.4692
16239TIP3    H270209   1.731   5.442   4.510  1.2406 -0.1896 -0.2597
16240TIP3   OH270210   1.672   1.203   0.728 -0.1249  0.5476 -0.2955
16240TIP3    H170211   1.731   1.137   0.691  1.3238  1.0988  0.9692
16240TIP3    H270212   1.585   1.164   0.721  0.5731 -0.9860 -0.6756
16241TIP3   OH270213   5.601   5.643   0.900 -0.0077 -0.1275 -0.1343
16241TIP3    H170214   5.512   5.653   0.866  0.3046  0.9908 -0.6301
16241TIP3    H270215   5.654   5.700   0.845  0.9831 -0.5853  0.3361
16242TIP3   OH270216   0.578   2.278   0.729 -0.5946  0.0147  0.0983
16242TIP3    H170217   0.538   2.356   0.767  1.3180  0.1139  2.0063
16242TIP3    H270218   0.645   2.313   0.669  0.7929 -0.1285  1.5352
16243TIP3   OH270219   5.275   1.596   2.136 -0.3588  0.1110  0.4085
16243TIP3    H170220   5.182   1.600   2.113  0.0662  2.1108 -1.0921
16243TIP3    H270221   5.316   1.550   2.063  0.2191  1.7303 -0.3110
16244TIP3   OH270222   6.659   5.539   2.706  0.6853  0.0507 -0.2029
16244TIP3    H170223   6.634   5.631   2.703 -0.2897 -0.1665  0.8859
16244TIP3    H270224   6.666   5.513   2.614  0.1595  0.9909 -0.5156
16245TIP3   OH270225   0.537   5.080  11.470  0.5277  0.4415  0.5757
16245TIP3    H170226   0.567   4.990  11.463 -0.1250  0.2362  0.4168
16245TIP3    H270227   0.586   5.128  11.404 -1.2662 -0.3480 -1.3643
16246TIP3   OH270228   6.418   6.786  13.892  0.2960 -0.4745  0.2839
16246TIP3    H170229   6.436   6.735  13.814  0.9657  0.7539 -0.3748
16246TIP3    H270230   6.503   6.823  13.917 -0.0104 -0.4211  1.2844
16247TIP3   OH270231   4.007   4.915   4.483  0.3262  0.1267 -0.2320
16247TIP3    H170232   4.091   4.910   4.438  0.9660 -1.6750  1.0933
16247TIP3    H270233   3.958   4.839   4.452  0.1923 -0.2763  0.9307
16248TIP3   OH270234   2.209   6.095   3.826 -0.0795  0.2933 -0.2645
16248TIP3    H170235   2.273   6.039   3.871 -0.4821 -2.0900 -2.5529
16248TIP3    H270236   2.207   6.176   3.878  1.4501 -1.3169  2.4195
16249TIP3   OH270237   0.634   3.520   2.103  0.4390 -0.1010 -0.2449
16249TIP3    H170238   0.549   3.557   2.078  0.4785 -0.7339 -1.3790
16249TIP3    H270239   0.644   3.444   2.046  0.7954 -1.3084  1.3854
16250TIP3   OH270240   3.821   5.022   5.548 -0.0649  0.8612  0.2774
16250TIP3    H170241   3.888   5.070   5.597 -1.1922  1.8065  0.9144
16250TIP3    H270242   3.741   5.073   5.561 -0.6259  0.5254 -1.6228
16251TIP3   OH270243   6.694   3.353  15.781 -0.0644  0.4876  0.3737
16251TIP3    H170244   6.757   3.394  15.722 -0.0270  1.6751  1.2183
16251TIP3    H270245   6.609   3.382  15.749 -0.0007  2.0285  1.5264
16252TIP3   OH270246   1.872   3.112  14.784  0.2287  0.1653  0.3790
16252TIP3    H170247   1.881   3.017  14.790  2.8686  0.2483 -1.5371
16252TIP3    H270248   1.799   3.126  14.723 -0.8944 -0.6063  1.5269
16253TIP3   OH270249   1.933   6.055  16.934  0.0082  0.5034 -0.3469
16253TIP3    H170250   1.978   5.973  16.915  0.8335  0.5827  1.1522
16253TIP3    H270251   1.864   6.031  16.997 -0.7113  0.7225 -1.0434
16254TIP3   OH270252   5.164   3.201  14.971  0.4817 -0.2460 -0.5329
16254TIP3    H170253   5.231   3.179  14.906  0.7171 -1.3491  0.0675
16254TIP3    H270254   5.089   3.147  14.948  1.0042 -1.6229  0.8478
16255TIP3   OH270255   2.804   1.886  11.963 -0.8631  0.1499  0.4075
16255TIP3    H170256   2.773   1.880  12.053 -0.5339  1.0103  0.5836
16255TIP3    H270257   2.821   1.795  11.937 -1.3337 -0.1343  1.0736
16256TIP3   OH270258   6.627   2.350   1.116 -0.0002  0.3093 -0.4098
16256TIP3    H170259   6.575   2.272   1.134  0.4159 -0.1276 -1.0826
16256TIP3    H270260   6.708   2.317   1.077  0.5892  1.0129  0.1844
16257TIP3   OH270261   4.722   3.357  15.623 -0.4860 -0.2033  0.5493
16257TIP3    H170262   4.647   3.313  15.582 -0.2408 -0.9431  0.8795
16257TIP3    H270263   4.684   3.405  15.697 -0.7343  0.0138  0.2832
16258TIP3   OH270264   4.149   6.474  16.011 -0.2444  0.1977 -0.5779
16258TIP3    H170265   4.218   6.435  16.064 -1.0230  0.1243  0.3997
16258TIP3    H270266   4.115   6.402  15.958  1.6778  0.6232 -2.4530
16259TIP3   OH270267   2.071   0.253   6.108 -0.1798  0.6577 -0.2360
16259TIP3    H170268   2.122   0.334   6.112 -0.7376  1.1723 -2.5256
16259TIP3    H270269   1.983   0.279   6.137  0.3277  0.2409  1.6964
16260TIP3   OH270270   6.774   2.080  13.749 -0.1975 -0.2216  0.4952
16260TIP3    H170271   6.734   2.038  13.826 -1.2271 -1.2391 -0.5620
16260TIP3    H270272   6.712   2.148  13.724 -1.1638 -1.5758 -0.9425
16261TIP3   OH270273   3.288   4.718   1.067 -0.1111 -0.2727  0.2028
16261TIP3    H170274   3.316   4.696   1.156  1.4283 -0.6662 -0.3539
16261TIP3    H270275   3.294   4.814   1.063 -1.6877 -0.1310  0.9912
16262TIP3   OH270276   1.109   3.995   2.811 -0.2838 -0.0597  0.7882
16262TIP3    H170277   1.185   3.940   2.833  0.2864  0.7140  0.7795
16262TIP3    H270278   1.033   3.944   2.841  0.2689 -0.6068  1.2751
16263TIP3   OH270279   4.069   3.434  16.099 -0.3553  0.3512 -0.1631
16263TIP3    H170280   4.041   3.493  16.170 -0.1414  0.2905 -0.0263
16263TIP3    H270281   4.148   3.392  16.133 -0.0928  0.5291 -0.5450
16264TIP3   OH270282   3.863   3.562  13.793  0.1901  0.3357 -0.3776
16264TIP3    H170283   3.850   3.480  13.840 -0.4713 -1.0223 -2.8005
16264TIP3    H270284   3.786   3.615  13.815 -0.7637 -0.7940 -0.8912
16265TIP3   OH270285   3.876   3.732   1.615 -0.0904  0.0527 -0.0663
16265TIP3    H170286   3.892   3.657   1.559 -0.6190 -2.2743  2.7704
16265TIP3    H270287   3.930   3.802   1.578  1.8519 -2.2546 -1.7013
16266TIP3   OH270288   3.274   4.011   1.197  0.6862  0.9341  0.4596
16266TIP3    H170289   3.368   4.014   1.218  0.8028 -0.2042  0.1431
16266TIP3    H270290   3.271   4.002   1.102  0.3298 -2.1015  0.7237
16267TIP3   OH270291   4.763   2.242   4.864 -0.3639 -0.1564 -0.0858
16267TIP3    H170292   4.752   2.315   4.925  0.4879  0.3109 -0.4880
16267TIP3    H270293   4.858   2.231   4.857 -0.4840 -1.3685  0.0493
16268TIP3   OH270294   6.042   0.058   4.117 -0.0404  0.1147 -0.9452
16268TIP3    H170295   6.064  -0.033   4.133  0.2311  0.2570 -0.5069
16268TIP3    H270296   5.987   0.083   4.191  0.8605  0.6494 -0.4555
16269TIP3   OH270297   6.603   6.258   5.627  0.1163  0.1611  0.3942
16269TIP3    H170298   6.588   6.295   5.713 -2.1148  2.3078 -0.8592
16269TIP3    H270299   6.524   6.208   5.607  1.4650 -2.0581  0.4082
16270TIP3   OH270300   2.409   2.160  15.889 -0.0075 -0.3955  0.7327
16270TIP3    H170301   2.346   2.093  15.914  0.0480  0.6018  3.7777
16270TIP3    H270302   2.357   2.228  15.845 -0.6469 -0.7293  0.9743
16271TIP3   OH270303   0.955   2.192  17.030  0.4444 -0.6026  0.4094
16271TIP3    H170304   1.011   2.166  17.103  1.6356 -0.2814 -0.3737
16271TIP3    H270305   0.926   2.110  16.991 -0.8122 -0.7890  1.6797
16272TIP3   OH270306   2.637   6.167  15.407  0.5796 -0.0637  0.5112
16272TIP3    H170307   2.687   6.125  15.476 -2.4047 -2.0925  1.5088
16272TIP3    H270308   2.547   6.168  15.439 -0.5382  0.7983 -2.4970
16273TIP3   OH270309   5.319   5.361   2.483  0.3891 -0.0079 -0.2041
16273TIP3    H170310   5.289   5.414   2.557 -2.5209  0.7234 -1.8094
16273TIP3    H270311   5.396   5.315   2.515  0.0088  1.3699  2.8142
16274TIP3   OH270312   1.666   4.251   5.033 -0.0142  0.2152  0.9143
16274TIP3    H170313   1.747   4.230   4.987 -0.5855 -0.2059  0.0776
16274TIP3    H270314   1.693   4.270   5.123  0.9819 -0.1251  0.6885
16275TIP3   OH270315   4.088   1.470  13.837  0.8189  0.2312  0.0808
16275TIP3    H170316   4.098   1.393  13.780  1.6613 -1.3628  2.3268
16275TIP3    H270317   4.007   1.511  13.806 -0.2960 -2.2313 -0.4035
16276TIP3   OH270318   4.741   4.494   5.533 -0.5276 -0.2369 -0.2077
16276TIP3    H170319   4.815   4.450   5.576 -1.1502  0.5279  1.6968
16276TIP3    H270320   4.781   4.555   5.472  0.4077  0.0176  0.6578
16277TIP3   OH270321   6.028   2.553  15.620  0.3083  0.2286  0.1699
16277TIP3    H170322   6.079   2.549  15.540  0.4476 -0.6458  0.2955
16277TIP3    H270323   6.062   2.629  15.667  0.7436  0.2898 -0.2463
16278TIP3   OH270324   1.487   4.731   1.409 -0.6265 -0.0913  0.1424
16278TIP3    H170325   1.537   4.812   1.398  0.3521 -0.5553  1.1551
16278TIP3    H270326   1.409   4.758   1.458  0.5313 -0.0621  1.9945
16279TIP3   OH270327   3.249   0.143   6.150  0.3055  0.3263  0.6060
16279TIP3    H170328   3.223   0.089   6.076 -1.1687  1.8461 -0.0157
16279TIP3    H270329   3.251   0.082   6.224 -0.1751 -0.8100 -0.2992
16280TIP3   OH270330   5.611   3.825  11.574  0.0586 -1.0240 -0.9311
16280TIP3    H170331   5.525   3.866  11.569 -0.5389 -2.2905 -1.2411
16280TIP3    H270332   5.594   3.731  11.565  1.2913 -1.4426  0.7590
16281TIP3   OH270333   4.027   0.262   5.810  0.4321 -0.1390 -0.0492
16281TIP3    H170334   3.980   0.337   5.775 -0.5011 -0.8321 -0.2959
16281TIP3    H270335   4.017   0.270   5.905 -2.3969 -1.6654 -0.1679
16282TIP3   OH270336   2.502   5.041   0.906  0.5542  0.5753  0.4274
16282TIP3    H170337   2.596   5.032   0.891 -0.0955 -0.7215 -3.4767
16282TIP3    H270338   2.485   5.134   0.892  1.4117  1.0177  2.2614
16283TIP3   OH270339   0.757   2.575   1.003  0.4436 -0.1133 -0.1841
16283TIP3    H170340   0.673   2.589   0.960  0.3594  0.9759  0.3088
16283TIP3    H270341   0.775   2.482   0.992 -0.5463 -0.2363 -0.7978
16284TIP3   OH270342   3.978   2.494  11.043 -0.2381  0.2890  0.2708
16284TIP3    H170343   3.980   2.401  11.019 -1.5493  0.3103  0.0566
16284TIP3    H270344   3.943   2.538  10.965  0.7204  1.0077  0.2379
16285TIP3   OH270345   3.326   2.102   0.180 -0.4267 -0.0726  0.5205
16285TIP3    H170346   3.282   2.088   0.095 -1.3984 -0.0076  1.0034
16285TIP3    H270347   3.336   2.014   0.216  3.2754 -0.4566 -1.2534
16286TIP3   OH270348   3.925   5.144   4.623 -0.3675 -0.6709 -0.1708
16286TIP3    H170349   4.005   5.183   4.657 -0.3205 -0.6535 -0.2992
16286TIP3    H270350   3.948   5.053   4.604 -0.7352 -1.0147  1.0081
16287TIP3   OH270351   1.609   6.384  14.542 -0.7776  0.0479 -0.1196
16287TIP3    H170352   1.586   6.400  14.450 -1.9854 -2.4009 -0.2875
16287TIP3    H270353   1.534   6.418  14.591 -0.3198  0.9730 -0.0473
16288TIP3   OH270354   0.777   6.081   2.899  0.9242 -0.1919  0.2367
16288TIP3    H170355   0.814   6.157   2.942 -0.1107  1.1633 -1.2018
16288TIP3    H270356   0.816   6.082   2.811 -0.4987 -0.2470 -0.4055
16289TIP3   OH270357   5.960   4.414   0.277 -0.6229 -0.1002  0.1185
16289TIP3    H170358   5.945   4.506   0.257  0.4298 -0.6745 -3.6333
16289TIP3    H270359   5.874   4.372   0.264 -1.2614  0.4174  2.4912
16290TIP3   OH270360   5.384   2.056  14.399  0.1190 -0.3931 -0.3598
16290TIP3    H170361   5.388   2.035  14.305  1.3716 -0.1750 -0.3596
16290TIP3    H270362   5.473   2.082  14.422  0.1420 -1.7583  1.2011
16291TIP3   OH270363   3.272   3.672   5.594  0.0854  0.5166  0.1177
16291TIP3    H170364   3.249   3.722   5.672  0.7652  0.4249  0.3764
16291TIP3    H270365   3.225   3.589   5.603  1.0754  0.0439  0.9976
16292TIP3   OH270366   2.158   4.449   1.658  0.5289 -0.7318  0.4540
16292TIP3    H170367   2.242   4.486   1.686  1.3948 -1.3862 -1.2273
16292TIP3    H270368   2.118   4.418   1.739  1.8246 -0.2388  1.3066
16293TIP3   OH270369   4.648   5.650   1.102  0.4928  0.3098 -0.1113
16293TIP3    H170370   4.585   5.583   1.125  0.5964  0.2629  0.0349
16293TIP3    H270371   4.710   5.606   1.044  0.8525  0.1463  0.3918
16294TIP3   OH270372   1.101   1.340  11.654 -0.0889  0.6941  0.8835
16294TIP3    H170373   1.122   1.431  11.672  3.2445  0.1436  0.0459
16294TIP3    H270374   1.057   1.342  11.569 -2.2787  1.7144  1.9938
16295TIP3   OH270375   4.690   4.552   3.562  0.6704  0.1718 -0.4933
16295TIP3    H170376   4.740   4.495   3.621 -0.3168 -0.5412 -0.3365
16295TIP3    H270377   4.708   4.640   3.595  1.2490 -0.1218  0.0031
16296TIP3   OH270378   4.975   5.095   5.756  0.2557 -0.0783 -0.2273
16296TIP3    H170379   4.881   5.099   5.773  0.5565  0.2557  1.4291
16296TIP3    H270380   4.987   5.011   5.711 -0.4677 -1.4672  2.0678
16297TIP3   OH270381   4.760   0.614   3.182 -0.2407  0.1480  0.3447
16297TIP3    H170382   4.715   0.652   3.106 -2.0251 -1.1367  0.7143
16297TIP3    H270383   4.769   0.687   3.243  0.2611  0.9532 -0.6771
16298TIP3   OH270384   2.295   2.305   2.781 -0.1188  0.2734  0.3435
16298TIP3    H170385   2.290   2.396   2.751  0.4102  0.8906  2.0617
16298TIP3    H270386   2.205   2.284   2.806 -0.4598 -0.0664 -1.1227
16299TIP3   OH270387   4.038   0.333   0.924  0.0457  0.2250  0.1187
16299TIP3    H170388   3.956   0.285   0.922  1.0017 -1.4831  0.9786
16299TIP3    H270389   4.058   0.351   0.832 -0.0614 -1.4702 -0.2369
16300TIP3   OH270390   2.189   6.648   2.083  0.5970  0.3809 -0.1216
16300TIP3    H170391   2.188   6.566   2.035  1.7020 -0.0189  0.5097
16300TIP3    H270392   2.133   6.632   2.159  0.8104  0.2056  0.0001
16301TIP3   OH270393   4.942   4.136   3.951  0.1485 -0.1794 -0.2143
16301TIP3    H170394   4.876   4.111   3.887 -0.3340  2.3374 -0.7524
16301TIP3    H270395   4.899   4.122   4.036 -0.3872 -0.3854 -0.5160
16302TIP3   OH270396   4.620   5.421  15.156  0.0894  0.4299  0.0651
16302TIP3    H170397   4.658   5.431  15.244 -0.8867  0.2664  0.5102
16302TIP3    H270398   4.686   5.373  15.107 -0.4428 -1.7928  1.4439
16303TIP3   OH270399   1.243   5.618  12.354  0.1464 -0.2917 -0.0418
16303TIP3    H170400   1.264   5.618  12.260 -0.7713  0.4631 -0.2509
16303TIP3    H270401   1.177   5.550  12.363  1.8531 -1.9309  0.4443
16304TIP3   OH270402   3.643   2.982  14.649  0.0673 -0.5051 -0.4655
16304TIP3    H170403   3.711   2.924  14.685  0.3010 -0.5630 -0.9992
16304TIP3    H270404   3.642   2.962  14.556 -0.1255  0.0744 -0.5876
16305TIP3   OH270405   3.307   5.626  10.976  0.3720 -0.1788 -0.3764
16305TIP3    H170406   3.342   5.654  11.061 -0.4501  1.0212 -0.4234
16305TIP3    H270407   3.382   5.632  10.917  0.5048  0.7795 -0.1274
16306TIP3   OH270408   2.896   4.988  14.975  0.5378  0.3467  0.4881
16306TIP3    H170409   2.818   4.934  14.986 -0.9547  2.3035 -0.1735
16306TIP3    H270410   2.893   5.050  15.048  0.9096  1.0623 -0.0855
16307TIP3   OH270411   5.806   5.035  16.709  0.2108 -0.1337  0.0057
16307TIP3    H170412   5.882   5.065  16.759 -0.5892  0.3359  0.9584
16307TIP3    H270413   5.835   4.953  16.667  0.5354 -1.1554  2.1699
16308TIP3   OH270414   3.104   2.791   2.912  0.0827 -0.4264 -0.3881
16308TIP3    H170415   3.076   2.872   2.869  3.4451  1.0128 -0.0618
16308TIP3    H270416   3.060   2.791   2.996 -0.8315  0.4835 -0.8577
16309TIP3   OH270417   4.687   3.602   1.186 -0.8473  0.2137  0.2512
16309TIP3    H170418   4.662   3.530   1.243 -0.7168  0.2320  0.3329
16309TIP3    H270419   4.778   3.584   1.162 -0.9105  0.1921  0.0266
16310TIP3   OH270420   4.006   0.690  12.167  0.2291 -0.1153 -0.4445
16310TIP3    H170421   4.099   0.696  12.145  0.3300 -0.1308 -0.0247
16310TIP3    H270422   3.963   0.747  12.103  0.7389  1.6171  0.7231
16311TIP3   OH270423   5.740   5.300  13.784 -0.0180 -0.5406 -0.5013
16311TIP3    H170424   5.787   5.222  13.753  0.3415  0.7794 -3.4900
16311TIP3    H270425   5.664   5.306  13.726 -0.5751  0.7723  0.3603
16312TIP3   OH270426   0.826   6.341  14.392 -0.0594 -0.7343 -0.4823
16312TIP3    H170427   0.736   6.373  14.387  0.0162 -0.6797 -1.6110
16312TIP3    H270428   0.818   6.246  14.391 -0.1203 -0.7341 -0.1784
16313TIP3   OH270429   2.695   4.939   2.173  0.3964  0.3642  0.5263
16313TIP3    H170430   2.623   4.878   2.187  1.3224 -1.0370 -0.6580
16313TIP3    H270431   2.655   5.012   2.126 -0.5981  0.4134  1.4308
16314TIP3   OH270432   1.754   2.801   1.148  0.8922  0.2388  0.0417
16314TIP3    H170433   1.687   2.829   1.085 -0.2069 -0.2342  0.9886
16314TIP3    H270434   1.738   2.854   1.226  2.5465  1.1467 -0.2228
16315TIP3   OH270435   2.016   0.959  11.652  0.1635 -0.2429  0.4546
16315TIP3    H170436   2.091   0.934  11.706  1.4027  0.3865 -0.9180
16315TIP3    H270437   1.941   0.917  11.694  1.5075 -2.2522  0.9371
16316TIP3   OH270438   5.983   0.225  11.974  0.2143  0.2986 -0.1583
16316TIP3    H170439   6.044   0.204  11.903  0.7648  1.5313 -0.0523
16316TIP3    H270440   6.033   0.279  12.034 -1.1643  1.8601 -0.3902
16317TIP3   OH270441   2.307   1.450  12.878 -0.7779 -0.0883  0.1741
16317TIP3    H170442   2.342   1.363  12.859 -0.5832  0.2076 -0.8533
16317TIP3    H270443   2.272   1.443  12.967  0.8286 -0.7250  0.7796
16318TIP3   OH270444   5.859   3.870  17.152  0.1462  0.2003  0.3619
16318TIP3    H170445   5.779   3.877  17.203 -0.0265 -1.6181  0.3989
16318TIP3    H270446   5.863   3.777  17.128  2.5028  0.1631  0.8115
16319TIP3   OH270447   2.676   3.675  12.951  0.3040  0.2528 -0.3802
16319TIP3    H170448   2.662   3.765  12.921 -1.4416  0.3570  0.6635
16319TIP3    H270449   2.637   3.674  13.039  1.6216 -1.1325  0.1948
16320TIP3   OH270450   2.757   1.717   4.067  0.0974  0.6530 -0.2163
16320TIP3    H170451   2.789   1.767   3.992  1.9021  1.2651  0.9324
16320TIP3    H270452   2.764   1.777   4.141 -0.4604 -0.3476  0.6703
16321TIP3   OH270453   5.919   0.535  11.824  0.2619  0.2164  0.0265
16321TIP3    H170454   5.917   0.573  11.736  2.4134  1.3000  0.4252
16321TIP3    H270455   5.995   0.477  11.823  0.1476  0.0335  1.1074
16322TIP3   OH270456   1.932   4.506   0.997  0.1090 -0.7455  0.4047
16322TIP3    H170457   1.973   4.458   1.069  2.4835  0.2896 -0.2120
16322TIP3    H270458   1.991   4.579   0.981 -2.0672  0.8606 -0.4720
16323TIP3   OH270459   1.736   3.405   4.555  0.1461 -0.2351 -0.1443
16323TIP3    H170460   1.805   3.471   4.566  0.4121 -0.7633  1.4335
16323TIP3    H270461   1.770   3.328   4.600 -1.3085 -0.6162  0.3047
16324TIP3   OH270462   0.088   2.811   1.064  0.8462  0.0708  0.2053
16324TIP3    H170463   0.176   2.820   1.029  0.6455 -0.8860 -0.5562
16324TIP3    H270464   0.087   2.726   1.107  0.2655  0.0273  0.1186
16325TIP3   OH270465   5.276   2.100   0.979  0.2227 -1.1527  0.0468
16325TIP3    H170466   5.367   2.086   1.003 -0.1737 -2.3174  0.9197
16325TIP3    H270467   5.233   2.128   1.060 -0.1269 -0.2680 -0.4378
16326TIP3   OH270468   1.664   5.788  13.101 -0.3813 -0.1163  0.3280
16326TIP3    H170469   1.713   5.828  13.029 -0.8372 -1.2710 -0.6415
16326TIP3    H270470   1.575   5.779  13.068 -0.8667  0.4168  1.4702
16327TIP3   OH270471   0.013   6.280  11.247  0.3820 -0.1087 -0.5340
16327TIP3    H170472   0.045   6.353  11.195 -0.2862  0.0726 -0.6884
16327TIP3    H270473   0.048   6.202  11.204 -0.9890 -0.0136 -1.8384
16328TIP3   OH270474   2.933   0.859  12.042 -0.2294  0.3660  0.6223
16328TIP3    H170475   2.892   0.869  12.127 -2.4697 -2.0683 -0.1059
16328TIP3    H270476   2.996   0.787  12.054 -1.6910 -1.0683 -0.1299
16329TIP3   OH270477   0.819   4.485   0.729  0.2737  0.1869  0.4114
16329TIP3    H170478   0.801   4.496   0.636 -0.0804  0.5847  0.5245
16329TIP3    H270479   0.743   4.523   0.773  0.5048  0.1302  0.8637
16330TIP3   OH270480   1.536   4.595   4.588 -0.7227  0.2934 -0.2278
16330TIP3    H170481   1.444   4.609   4.612 -0.8348  0.5453 -0.7929
16330TIP3    H270482   1.565   4.523   4.644 -1.3070  0.1180 -0.1505
16331TIP3   OH270483   2.400   5.628   3.979 -0.6983 -0.4878  0.3259
16331TIP3    H170484   2.348   5.707   3.995 -0.3748  0.4085 -2.7031
16331TIP3    H270485   2.345   5.575   3.921  0.7485 -0.6149 -0.9555
16332TIP3   OH270486   2.061   4.718   3.196  0.0415  0.3299 -0.9418
16332TIP3    H170487   1.992   4.756   3.141  0.5259  2.6607  0.0326
16332TIP3    H270488   2.115   4.668   3.134 -2.8517 -2.0960 -1.6143
16333TIP3   OH270489   0.084   2.548   3.045 -0.2205  0.2446  0.5993
16333TIP3    H170490   0.115   2.468   3.087  0.2451  0.4577  0.6656
16333TIP3    H270491   0.163   2.588   3.008 -0.7603 -0.4107 -1.2762
16334TIP3   OH270492   1.447   2.587   3.610  0.7173  0.3942 -0.2922
16334TIP3    H170493   1.377   2.653   3.611  1.2047  0.9090  2.1901
16334TIP3    H270494   1.440   2.546   3.524  0.9479  4.2937 -2.2845
16335TIP3   OH270495   1.952   6.599   0.565  0.2410 -0.0129  0.1242
16335TIP3    H170496   1.966   6.645   0.482 -0.7784 -1.8799 -1.1188
16335TIP3    H270497   1.883   6.649   0.609  1.3610  1.4528  0.2230
16336TIP3   OH270498   2.147   4.725   3.680  1.0318  1.1576  0.2902
16336TIP3    H170499   2.130   4.744   3.772  1.1341 -1.7027  0.9510
16336TIP3    H270500   2.060   4.728   3.639  0.6759  0.0357  0.9620
16337TIP3   OH270501   6.814   2.195  12.745 -0.0406  0.0606 -0.3701
16337TIP3    H170502   6.767   2.277  12.755 -3.8978 -1.8521 -1.6886
16337TIP3    H270503   6.775   2.136  12.809  4.8087 -0.0249  2.7730
16338TIP3   OH270504   6.402   0.765  16.294 -0.3513 -0.1163  0.7684
16338TIP3    H170505   6.406   0.857  16.267  0.3228  0.0998  1.5926
16338TIP3    H270506   6.443   0.764  16.380 -0.6456 -1.1440  0.8982
16339TIP3   OH270507   6.776   4.085  14.340  0.0943  0.9097  0.0591
16339TIP3    H170508   6.778   4.181  14.347  1.5905  1.1210 -2.5616
16339TIP3    H270509   6.862   4.057  14.372  0.3301  0.6141 -0.7968
16340TIP3   OH270510   3.903   2.989   1.040  0.3749 -0.0439 -0.3324
16340TIP3    H170511   3.975   3.024   1.092  0.7196 -0.9559 -0.1822
16340TIP3    H270512   3.910   2.894   1.050 -0.0753 -0.1925 -1.3509
16341TIP3   OH270513   1.489   6.273   2.234 -0.5723 -0.5538 -0.0940
16341TIP3    H170514   1.428   6.248   2.303  0.2067 -1.0233  0.4394
16341TIP3    H270515   1.487   6.369   2.234 -1.2997 -0.5661 -0.0788
16342TIP3   OH270516   0.489   5.511  14.025  0.0308 -0.3202  0.0407
16342TIP3    H170517   0.528   5.589  13.986 -0.4162  0.3436  0.8755
16342TIP3    H270518   0.419   5.546  14.081  1.0969 -1.1833  1.9384
16343TIP3   OH270519   5.630   1.724  12.427 -0.2666 -0.1267 -0.0841
16343TIP3    H170520   5.537   1.705  12.422 -0.2143 -0.7844  1.4646
16343TIP3    H270521   5.672   1.639  12.440  0.6124  0.0938 -1.2837
16344TIP3   OH270522   3.538   4.503   0.628 -0.0332 -0.1486 -0.6166
16344TIP3    H170523   3.483   4.566   0.674 -0.3346 -2.2261  1.9991
16344TIP3    H270524   3.614   4.553   0.601 -0.7051  1.5582  0.5467
16345TIP3   OH270525   4.141   4.736  11.341  0.1035 -0.1809  0.8312
16345TIP3    H170526   4.160   4.643  11.347  1.9389  0.1255 -0.0000
16345TIP3    H270527   4.046   4.740  11.332 -0.2869 -1.8300  3.4722
16346TIP3   OH270528   0.601   0.380   5.756  0.0278 -0.6449  0.1366
16346TIP3    H170529   0.567   0.290   5.762  0.8249 -1.0268 -1.1078
16346TIP3    H270530   0.679   0.379   5.811 -0.5777 -0.4110  1.0167
16347TIP3   OH270531   3.625   0.591   0.547  0.2431  0.5195 -0.1962
16347TIP3    H170532   3.591   0.540   0.620  0.7289  0.9692  0.3510
16347TIP3    H270533   3.679   0.529   0.498  0.6719  0.4429  0.3552
16348TIP3   OH270534   2.953   0.213   3.709 -0.7773  0.2655 -0.4324
16348TIP3    H170535   2.993   0.192   3.794  0.9806  1.0663 -1.0480
16348TIP3    H270536   2.860   0.227   3.730 -0.1467  1.7414  1.5938
16349TIP3   OH270537   4.761   3.686   5.512  0.2714 -0.3598  0.0938
16349TIP3    H170538   4.678   3.698   5.466 -0.3973 -1.4550  0.9758
16349TIP3    H270539   4.741   3.622   5.580  1.1029  1.5618  2.2172
16350TIP3   OH270540   6.611   2.682   4.339  0.8829 -0.4145  0.2545
16350TIP3    H170541   6.519   2.706   4.328  1.3076  0.3856 -1.8306
16350TIP3    H270542   6.609   2.602   4.391 -0.8906  0.5106  1.6649
16351TIP3   OH270543   3.055   3.101   6.110  0.1707  0.3546 -0.2538
16351TIP3    H170544   2.985   3.037   6.125  0.1593  0.3537 -0.3093
16351TIP3    H270545   3.013   3.186   6.128 -0.0189  0.4009 -0.8842
16352TIP3   OH270546   6.048   2.944  15.422 -0.6444  0.1868  0.1760
16352TIP3    H170547   6.021   2.861  15.459  0.5419 -0.0613  0.5100
16352TIP3    H270548   6.109   2.981  15.486 -0.2303  0.7451 -0.5179
16353TIP3   OH270549   6.671   4.300   5.625 -0.0089  0.4380  0.0748
16353TIP3    H170550   6.710   4.241   5.560 -0.7561  0.7465 -0.6572
16353TIP3    H270551   6.744   4.322   5.684  0.1367 -1.6967  0.7288
16354TIP3   OH270552   0.965   3.458   1.346  0.5840  0.3150  0.3740
16354TIP3    H170553   1.059   3.462   1.328  0.1427  2.8571 -1.7203
16354TIP3    H270554   0.925   3.442   1.261 -0.9778  1.1157  0.9381
16355TIP3   OH270555   2.869   3.859   3.885  0.3374  0.2816 -0.2011
16355TIP3    H170556   2.774   3.860   3.897  0.6286 -0.9831  2.4869
16355TIP3    H270557   2.894   3.767   3.896  1.9369  0.6615 -0.4798
16356TIP3   OH270558   0.463   2.552   4.197  0.5744 -0.5278  0.3992
16356TIP3    H170559   0.421   2.474   4.160  0.5769  0.4618 -1.7738
16356TIP3    H270560   0.554   2.545   4.167  0.9058 -0.3821  1.3589
16357TIP3   OH270561   2.930   0.616   0.514  0.3585 -0.0111  0.5318
16357TIP3    H170562   2.919   0.620   0.419  1.7944  1.6904  0.4264
16357TIP3    H270563   2.841   0.627   0.549 -0.2966 -1.4832 -0.6019
16358TIP3   OH270564   1.677   3.633   6.685 -0.0730 -0.0906  0.5045
16358TIP3    H170565   1.644   3.616   6.597  0.6548  0.1879  0.1761
16358TIP3    H270566   1.735   3.560   6.704 -0.4254 -0.2831  0.8602
16359TIP3   OH270567   6.346   1.063   4.463  0.0123 -0.1249 -0.1482
16359TIP3    H170568   6.404   1.100   4.529  0.4624 -1.1741  0.0668
16359TIP3    H270569   6.373   1.103   4.381 -0.7721  1.4468  0.3360
16360TIP3   OH270570   0.269   0.045   2.962 -0.5897 -0.1352 -0.7671
16360TIP3    H170571   0.183   0.084   2.978  0.2614  1.4546  0.0541
16360TIP3    H270572   0.315   0.109   2.909 -0.4564 -1.6989 -2.5829
16361TIP3   OH270573   4.854   3.204  11.985  0.5548  0.2984 -0.2804
16361TIP3    H170574   4.810   3.278  12.026  0.1042  0.1565 -0.5011
16361TIP3    H270575   4.817   3.200  11.897 -1.3943 -1.8394  0.6100
16362TIP3   OH270576   5.016   0.836  12.662  0.8615  0.0719 -0.0872
16362TIP3    H170577   5.056   0.749  12.675  0.5425 -0.1182 -0.3823
16362TIP3    H270578   5.075   0.896  12.707  2.6338  0.0605 -2.3137
16363TIP3   OH270579   3.696   5.806  13.945 -0.0722  0.3724 -0.5144
16363TIP3    H170580   3.675   5.744  14.015  1.6752 -0.7098 -0.9198
16363TIP3    H270581   3.613   5.819  13.899 -0.9177 -0.0175  0.8647
16364TIP3   OH270582   0.958   0.943   6.940  0.1993 -0.1314 -0.7071
16364TIP3    H170583   0.949   1.019   6.883  1.4088  1.2379  0.8617
16364TIP3    H270584   0.882   0.947   6.999  0.0040 -0.4172 -0.9383
16365TIP3   OH270585   3.276   3.058  11.634  0.0685 -0.0749 -0.0784
16365TIP3    H170586   3.216   3.049  11.707  0.5078  1.1712  0.4378
16365TIP3    H270587   3.296   2.968  11.608  1.4897 -0.5924  2.6347
16366TIP3   OH270588   5.824   2.387  16.582 -0.0657 -0.2588  0.0689
16366TIP3    H170589   5.909   2.415  16.548 -0.2371 -1.1761 -1.1565
16366TIP3    H270590   5.785   2.466  16.619  0.3204  0.6878 -1.4923
16367TIP3   OH270591   6.203   4.580   5.397  0.9607  0.1692 -0.1350
16367TIP3    H170592   6.173   4.495   5.430 -0.9472  0.2343 -1.6183
16367TIP3    H270593   6.215   4.633   5.476 -0.2643 -0.7096  0.6680
16368TIP3   OH270594   1.165   2.682  14.156 -0.2129  0.0717 -0.2976
16368TIP3    H170595   1.172   2.774  14.132 -0.9853  0.2723  0.2514
16368TIP3    H270596   1.238   2.667  14.217  0.7259 -0.0214 -1.4208
16369TIP3   OH270597   4.974   4.258   1.131 -0.4434 -0.5715  0.3968
16369TIP3    H170598   5.036   4.197   1.171 -0.6686 -1.1158 -0.0937
16369TIP3    H270599   5.030   4.323   1.087 -0.2117 -1.1890 -0.2339
16370TIP3   OH270600   1.272   4.865   1.881  0.1646  0.4888  0.3655
16370TIP3    H170601   1.275   4.951   1.924  0.1526  1.1892 -1.0135
16370TIP3    H270602   1.363   4.841   1.868  0.1661  1.2520 -1.1153
16371TIP3   OH270603   6.686   0.802   1.837 -0.6105 -0.5106 -0.0256
16371TIP3    H170604   6.621   0.787   1.905 -1.6814 -0.6255 -1.0651
16371TIP3    H270605   6.715   0.892   1.850  1.4669 -1.4995  2.5131
16372TIP3   OH270606   0.035   5.568  17.267  0.4346 -0.4401 -0.6064
16372TIP3    H170607   0.017   5.662  17.269 -0.9702 -0.6827 -1.5395
16372TIP3    H270608   0.106   5.556  17.331  1.5648  1.4406 -1.4627
16373TIP3   OH270609   4.090   4.684  13.673  0.1809  0.2277 -0.1007
16373TIP3    H170610   4.042   4.692  13.755 -0.0738  2.5256 -0.4293
16373TIP3    H270611   4.023   4.683  13.605  0.4762  1.2406 -0.4286
16374TIP3   OH270612   4.585   4.510  12.536 -0.0673 -0.3074  0.2154
16374TIP3    H170613   4.602   4.597  12.501  1.1117 -0.0333  1.4320
16374TIP3    H270614   4.575   4.454  12.459 -0.0501  0.7455 -0.5575
16375TIP3   OH270615   0.967   3.658  12.689 -0.1094 -0.2088  0.2015
16375TIP3    H170616   0.916   3.577  12.692  1.7286 -1.4334 -0.3001
16375TIP3    H270617   1.016   3.659  12.771  1.6228 -0.8217 -0.7938
16376TIP3   OH270618   3.134   3.481   4.520 -0.5270 -0.2984 -0.0948
16376TIP3    H170619   3.184   3.557   4.488  2.7213 -0.8430  3.3632
16376TIP3    H270620   3.162   3.409   4.464  1.4445 -0.2563  0.7830
16377TIP3   OH270621   5.481   2.511   2.734  0.0685 -0.9617 -0.0392
16377TIP3    H170622   5.506   2.537   2.645 -1.1019  0.7415  0.0984
16377TIP3    H270623   5.493   2.591   2.786 -1.8734 -1.1868  0.7768
16378TIP3   OH270624   1.371   5.464  13.699  0.2469 -0.1991  0.2539
16378TIP3    H170625   1.340   5.413  13.624  0.4801  2.1084 -1.4858
16378TIP3    H270626   1.467   5.455  13.696  0.5328  2.6942 -1.9178
16379TIP3   OH270627   4.755   2.768  13.866  0.0360 -0.3247  0.3880
16379TIP3    H170628   4.710   2.684  13.853  0.8716 -0.9338  1.3490
16379TIP3    H270629   4.688   2.827  13.899 -0.4986 -0.6924 -0.0424
16380TIP3   OH270630   2.343   1.873  10.449  0.1043 -0.3094  0.4046
16380TIP3    H170631   2.300   1.958  10.458  0.3258 -0.1914  0.3394
16380TIP3    H270632   2.379   1.855  10.536 -1.0089 -0.9079  0.7493
16381TIP3   OH270633   4.920   5.956  15.601  0.0997  0.4719  0.5252
16381TIP3    H170634   4.863   5.974  15.525  0.5970  3.1633  0.7419
16381TIP3    H270635   4.859   5.932  15.671 -0.2877 -3.6581 -1.0527
16382TIP3   OH270636   5.372   6.204   3.020 -0.0634 -0.4767  0.9158
16382TIP3    H170637   5.317   6.168   3.090  1.5243  0.1784  2.5684
16382TIP3    H270638   5.388   6.294   3.047 -0.4459  0.1689 -0.9614
16383TIP3   OH270639   4.471   5.318  16.871  0.5458  0.5311 -0.0273
16383TIP3    H170640   4.514   5.268  16.801 -0.4170 -0.0388 -0.2279
16383TIP3    H270641   4.390   5.351  16.830  0.7316  1.4796  0.3740
16384TIP3   OH270642   4.106   5.354  13.210  0.2654 -0.3420 -0.0080
16384TIP3    H170643   4.118   5.311  13.125 -2.0848 -1.9356  0.4190
16384TIP3    H270644   4.017   5.329  13.237  0.7353  0.6822  2.6079
16385TIP3   OH270645   1.022   6.123   1.097 -0.8565  0.1226 -0.2975
16385TIP3    H170646   1.041   6.036   1.133 -2.3593  0.0770  0.4132
16385TIP3    H270647   1.056   6.184   1.163 -1.1202  0.0617 -0.1051
16386TIP3   OH270648   3.404   6.281  12.949  0.1257 -0.1316 -0.1597
16386TIP3    H170649   3.413   6.346  12.879 -0.3884 -0.6528 -0.7200
16386TIP3    H270650   3.486   6.233  12.949  0.5799  0.6333  0.3804
16387TIP3   OH270651   6.202   1.330   0.972  0.2119 -0.0111 -0.7827
16387TIP3    H170652   6.191   1.383   0.893  0.3055 -1.5068 -1.8180
16387TIP3    H270653   6.240   1.391   1.037 -3.5714  2.3287 -0.5854
16388TIP3   OH270654   5.365   3.848  12.706  0.3637 -0.0825 -0.4261
16388TIP3    H170655   5.345   3.760  12.737  0.9166 -0.2716 -0.6087
16388TIP3    H270656   5.395   3.894  12.784 -0.2923  0.0588 -0.2547
16389TIP3   OH270657   4.301   4.726   2.576  0.4315  0.3811  0.4225
16389TIP3    H170658   4.210   4.698   2.566  0.6616 -0.1157 -0.3086
16389TIP3    H270659   4.318   4.779   2.498  1.4248 -1.2947 -0.5176
16390TIP3   OH270660   5.759   2.165  12.328  0.0273 -0.0374  0.3847
16390TIP3    H170661   5.747   2.079  12.288 -0.2685  0.0406  0.3034
16390TIP3    H270662   5.854   2.173  12.340  0.1746  0.1587 -0.7910
16391TIP3   OH270663   6.713   0.577  13.740  0.1901 -0.7194  0.2039
16391TIP3    H170664   6.637   0.618  13.783  0.5180  0.3021 -0.1645
16391TIP3    H270665   6.785   0.590  13.801  0.2535 -0.9189  0.1710
16392TIP3   OH270666   2.824   6.172  15.208 -0.1500  0.5111 -0.3746
16392TIP3    H170667   2.903   6.205  15.251 -0.2441 -0.5915  0.6734
16392TIP3    H270668   2.756   6.175  15.276  0.1499 -3.0389  0.1673
16393TIP3   OH270669   0.068   6.374  13.766 -0.0503  0.2882 -0.1006
16393TIP3    H170670   0.035   6.437  13.703  0.5173  0.3296 -0.3593
16393TIP3    H270671   0.060   6.289  13.723 -0.5443  0.2137  0.1357
16394TIP3   OH270672   4.260   6.571  12.850  0.4872 -0.1282  0.2832
16394TIP3    H170673   4.255   6.485  12.892 -0.2574 -0.4717 -0.4681
16394TIP3    H270674   4.334   6.564  12.790  0.3742 -0.2844  0.1587
16395TIP3   OH270675   1.885   3.749  14.597  0.7200 -0.1105  0.0970
16395TIP3    H170676   1.791   3.733  14.605  0.7677 -0.6238 -0.3543
16395TIP3    H270677   1.891   3.836  14.560  0.4177 -0.2627 -0.3115
16396TIP3   OH270678   6.320   0.755   3.351  0.3392  0.4548 -0.0252
16396TIP3    H170679   6.244   0.741   3.407 -0.0297  1.4679 -0.2619
16396TIP3    H270680   6.392   0.712   3.398 -0.0149  1.0440  1.0897
16397TIP3   OH270681   2.719   5.202  13.939 -0.8165  0.4053  0.1099
16397TIP3    H170682   2.641   5.252  13.961 -1.4742 -0.3661 -0.4228
16397TIP3    H270683   2.723   5.204  13.843 -0.8624 -0.5521  0.0773
16398TIP3   OH270684   5.776   2.778   3.451  0.1537 -1.0993 -0.0973
16398TIP3    H170685   5.828   2.742   3.523  0.6284 -0.1034  0.0775
16398TIP3    H270686   5.685   2.765   3.479  0.3266 -1.4295  0.3265
16399TIP3   OH270687   5.162   5.987   5.408 -0.2077  0.0132  0.8520
16399TIP3    H170688   5.128   5.960   5.494 -0.6882 -1.9068  0.0700
16399TIP3    H270689   5.239   5.932   5.395 -1.0700 -0.8606 -0.6629
16400TIP3   OH270690   6.226   0.819  17.065 -0.0082 -0.4505 -0.1481
16400TIP3    H170691   6.307   0.771  17.049  0.0480 -1.0805  1.9938
16400TIP3    H270692   6.185   0.824  16.978  1.6305 -1.3371 -1.0100
16401TIP3   OH270693   0.700   6.675   4.264  0.0194 -0.3407 -0.4309
16401TIP3    H170694   0.780   6.629   4.237  0.7200 -0.1253  1.2040
16401TIP3    H270695   0.673   6.724   4.186  0.0626 -2.3762 -1.7520
16402TIP3   OH270696   3.304   4.017   0.902  0.0735 -0.0906  0.1981
16402TIP3    H170697   3.234   4.035   0.838 -0.2780 -1.1830  0.2653
16402TIP3    H270698   3.370   4.084   0.884 -0.4493  0.2093 -0.6790
16403TIP3   OH270699   0.401   0.918  11.485 -0.2477 -0.1506 -0.5224
16403TIP3    H170700   0.486   0.927  11.529 -1.1106 -0.7439  1.2979
16403TIP3    H270701   0.379   1.006  11.458  0.9632  0.0097 -1.0283
16404TIP3   OH270702   0.919   4.062   4.086  0.2734  0.0545  0.4555
16404TIP3    H170703   0.995   4.119   4.073 -0.2580  0.5395 -0.5892
16404TIP3    H270704   0.869   4.105   4.156  1.1411 -0.4714  1.4182
16405TIP3   OH270705   6.061   3.864  12.558  0.5133 -0.2898  0.4414
16405TIP3    H170706   6.059   3.900  12.469  1.5804  0.4369  0.6991
16405TIP3    H270707   6.090   3.937  12.613 -2.7392  0.0727  1.7890
16406TIP3   OH270708   0.942   1.363   1.395  0.1371 -0.5030 -0.3222
16406TIP3    H170709   0.973   1.333   1.481 -0.4385 -1.1535 -0.3388
16406TIP3    H270710   0.912   1.284   1.351  1.1850 -0.2890 -1.4460
16407TIP3   OH270711   0.356   1.020  15.542  0.5750 -0.6355 -0.1398
16407TIP3    H170712   0.300   0.958  15.494 -1.6451  0.7345  0.5822
16407TIP3    H270713   0.424   1.044  15.479 -1.9828  0.7528 -2.5085
16408TIP3   OH270714   6.723   0.360  12.671  0.4053  0.1890 -0.8431
16408TIP3    H170715   6.803   0.406  12.647  0.6713  0.4857  0.6020
16408TIP3    H270716   6.662   0.429  12.697  1.0449 -0.2697  2.0401
16409TIP3   OH270717   1.997   0.152  15.253  0.4370  0.1512 -0.5312
16409TIP3    H170718   1.923   0.132  15.195  1.4132 -0.5206 -1.5486
16409TIP3    H270719   2.054   0.207  15.200  0.0474  1.7707  0.6923
16410TIP3   OH270720   1.397   5.679   0.842 -0.2766  0.5092 -0.1738
16410TIP3    H170721   1.349   5.762   0.848 -0.9667 -0.0595  3.1994
16410TIP3    H270722   1.357   5.623   0.909  0.2164 -2.5711 -2.3288
16411TIP3   OH270723   4.670   3.131  12.481 -0.0446 -0.1922  0.0456
16411TIP3    H170724   4.679   3.043  12.446 -2.7900 -0.6842  0.5406
16411TIP3    H270725   4.753   3.146  12.528  1.4882 -1.4948 -2.1528
16412TIP3   OH270726   0.282   0.183   4.190 -0.0005  0.0492 -0.4408
16412TIP3    H170727   0.302   0.211   4.279  1.0709  1.9499 -1.2470
16412TIP3    H270728   0.363   0.200   4.141 -0.9990  0.2637 -2.0560
16413TIP3   OH270729   3.619   6.768  17.225  0.6129  0.0527  0.1400
16413TIP3    H170730   3.566   6.754  17.303  1.2913  0.0394  0.5989
16413TIP3    H270731   3.638   6.861  17.225 -2.0218  0.6492 -1.7063
16414TIP3   OH270732   3.852   4.851   0.094  0.0481 -0.1845  0.3545
16414TIP3    H170733   3.883   4.761   0.092 -1.7385 -0.8152 -0.8083
16414TIP3    H270734   3.877   4.887   0.009 -2.1486 -0.6556 -0.5364
16415TIP3   OH270735   6.279   1.968   2.961  0.7846 -0.1211  0.0980
16415TIP3    H170736   6.274   1.998   2.871 -0.5286 -0.5477  0.0134
16415TIP3    H270737   6.261   2.046   3.014  3.2000  0.5063  0.0685
16416TIP3   OH270738   3.458   2.212   5.028  0.4380 -0.1842  0.1260
16416TIP3    H170739   3.551   2.189   5.031  0.4598 -0.3500 -1.3789
16416TIP3    H270740   3.441   2.254   5.112  1.9127 -0.0329  0.3594
16417TIP3   OH270741   3.699   0.415   2.056 -0.1391 -0.1493  0.2241
16417TIP3    H170742   3.694   0.432   2.150  0.0791  0.5412  0.1141
16417TIP3    H270743   3.787   0.378   2.043  0.1837  0.6360  0.1571
16418TIP3   OH270744   4.803   5.142  13.817  0.0951  0.0794  0.2956
16418TIP3    H170745   4.812   5.192  13.736 -0.5215 -1.1810 -0.5693
16418TIP3    H270746   4.890   5.105  13.832 -0.0792 -0.6726 -0.4658
16419TIP3   OH270747   4.443   4.662   0.454  0.2132  0.3682 -0.3925
16419TIP3    H170748   4.526   4.699   0.425  0.3383  0.3646 -0.0410
16419TIP3    H270749   4.431   4.585   0.399  0.6269  0.1563 -0.1912
16420TIP3   OH270750   6.447   0.531  13.426  0.3571  0.5305  0.6222
16420TIP3    H170751   6.376   0.561  13.484 -0.1597 -2.4083  1.6103
16420TIP3    H270752   6.435   0.436  13.422  0.4771  0.6062 -4.2403
16421TIP3   OH270753   3.285   4.966  10.603  0.2718 -0.4631 -0.5061
16421TIP3    H170754   3.254   4.884  10.565 -0.5990  0.1404 -1.1339
16421TIP3    H270755   3.380   4.961  10.596  0.1723 -0.8240 -1.8230
16422TIP3   OH270756   4.283   1.157  15.949 -0.4379 -0.5520 -0.0348
16422TIP3    H170757   4.196   1.118  15.948 -1.0414  0.7482  0.5390
16422TIP3    H270758   4.272   1.241  15.994  1.7367 -1.8325  3.1318
16423TIP3   OH270759   2.320   2.455   3.952  0.2814 -0.2515 -0.1207
16423TIP3    H170760   2.302   2.527   3.892  2.1037 -0.0520 -0.4502
16423TIP3    H270761   2.234   2.419   3.972 -0.6032  1.6216 -0.4317
16424TIP3   OH270762   6.736   5.102  15.271 -0.2311 -0.1241  0.3866
16424TIP3    H170763   6.762   5.181  15.317 -2.6008  0.8249  0.2006
16424TIP3    H270764   6.640   5.106  15.270 -0.3349 -2.2191 -0.9798
16425TIP3   OH270765   2.798   1.691   5.539  0.2935 -0.0462 -0.2689
16425TIP3    H170766   2.841   1.722   5.619 -0.8558  1.1430 -0.0806
16425TIP3    H270767   2.831   1.749   5.471 -0.0055  0.0421 -0.3424
16426TIP3   OH270768   1.254   2.742  13.429  0.0517  0.0314 -0.0900
16426TIP3    H170769   1.335   2.758  13.381 -0.8460  2.3818 -0.9148
16426TIP3    H270770   1.197   2.698  13.366  0.0297  0.1508 -0.1566
16427TIP3   OH270771   0.234   1.639   0.152 -0.4132  0.0667 -0.5035
16427TIP3    H170772   0.242   1.582   0.228 -1.2545 -0.6592 -0.9473
16427TIP3    H270773   0.210   1.725   0.190  1.6864  0.3568  0.2147
16428TIP3   OH270774   0.687   3.477   0.774  0.3761  0.4188  0.7971
16428TIP3    H170775   0.681   3.430   0.691  0.2650 -1.1742  1.6812
16428TIP3    H270776   0.767   3.443   0.815  0.7371  1.6049  1.0830
16429TIP3   OH270777   1.923   4.116   1.769 -0.1883  0.2209 -0.4271
16429TIP3    H170778   1.851   4.101   1.709  0.0780  2.7215 -1.4019
16429TIP3    H270779   1.998   4.071   1.729 -0.5107  0.0781 -0.8673
16430TIP3   OH270780   1.929   6.166   2.218  0.2843 -0.3464  0.5310
16430TIP3    H170781   1.898   6.174   2.127 -1.7707 -2.4647  0.9814
16430TIP3    H270782   1.852   6.136   2.266  2.2256 -2.6408  2.3236
16431TIP3   OH270783   3.509   0.901   2.459  0.1830 -0.1203  0.6276
16431TIP3    H170784   3.583   0.920   2.516  0.2018 -1.4816  1.0692
16431TIP3    H270785   3.535   0.936   2.374  0.2400  1.7312  1.3901
16432TIP3   OH270786   5.085   0.634   5.903  0.3319 -0.1555  0.4386
16432TIP3    H170787   5.039   0.555   5.876 -0.7001  0.5878  0.0028
16432TIP3    H270788   5.115   0.615   5.992 -0.4616 -0.7958  0.5742
16433TIP3   OH270789   2.180   4.242  15.116  0.2151  0.4495  0.0211
16433TIP3    H170790   2.137   4.164  15.151 -2.5620  0.4339 -3.1322
16433TIP3    H270791   2.272   4.231  15.139 -0.3015 -3.1697  0.7093
16434TIP3   OH270792   5.906   2.820  17.249  0.2821 -0.2653 -0.2007
16434TIP3    H170793   5.850   2.750  17.217 -0.8604  0.8704 -0.6754
16434TIP3    H270794   5.978   2.825  17.185 -0.6330  0.2669 -1.1964
16435TIP3   OH270795   2.421   1.230  13.068  0.1191  0.3705 -0.5472
16435TIP3    H170796   2.416   1.139  13.095 -0.8028  0.4351 -0.4691
16435TIP3    H270797   2.402   1.229  12.975 -2.2629  0.7084 -0.0983
16436TIP3   OH270798   5.002   0.927   5.717  0.9852  0.3068 -0.0086
16436TIP3    H170799   5.045   0.864   5.659  1.3219  0.7487 -0.2368
16436TIP3    H270800   4.992   1.006   5.664 -1.9819 -0.4322 -0.6504
16437TIP3   OH270801   5.642   6.035  14.147  0.2742 -0.0608 -0.5500
16437TIP3    H170802   5.718   5.977  14.141  0.7060  0.1707  2.1554
16437TIP3    H270803   5.601   6.012  14.230  0.6339  3.6767  0.7351
16438TIP3   OH270804   3.400   4.907  14.446  0.5929 -0.0725 -0.3068
16438TIP3    H170805   3.394   4.875  14.356  1.6748 -1.4301  0.0869
16438TIP3    H270806   3.491   4.936  14.454  0.5206 -0.0404  0.3815
16439TIP3   OH270807   6.802   2.388   1.575  0.0054 -0.2887  0.1069
16439TIP3    H170808   6.854   2.319   1.534  0.2857  0.4429 -0.7798
16439TIP3    H270809   6.771   2.441   1.502 -0.1387  0.5802  0.7902
16440TIP3   OH270810   0.683   2.592  15.187  0.0953 -0.2368 -0.7237
16440TIP3    H170811   0.669   2.621  15.277  0.4768 -1.8353 -0.1318
16440TIP3    H270812   0.622   2.644  15.135  0.1468  0.9698  0.4082
16441TIP3   OH270813   3.933   0.587  13.426  0.1571  0.5253  0.6562
16441TIP3    H170814   3.872   0.646  13.470 -1.4137 -0.2875 -0.3682
16441TIP3    H270815   3.877   0.519  13.387  1.5859  0.5024 -1.4777
16442TIP3   OH270816   5.806   0.857  11.469  0.3782 -0.4420 -0.4321
16442TIP3    H170817   5.853   0.856  11.386 -0.7800 -1.2181 -1.0958
16442TIP3    H270818   5.840   0.934  11.515 -0.5185  1.2580 -2.5419
16443TIP3   OH270819   4.026   4.912   0.780 -0.1799  0.7224 -0.0694
16443TIP3    H170820   4.116   4.916   0.748 -0.9397  0.2677 -2.3764
16443TIP3    H270821   3.993   5.002   0.770  0.1347  1.0008  1.2293
16444TIP3   OH270822   6.180   4.944  11.001  0.2367 -0.1296 -0.2316
16444TIP3    H170823   6.097   4.988  10.984  0.3892  0.1867 -0.1565
16444TIP3    H270824   6.168   4.905  11.088  0.2404  0.0872 -0.1341
16445TIP3   OH270825   4.865   3.525  13.041  0.2290  0.2035 -0.2455
16445TIP3    H170826   4.787   3.499  12.992  0.0215  2.2918 -1.0746
16445TIP3    H270827   4.885   3.449  13.097  0.0648 -1.9600 -3.0221
16446TIP3   OH270828   2.157   5.977   1.416  0.6768  0.3922 -0.5057
16446TIP3    H170829   2.211   6.042   1.461 -0.7822 -0.1330  2.1214
16446TIP3    H270830   2.218   5.905   1.396  1.6142  1.1884 -0.5785
16447TIP3   OH270831   4.161   4.400   5.399 -0.0658 -0.5146  0.1287
16447TIP3    H170832   4.229   4.360   5.344  0.1384  0.2585 -0.1825
16447TIP3    H270833   4.187   4.492   5.407 -0.3987 -0.5028  1.0632
16448TIP3   OH270834   0.834   5.283  13.652  0.2008  0.1167 -0.3473
16448TIP3    H170835   0.813   5.297  13.744 -0.9678  0.7337 -0.7085
16448TIP3    H270836   0.870   5.194  13.650 -2.4759 -1.0466  0.2728
16449TIP3   OH270837   5.695   3.167   5.651  0.3776  0.1473  0.8130
16449TIP3    H170838   5.637   3.121   5.590  1.1716  1.7094 -1.1656
16449TIP3    H270839   5.783   3.136   5.629  0.8750  2.1753 -0.2348
16450TIP3   OH270840   3.566   6.199  14.645  0.0061 -1.1160 -0.1317
16450TIP3    H170841   3.551   6.268  14.709 -0.5149 -1.8220  0.5242
16450TIP3    H270842   3.623   6.137  14.690  0.4630 -1.1186 -0.7113
16451TIP3   OH270843   1.653   3.214  13.711 -0.4536 -0.3383 -0.3693
16451TIP3    H170844   1.575   3.161  13.698 -1.2988 -0.0851  3.1663
16451TIP3    H270845   1.710   3.159  13.766  1.9046 -0.4956 -2.8160
16452TIP3   OH270846   6.159   4.707  14.491  0.1880  1.1733 -0.0129
16452TIP3    H170847   6.133   4.759  14.414 -1.5565 -1.6239 -1.4061
16452TIP3    H270848   6.244   4.669  14.466 -0.6527 -0.2009 -0.8257
16453TIP3   OH270849   3.753   0.093   2.795 -0.1413 -0.6725  0.2264
16453TIP3    H170850   3.675   0.061   2.749 -2.7453  0.6815  3.5055
16453TIP3    H270851   3.758   0.186   2.772 -0.4287 -0.4041  1.1950
16454TIP3   OH270852   0.856   0.444   2.904 -0.0233 -0.0595 -0.0249
16454TIP3    H170853   0.832   0.422   2.994  1.6435  0.2247  0.5132
16454TIP3    H270854   0.934   0.391   2.887 -0.0887  0.1997 -1.1603
16455TIP3   OH270855   0.387   5.140  12.075  0.1375  0.2995  0.1336
16455TIP3    H170856   0.466   5.115  12.123  0.1748 -0.6005 -0.3884
16455TIP3    H270857   0.419   5.169  11.990  0.0805  2.0067  0.6849
16456TIP3   OH270858   1.803   0.417  13.284 -0.3415  1.1506  0.4981
16456TIP3    H170859   1.729   0.425  13.345  0.4729 -3.9371  2.4056
16456TIP3    H270860   1.879   0.439  13.337  0.0414  0.3360  0.2909
16457TIP3   OH270861   6.425   6.208   0.166 -0.2252  0.4691 -0.3410
16457TIP3    H170862   6.396   6.139   0.226  0.4053  0.4302 -0.0712
16457TIP3    H270863   6.368   6.282   0.185  0.4461  0.7046  0.8538
16458TIP3   OH270864   1.278   6.105  12.406 -0.3626 -0.3038  0.5086
16458TIP3    H170865   1.239   6.021  12.381 -1.9241  0.6211 -0.1980
16458TIP3    H270866   1.355   6.114  12.349 -0.7822 -0.7648 -0.1329
16459TIP3   OH270867   2.787   4.363   4.562 -0.5890 -0.0224 -0.3562
16459TIP3    H170868   2.751   4.274   4.568 -0.7198 -0.0799 -1.7774
16459TIP3    H270869   2.732   4.407   4.498  0.4015  0.6238 -0.7826
16460TIP3   OH270870   1.738   3.080  13.434  0.5693 -0.2803 -0.1180
16460TIP3    H170871   1.747   3.033  13.516  1.3291  0.7227  0.3931
16460TIP3    H270872   1.660   3.135  13.445  1.4506  0.8749  0.4644
16461TIP3   OH270873   3.181   3.676   0.552 -0.4881  0.0661  1.0212
16461TIP3    H170874   3.127   3.616   0.501 -0.9768  0.3781  1.1739
16461TIP3    H270875   3.119   3.732   0.597 -0.0336  0.5745  1.0215
16462TIP3   OH270876   4.748   1.833   5.337 -0.6190  0.2580  0.0279
16462TIP3    H170877   4.803   1.881   5.275 -1.8415  2.0840  0.3033
16462TIP3    H270878   4.661   1.837   5.298 -0.6837 -2.0065 -0.0690
16463TIP3   OH270879   1.749   3.952  16.901  0.7264  0.2199 -0.0979
16463TIP3    H170880   1.782   4.026  16.851 -1.0451  0.6942 -0.5911
16463TIP3    H270881   1.654   3.960  16.897  0.4925 -2.2856 -0.4609
16464TIP3   OH270882   4.568   4.907  11.561  0.8224 -0.0073  0.0407
16464TIP3    H170883   4.486   4.889  11.515  0.4169 -1.9318  1.5080
16464TIP3    H270884   4.635   4.905  11.492 -0.1213 -0.1691 -0.8804
16465TIP3   OH270885   3.758   2.939   1.506  0.4265 -0.5552  0.1335
16465TIP3    H170886   3.723   2.898   1.585  0.3638  1.3285  1.1292
16465TIP3    H270887   3.848   2.962   1.530 -0.2173  1.8334  0.3785
16466TIP3   OH270888   1.824   1.804  13.254 -0.1321 -0.1146 -0.5745
16466TIP3    H170889   1.898   1.852  13.290 -0.3107  0.1371 -0.5377
16466TIP3    H270890   1.825   1.825  13.160  1.5080 -2.3381 -1.0861
16467TIP3   OH270891   6.319   2.727  13.786 -0.3275  0.4975 -0.4108
16467TIP3    H170892   6.309   2.649  13.732 -0.7746  0.8388 -0.8352
16467TIP3    H270893   6.321   2.695  13.876  1.8454 -0.2143 -0.6780
16468TIP3   OH270894   0.635   4.662  14.760 -0.3631 -0.6786  0.4325
16468TIP3    H170895   0.721   4.703  14.760 -0.1613 -1.0135 -1.7277
16468TIP3    H270896   0.589   4.701  14.834  0.8721  1.1639  0.2593
16469TIP3   OH270897   6.762   3.786  10.863 -0.6728 -0.1517  0.0988
16469TIP3    H170898   6.671   3.767  10.840 -0.3873 -1.2392 -0.1563
16469TIP3    H270899   6.814   3.732  10.803  0.1219 -0.9967  1.5023
16470TIP3   OH270900   4.813   0.372   3.098  0.1236  0.5101  0.3157
16470TIP3    H170901   4.880   0.343   3.160 -1.1727 -1.0348  1.0228
16470TIP3    H270902   4.776   0.450   3.137 -0.6107 -0.3962  1.4389
16471TIP3   OH270903   0.480   5.593   4.188  0.4215  0.1269  0.4334
16471TIP3    H170904   0.393   5.614   4.223  0.5986 -0.0122  0.9684
16471TIP3    H270905   0.516   5.530   4.251  1.0493  0.4505  0.4034
16472TIP3   OH270906   1.031   4.904  11.323  0.2325 -0.1463  0.5009
16472TIP3    H170907   1.058   4.832  11.266  0.6229  1.4105 -1.3378
16472TIP3    H270908   0.935   4.904  11.319  0.2801  0.5366 -0.9308
16473TIP3   OH270909   3.904   4.714   5.412 -0.1041  0.2027 -0.0909
16473TIP3    H170910   3.938   4.626   5.429 -1.6397 -0.4511 -0.3609
16473TIP3    H270911   3.829   4.722   5.471  0.8406  1.8497  0.9097
16474TIP3   OH270912   5.955   0.573  13.489  0.6910  0.3177 -0.2954
16474TIP3    H170913   5.983   0.482  13.493 -1.8178 -0.4891  0.0280
16474TIP3    H270914   5.984   0.612  13.571  0.1706 -0.6889  0.3673
16475TIP3   OH270915   3.022   1.814   1.010 -0.6517 -0.4062  0.1751
16475TIP3    H170916   3.101   1.843   1.055 -0.8751 -0.4837  0.6304
16475TIP3    H270917   2.965   1.892   1.009 -0.9661 -0.6242  0.7513
16476TIP3   OH270918   1.521   1.568   3.261  0.7681 -0.2216  0.1652
16476TIP3    H170919   1.559   1.654   3.278  2.8234 -1.4654  1.9980
16476TIP3    H270920   1.595   1.512   3.239 -0.6878 -1.2557 -2.4619
16477TIP3   OH270921   1.764   3.422   0.371  0.0445  0.2579 -0.0197
16477TIP3    H170922   1.796   3.512   0.370 -1.5939  0.9035  1.7997
16477TIP3    H270923   1.797   3.385   0.452 -1.1958 -0.0429  0.3613
16478TIP3   OH270924   4.773   3.194   3.322  0.1752  0.1987 -0.1893
16478TIP3    H170925   4.847   3.251   3.299 -0.5211  1.5061  0.7754
16478TIP3    H270926   4.753   3.216   3.413 -0.5195 -1.1412 -0.0126
16479TIP3   OH270927   5.296   0.207   1.976  0.1277 -0.4285  0.6633
16479TIP3    H170928   5.297   0.168   2.063  0.4381 -1.5642  0.1543
16479TIP3    H270929   5.207   0.191   1.944  0.8072 -2.4566 -0.3069
16480TIP3   OH270930   6.727   5.778   0.801 -0.3201 -0.2879 -0.1021
16480TIP3    H170931   6.761   5.867   0.807  1.3070 -1.0049  1.7816
16480TIP3    H270932   6.773   5.739   0.727  0.4607 -0.2171  0.3520
16481TIP3   OH270933   0.090   0.267  15.567 -0.3479  0.4105 -0.2870
16481TIP3    H170934   0.176   0.310  15.569 -0.6297  1.0073 -0.8132
16481TIP3    H270935   0.029   0.337  15.546 -1.0801  0.1537  0.9209
16482TIP3   OH270936   1.966   1.585  16.069 -0.6477 -0.1155  0.4389
16482TIP3    H170937   1.986   1.495  16.092 -3.8681 -2.1152 -3.7195
16482TIP3    H270938   2.024   1.605  15.996 -0.3315  0.9915  0.9810
16483TIP3   OH270939   1.994   3.995  13.607 -0.2381  0.0271  0.7995
16483TIP3    H170940   2.017   4.005  13.699  0.2216  1.7833  0.5208
16483TIP3    H270941   1.922   4.057  13.593 -0.2960 -0.2159 -0.0130
16484TIP3   OH270942   2.927   3.501  14.228 -0.1233  0.3725 -0.4844
16484TIP3    H170943   2.959   3.411  14.240 -0.7407  0.1957 -0.1171
16484TIP3    H270944   2.976   3.534  14.153  1.1617  0.2259  0.2840
16485TIP3   OH270945   2.020   5.709   1.907 -0.0209  0.4272 -0.5611
16485TIP3    H170946   1.967   5.758   1.844 -0.5346  0.0213 -0.4454
16485TIP3    H270947   1.990   5.741   1.993  0.7052  1.0087 -0.5217
16486TIP3   OH270948   6.692   3.004   6.146  0.1200  0.7038 -0.0450
16486TIP3    H170949   6.622   3.069   6.148  0.4889  1.2141 -2.0746
16486TIP3    H270950   6.654   2.926   6.185 -1.5811  0.9998 -1.0571
16487TIP3   OH270951   1.874   1.684   2.512 -0.2167  0.0119  0.0671
16487TIP3    H170952   1.805   1.694   2.446 -0.2052 -1.6393 -0.2142
16487TIP3    H270953   1.924   1.607   2.484 -0.5248 -1.0408  2.2367
16488TIP3   OH270954   4.411   2.778   4.247  0.5196 -0.2387  0.2385
16488TIP3    H170955   4.324   2.739   4.258  0.3772  0.4520  1.6878
16488TIP3    H270956   4.437   2.755   4.158 -1.3202 -0.1263 -0.3480
16489TIP3   OH270957   2.066   6.148   0.566 -0.3949 -0.0165 -0.0251
16489TIP3    H170958   2.016   6.223   0.531 -0.9982 -0.5838 -0.3856
16489TIP3    H270959   2.029   6.134   0.653  0.1322  0.4880  0.2820
16490TIP3   OH270960   0.227   5.288  13.661  0.2695 -0.0207  0.2488
16490TIP3    H170961   0.189   5.346  13.727  1.3607  1.3836 -0.3258
16490TIP3    H270962   0.309   5.330  13.637 -0.2720 -0.2945 -2.2516
16491TIP3   OH270963   2.837   1.488   3.447  0.6824  0.0122 -0.2552
16491TIP3    H170964   2.758   1.469   3.497  1.6553  1.6351  2.0289
16491TIP3    H270965   2.821   1.573   3.407  1.2539  0.3555  0.2275
16492TIP3   OH270966   1.492   5.775  15.709 -0.4417  0.5111  0.2025
16492TIP3    H170967   1.463   5.775  15.618  0.7997 -1.0382 -0.2211
16492TIP3    H270968   1.455   5.694  15.745  1.5355 -0.3995  0.2338
16493TIP3   OH270969   0.748   2.477   4.130 -0.7767  0.5945  0.1535
16493TIP3    H170970   0.761   2.557   4.180  2.5034  0.8448 -0.9995
16493TIP3    H270971   0.763   2.406   4.192 -2.3922  0.8563  0.8607
16494TIP3   OH270972   5.350   0.475   1.802  0.0701  0.0950  0.0852
16494TIP3    H170973   5.274   0.514   1.843 -0.6362 -0.3049 -0.8209
16494TIP3    H270974   5.391   0.547   1.754 -0.7045 -0.0556 -0.8197
16495TIP3   OH270975   4.564   1.060  13.355 -0.0779 -0.7254  0.3441
16495TIP3    H170976   4.508   1.013  13.293 -1.0697 -0.2625  0.8641
16495TIP3    H270977   4.503   1.095  13.420  0.5866  1.4308 -0.1266
16496TIP3   OH270978   6.586   4.177  11.124  0.0076  0.2323  0.2884
16496TIP3    H170979   6.568   4.086  11.143 -0.5138  0.2898  0.0648
16496TIP3    H270980   6.507   4.210  11.082  0.6154  0.4746 -0.6927
16497TIP3   OH270981   4.510   0.788  13.243  0.1346 -0.0518  0.0510
16497TIP3    H170982   4.458   0.755  13.316 -0.0591  1.3124  0.5483
16497TIP3    H270983   4.597   0.749  13.256  0.6002  1.5477  2.0249
16498TIP3   OH270984   0.983   3.201   5.121  0.5380  0.0764 -0.7367
16498TIP3    H170985   0.925   3.133   5.155  1.5424 -1.7715 -2.6014
16498TIP3    H270986   0.929   3.251   5.061 -0.4665  1.5677  1.3534
16499TIP3   OH270987   4.062   4.598   1.158  0.3482 -0.0262 -0.3121
16499TIP3    H170988   4.085   4.530   1.094  1.2694  1.1360 -1.2286
16499TIP3    H270989   4.004   4.657   1.111  1.5261  1.1806 -0.2770
16500TIP3   OH270990   0.055   0.971   1.347 -0.0106  0.1887  0.0488
16500TIP3    H170991  -0.018   0.949   1.405 -0.5259  0.7043 -0.3871
16500TIP3    H270992   0.134   0.952   1.397 -0.4243 -2.7576 -0.3525
16501TIP3   OH270993   5.263   0.008  16.281 -0.7686 -0.2747 -0.2950
16501TIP3    H170994   5.321  -0.065  16.298 -1.7687 -1.0822 -0.2960
16501TIP3    H270995   5.176  -0.024  16.306 -1.1116  1.1388  0.3711
16502TIP3   OH270996   6.141   4.371  12.908 -0.0928  0.2412 -0.1614
16502TIP3    H170997   6.174   4.432  12.842 -1.3556  0.9097 -0.1715
16502TIP3    H270998   6.054   4.403  12.930 -0.0571 -0.5244  1.1476
16503TIP3   OH270999   4.864   4.066   5.207 -0.1856 -0.0066 -0.4168
16503TIP3    H171000   4.911   4.094   5.128 -1.3572  2.0741 -0.4138
16503TIP3    H271001   4.831   3.979   5.186  1.5452 -0.4627 -1.3290
16504TIP3   OH271002   1.801   1.063   6.049 -0.3942 -0.3638  0.4417
16504TIP3    H171003   1.774   1.079   6.139 -2.4582 -0.5002 -0.1442
16504TIP3    H271004   1.775   0.973   6.031 -1.0311  0.0368 -0.6646
16505TIP3   OH271005   0.145   4.391  17.083  0.3115 -0.0136 -0.2466
16505TIP3    H171006   0.230   4.409  17.123  0.1244  0.0026  0.1539
16505TIP3    H271007   0.139   4.295  17.082  0.3304 -0.0143 -0.2589
16506TIP3   OH271008   0.487   3.942  10.897 -0.3671  0.4781  0.1570
16506TIP3    H171009   0.412   3.887  10.873  0.9247 -1.0875 -0.3946
16506TIP3    H271010   0.554   3.880  10.926  0.8749  1.8226  0.2143
16507TIP3   OH271011   0.170   1.178   0.017 -0.0585 -0.2370 -0.2566
16507TIP3    H171012   0.100   1.203   0.077  0.4706  0.6165 -0.0010
16507TIP3    H271013   0.126   1.122  -0.047 -0.9295  0.0847  0.0467
16508TIP3   OH271014   4.859   1.557  10.602  0.4185 -0.2218  0.5031
16508TIP3    H171015   4.947   1.531  10.629 -0.8304 -3.0363  2.0906
16508TIP3    H271016   4.800   1.506  10.658 -2.2436  1.6124 -0.4976
16509TIP3   OH271017   1.275   3.123   5.118  0.5250  0.1771  0.6449
16509TIP3    H171018   1.291   3.091   5.029 -1.2527 -0.8720  0.6766
16509TIP3    H271019   1.182   3.144   5.119  0.9856  2.2440  1.6359
16510TIP3   OH271020   5.227   1.001  13.138 -0.0028 -0.1266  0.0254
16510TIP3    H171021   5.133   1.021  13.148 -0.0558  0.0516 -0.8329
16510TIP3    H271022   5.264   1.019  13.225 -0.8434 -0.6570  0.5051
16511TIP3   OH271023   5.725   6.610  14.881  0.5172 -0.3755  0.7125
16511TIP3    H171024   5.753   6.672  14.948  1.4760  1.0074 -0.9126
16511TIP3    H271025   5.680   6.663  14.816 -2.2795 -1.9900  1.2116
16512TIP3   OH271026   0.723   4.475  13.449  0.0351  0.3321 -0.2465
16512TIP3    H171027   0.646   4.530  13.436 -1.3853 -1.3911  0.6423
16512TIP3    H271028   0.742   4.482  13.542 -0.8928 -1.5772  0.1152
16513TIP3   OH271029   0.949   5.161  12.672 -0.1262  0.2119  0.0512
16513TIP3    H171030   1.000   5.092  12.714 -1.3553 -0.8375 -0.1301
16513TIP3    H271031   0.892   5.114  12.611 -1.3013  1.3325  0.2636
16514TIP3   OH271032   2.083   5.849   3.347  0.2101 -0.1067 -0.6900
16514TIP3    H171033   2.156   5.857   3.409  0.7434  1.4966 -1.4940
16514TIP3    H271034   2.028   5.926   3.365 -0.6226 -0.6337 -0.9457
16515TIP3   OH271035   2.010   2.729   5.861 -0.8567  1.0594  0.2289
16515TIP3    H171036   1.936   2.769   5.906 -0.4805  1.0176  0.8890
16515TIP3    H271037   2.086   2.781   5.887 -0.5081  0.5005  0.3490
16516TIP3   OH271038   3.523   5.516  12.903  0.2267 -0.1573 -0.8446
16516TIP3    H171039   3.465   5.589  12.885 -1.0089 -1.2891 -1.5258
16516TIP3    H271040   3.572   5.502  12.822  1.6191  0.9182 -0.2128
16517TIP3   OH271041   2.100   2.719   1.498  0.4341  0.4350 -0.5802
16517TIP3    H171042   2.156   2.771   1.441  0.8011  2.0179  1.1540
16517TIP3    H271043   2.116   2.755   1.586 -1.6264 -0.5741  0.2339
16518TIP3   OH271044   5.415   0.631  13.996 -0.0965 -0.3513 -0.6860
16518TIP3    H171045   5.326   0.654  13.969  0.7045 -0.0201 -3.0817
16518TIP3    H271046   5.414   0.535  14.002 -0.4457 -0.3858 -1.2810
16519TIP3   OH271047   2.540   0.294  13.208  0.0510 -0.1171  0.0169
16519TIP3    H171048   2.497   0.215  13.239 -1.2605  0.3230 -0.6525
16519TIP3    H271049   2.595   0.322  13.281 -1.9573  0.1517  1.4641
16520TIP3   OH271050   1.261   6.673  13.516 -0.1030  0.1619 -0.4577
16520TIP3    H171051   1.177   6.720  13.507 -0.4534 -0.3660 -0.0026
16520TIP3    H271052   1.287   6.653  13.426 -0.7799 -0.2100 -0.5772
16521TIP3   OH271053   5.087   4.921  17.095  0.3923 -0.6430 -0.1430
16521TIP3    H171054   5.019   4.860  17.069  0.0115  0.2119 -1.1559
16521TIP3    H271055   5.139   4.935  17.016  0.5237  0.2822  0.1024
16522TIP3   OH271056   4.979   4.203  12.005  0.0193  0.1195  0.7085
16522TIP3    H171057   4.910   4.243  11.952  1.3958 -2.7008 -3.5000
16522TIP3    H271058   5.039   4.275  12.024 -1.2016  1.4821 -0.4808
16523TIP3   OH271059   3.896   0.832  11.193  0.0159  0.3179 -0.7346
16523TIP3    H171060   3.974   0.815  11.139 -0.9788 -0.8718 -1.8413
16523TIP3    H271061   3.868   0.919  11.167  0.6137  0.4990 -0.7891
16524TIP3   OH271062   2.625   4.656  14.842 -0.3991 -0.0554 -0.3261
16524TIP3    H171063   2.656   4.732  14.792 -0.0128  1.1952  1.7645
16524TIP3    H271064   2.534   4.678  14.865  0.1502  0.4044  1.4548
16525TIP3   OH271065   4.828   0.439  13.131 -0.6628  0.0979  0.4498
16525TIP3    H171066   4.844   0.530  13.157 -0.8985  0.3984 -0.4282
16525TIP3    H271067   4.897   0.389  13.175 -0.0552  0.8073  0.3115
16526TIP3   OH271068   2.267   5.253   6.409 -0.4144 -0.5281  0.1149
16526TIP3    H171069   2.322   5.267   6.486  1.4101 -3.1738 -0.6124
16526TIP3    H271070   2.193   5.202   6.440  0.3541 -1.6476  0.1315
16527TIP3   OH271071   0.044   6.047  15.294  0.2592 -1.0061 -0.1405
16527TIP3    H171072  -0.050   6.051  15.280  0.5457  1.6981 -1.5851
16527TIP3    H271073   0.055   6.057  15.389 -0.8864 -1.4350  0.0414
16528TIP3   OH271074   3.642   5.633   5.571 -0.1881  0.7588 -0.1459
16528TIP3    H171075   3.678   5.703   5.625 -1.1327  1.1819 -0.0562
16528TIP3    H271076   3.574   5.593   5.624  2.7482 -2.6886  1.2845
16529TIP3   OH271077   0.831   1.496  11.611 -0.0102  0.7191 -0.0989
16529TIP3    H171078   0.837   1.438  11.687 -1.1913  1.7499  0.8146
16529TIP3    H271079   0.739   1.495  11.587 -0.0455  2.1491 -0.1045
16530TIP3   OH271080   6.362   1.532   3.870  0.3285 -0.0553  0.8228
16530TIP3    H171081   6.395   1.446   3.895  0.6927  0.0549  0.7256
16530TIP3    H271082   6.311   1.516   3.790 -0.8313 -0.4038  1.6296
16531TIP3   OH271083   4.017   2.006  15.564 -0.5634  0.0830 -0.0517
16531TIP3    H171084   4.053   1.967  15.643 -2.6797 -0.6569  0.5534
16531TIP3    H271085   3.985   2.092  15.592  1.0661  0.9204 -0.6812
16532TIP3   OH271086   1.716   1.913   6.802  0.1253  0.0019  0.4399
16532TIP3    H171087   1.789   1.976   6.807 -1.2431  1.7208 -0.5082
16532TIP3    H271088   1.674   1.919   6.887  0.1203  0.2186  0.4234
16533TIP3   OH271089   0.410   5.441   3.795 -0.1779  0.3730 -0.0681
16533TIP3    H171090   0.407   5.352   3.761  1.7532  0.2702 -0.0075
16533TIP3    H271091   0.326   5.452   3.840 -0.3271 -1.5127  0.1612
16534TIP3   OH271092   1.819   2.403   0.092  0.5003  0.2260 -0.2246
16534TIP3    H171093   1.740   2.437   0.050 -0.2324  0.4941  1.3430
16534TIP3    H271094   1.788   2.329   0.145  1.2259  0.5740  0.7001
16535TIP3   OH271095   0.628   1.443  13.251 -0.0370  0.4165 -0.1533
16535TIP3    H171096   0.689   1.478  13.186  1.0161  0.8771  1.0627
16535TIP3    H271097   0.575   1.518  13.276  1.3470  0.8710  1.4843
16536TIP3   OH271098   1.544   5.720   6.667 -0.0375 -0.4130  0.4598
16536TIP3    H171099   1.507   5.788   6.723  2.4721  0.7454  0.7979
16536TIP3    H271100   1.515   5.637   6.706  1.5500  0.3664  3.4157
16537TIP3   OH271101   6.382   4.475   3.809 -0.4169 -0.0716  0.3929
16537TIP3    H171102   6.406   4.443   3.896  0.1814  1.7600  0.9226
16537TIP3    H271103   6.461   4.519   3.777 -0.4403 -1.2251 -1.3442
16538TIP3   OH271104   3.099   2.054   5.769 -0.2169 -0.1351 -0.4409
16538TIP3    H171105   3.062   2.062   5.857 -0.7350 -0.9462 -0.5807
16538TIP3    H271106   3.099   2.144   5.735 -2.1650 -0.1345 -0.4795
16539TIP3   OH271107   6.046   4.856   4.890 -0.1576  0.2055  0.1817
16539TIP3    H171108   5.959   4.886   4.917  0.3778  0.6949  1.3769
16539TIP3    H271109   6.028   4.781   4.832 -1.3871  0.7376 -0.1503
16540TIP3   OH271110   3.165   2.233   2.909 -0.0722 -0.8823 -0.2472
16540TIP3    H171111   3.122   2.218   2.824 -1.1587  0.5534  0.0388
16540TIP3    H271112   3.108   2.188   2.972  0.8620 -2.1505 -0.2941
16541TIP3   OH271113   6.189   1.643   2.756 -0.0088  0.3625 -0.7928
16541TIP3    H171114   6.222   1.593   2.681  0.2506  0.5564 -0.8043
16541TIP3    H271115   6.238   1.609   2.831 -0.4373 -0.0013 -0.6711
16542TIP3   OH271116   3.794   3.489  10.916 -0.0755  0.3299 -0.4889
16542TIP3    H171117   3.712   3.446  10.889 -0.8379  0.5731  1.3135
16542TIP3    H271118   3.821   3.439  10.994 -0.6764  2.7416  1.3164
16543TIP3   OH271119   3.712   3.322  13.093  0.4935  0.7609  0.4030
16543TIP3    H171120   3.770   3.247  13.109 -0.8611 -0.3343  0.3522
16543TIP3    H271121   3.771   3.394  13.070  1.8485 -0.1964  0.8031
16544TIP3   OH271122   3.621   3.354   5.566 -0.3564  0.8712 -0.1716
16544TIP3    H171123   3.619   3.290   5.637 -1.0383 -0.6128 -1.4963
16544TIP3    H271124   3.583   3.433   5.603 -1.1011 -0.0157  0.9930
16545TIP3   OH271125   5.249   3.324   1.958  0.4249 -0.7499 -0.3219
16545TIP3    H171126   5.316   3.375   2.003  1.2674  0.0334 -2.4020
16545TIP3    H271127   5.167   3.352   1.998  1.1986 -0.7435  1.3355
16546TIP3   OH271128   0.755   3.857  13.001 -0.2070 -0.1876 -0.2770
16546TIP3    H171129   0.694   3.836  12.930 -0.8440  1.4728 -0.2657
16546TIP3    H271130   0.804   3.777  13.015  1.3304 -0.0172 -3.9691
16547TIP3   OH271131   1.656   2.054  16.453 -0.4403  0.0853  0.7845
16547TIP3    H171132   1.631   2.049  16.361  0.3449 -0.0996  0.5769
16547TIP3    H271133   1.654   2.147  16.475  0.8992  0.2752  0.1417
16548TIP3   OH271134   3.286   3.673   0.191 -0.0893  0.3972 -0.0772
16548TIP3    H171135   3.312   3.761   0.164  1.5130 -0.0235  0.0606
16548TIP3    H271136   3.346   3.650   0.261 -3.8197  1.2489  3.5756
16549TIP3   OH271137   4.399   2.918   0.819 -0.7590 -0.4051  0.1103
16549TIP3    H171138   4.397   2.951   0.729  1.3194 -0.7668 -0.1035
16549TIP3    H271139   4.487   2.880   0.828 -0.7247  0.2088  2.5039
16550TIP3   OH271140   4.297   3.339  12.740  0.3427 -0.0337 -0.4035
16550TIP3    H171141   4.309   3.282  12.816  0.1975  0.7711  0.2407
16550TIP3    H271142   4.278   3.280  12.668  0.8514 -0.8385  0.1135
16551TIP3   OH271143   1.895   6.101   3.959  0.1032  0.2547 -0.3254
16551TIP3    H171144   1.946   6.124   3.881 -0.6147 -0.7061 -1.0964
16551TIP3    H271145   1.857   6.184   3.988  2.6220  1.1200  0.6761
16552TIP3   OH271146   1.975   0.937  12.312  0.2596  0.2750  0.4216
16552TIP3    H171147   1.979   0.906  12.222 -0.7205  0.2269  0.3887
16552TIP3    H271148   2.066   0.936  12.342  0.9746  2.9751 -1.4575
16553TIP3   OH271149   4.941   2.142   0.365  0.0747 -0.0595 -0.1078
16553TIP3    H171150   4.936   2.229   0.326 -1.4361 -1.1675 -2.4626
16553TIP3    H271151   4.885   2.148   0.442 -1.9493  0.4062 -1.5769
16554TIP3   OH271152   4.407   3.430   5.768 -0.1015  0.5015 -0.3118
16554TIP3    H171153   4.480   3.370   5.754 -0.0095  0.9232 -1.6582
16554TIP3    H271154   4.434   3.483   5.843  1.6074  1.5961 -1.6521
16555TIP3   OH271155   0.106   4.765  16.587 -0.0191 -0.4885  0.3285
16555TIP3    H171156   0.156   4.762  16.506  0.5296  2.9141  0.4619
16555TIP3    H271157   0.173   4.777  16.655 -0.5417 -2.4510  1.2129
16556TIP3   OH271158   5.682   3.791   0.997  0.1041  0.0667  0.0181
16556TIP3    H171159   5.673   3.797   0.902 -0.1012 -2.1209 -0.1232
16556TIP3    H271160   5.766   3.833   1.016 -0.6895  2.1619 -0.8935
16557TIP3   OH271161   4.583   4.114  12.097 -0.6318  0.2113  0.1097
16557TIP3    H171162   4.608   4.108  12.005 -1.3039 -0.3954 -0.0305
16557TIP3    H271163   4.609   4.203  12.123  0.3437  0.0882 -0.4249
16558TIP3   OH271164   1.044   2.587  11.330  0.0427  0.7107 -0.1572
16558TIP3    H171165   1.131   2.591  11.292 -0.0234  0.3595 -0.3456
16558TIP3    H271166   1.058   2.559  11.421 -0.0313 -1.4446 -0.7793
16559TIP3   OH271167   0.692   4.344  17.180  0.1315  0.0319  0.3208
16559TIP3    H171168   0.724   4.329  17.091  0.4671  1.2458  0.2211
16559TIP3    H271169   0.751   4.292  17.236  0.6286  0.1595 -0.0766
16560TIP3   OH271170   0.386   3.728   3.099 -0.3579  0.1781 -0.9408
16560TIP3    H171171   0.351   3.714   3.011 -0.2585 -1.1953 -0.7663
16560TIP3    H271172   0.424   3.644   3.124 -1.5432  0.1612  0.9214
16561TIP3   OH271173   2.694   5.871   3.234  0.0014  0.0016  0.4536
16561TIP3    H171174   2.777   5.868   3.187  0.0401 -0.2683  0.5374
16561TIP3    H271175   2.700   5.799   3.298  0.8669  1.7471  2.3927
16562TIP3   OH271176   6.167   3.731  13.143 -0.0800 -0.4708  0.2928
16562TIP3    H171177   6.212   3.753  13.224  1.4660 -0.9895 -0.4161
16562TIP3    H271178   6.163   3.635  13.142 -0.7354 -0.4465  0.1021
16563TIP3   OH271179   2.982   2.277   5.563 -0.7250  0.2237 -0.0046
16563TIP3    H171180   2.887   2.268   5.568 -0.7340 -0.4858 -1.2928
16563TIP3    H271181   3.008   2.221   5.490  0.7580 -0.0810  0.7306
16564TIP3   OH271182   0.538   6.689   3.138  0.5750 -0.3042  0.3049
16564TIP3    H171183   0.548   6.623   3.207 -1.4110  0.4729  1.3659
16564TIP3    H271184   0.460   6.661   3.090 -0.0616  1.0766  0.5343
16565TIP3   OH271185   0.243   6.708   1.857 -0.0858 -0.0380  0.0683
16565TIP3    H171186   0.208   6.755   1.932 -1.8863 -1.7752  0.3757
16565TIP3    H271187   0.204   6.621   1.863  0.4319 -0.4885 -2.3954
16566TIP3   OH271188   0.028   6.749   2.687 -0.4143 -0.0775  0.3932
16566TIP3    H171189   0.110   6.703   2.668  0.4953  1.9604 -0.8437
16566TIP3    H271190   0.039   6.781   2.777  0.3825  0.6344  0.0522
16567TIP3   OH271191   0.221   3.399   5.987  0.1362  0.8471 -0.2527
16567TIP3    H171192   0.275   3.354   5.922  0.5193  0.0270  0.6057
16567TIP3    H271193   0.222   3.491   5.961  0.6951  0.6002 -1.1081
16568TIP3   OH271194   5.442   4.754  13.877 -0.0187  0.1444 -0.5610
16568TIP3    H171195   5.440   4.660  13.893 -0.3438  0.0578 -1.1003
16568TIP3    H271196   5.393   4.766  13.796  0.2829  0.7476 -0.6594
16569TIP3   OH271197   4.898   3.628  11.362  0.2131 -0.2729  0.2245
16569TIP3    H171198   4.988   3.598  11.350 -0.1200 -1.6367  0.9827
16569TIP3    H271199   4.880   3.613  11.455 -0.9053 -0.3706  0.0008
16570TIP3   OH271200   5.086   1.935   4.678 -0.3048 -0.2457 -0.4365
16570TIP3    H171201   5.039   1.873   4.622  0.3897 -1.1146 -0.0720
16570TIP3    H271202   5.143   1.982   4.618 -0.8952  0.1084 -0.7297
16571TIP3   OH271203   4.742   0.553  16.316  0.0423 -0.2536 -0.1039
16571TIP3    H171204   4.745   0.548  16.412  0.8690 -0.3696 -0.1341
16571TIP3    H271205   4.676   0.620  16.298 -1.4789 -1.5731  0.5134
16572TIP3   OH271206   6.596   1.772  16.401  0.1832 -0.0078  0.1013
16572TIP3    H171207   6.525   1.726  16.445  0.5753 -0.0523  0.6984
16572TIP3    H271208   6.558   1.855  16.373 -0.0331  0.0900  0.6691
16573TIP3   OH271209   0.916   2.729  15.304  0.2387  0.1258 -0.4976
16573TIP3    H171210   0.872   2.712  15.221 -1.1994 -0.4475  0.3569
16573TIP3    H271211   1.006   2.698  15.290  0.3903  1.2953 -2.2625
16574TIP3   OH271212   1.980   5.809   1.622 -0.1969 -0.8341  0.6988
16574TIP3    H171213   1.936   5.890   1.646  0.5153 -0.6603  1.4345
16574TIP3    H271214   2.051   5.836   1.563 -1.6076 -1.2036 -1.2117
16575TIP3   OH271215   5.887   3.911  11.417 -0.3772 -0.1410  0.0955
16575TIP3    H171216   5.827   3.940  11.348 -0.4614 -1.1529 -0.2567
16575TIP3    H271217   5.830   3.869  11.482 -0.0740 -0.9651 -0.1678
16576TIP3   OH271218   5.290   6.199   0.491 -0.4422  0.4021 -0.4109
16576TIP3    H171219   5.252   6.287   0.486  0.6558  0.7717 -2.9218
16576TIP3    H271220   5.376   6.212   0.530 -0.9804  0.1750  0.8908
16577TIP3   OH271221   1.001   5.338   5.428 -0.3068 -0.1850 -0.0265
16577TIP3    H171222   1.081   5.384   5.453 -1.4805  1.3379  1.0243
16577TIP3    H271223   0.953   5.327   5.510 -1.7678  0.1131 -0.8225
16578TIP3   OH271224   1.803   4.209  13.637  0.4242  0.3225  0.0099
16578TIP3    H171225   1.887   4.256  13.641 -0.6003  2.3500 -1.4629
16578TIP3    H271226   1.742   4.266  13.684 -0.0756 -1.3586  1.4532
16579TIP3   OH271227   6.267   4.759  17.097  0.5720  0.4723  0.1077
16579TIP3    H171228   6.263   4.838  17.150 -1.4053  1.0985 -0.9332
16579TIP3    H271229   6.254   4.687  17.160 -0.8058  1.1508  0.6093
16580TIP3   OH271230   0.830   0.265  16.785  0.1759  1.0197  0.4361
16580TIP3    H171231   0.874   0.314  16.855  0.9573  2.5022 -1.0713
16580TIP3    H271232   0.745   0.308  16.776  0.8926  2.1781 -0.9406
16581TIP3   OH271233   6.122   2.407  11.013 -0.0189  0.4829 -0.0968
16581TIP3    H171234   6.143   2.480  11.071  1.0404  1.3714 -1.5721
16581TIP3    H271235   6.166   2.428  10.930  1.0594 -2.2583 -0.2642
16582TIP3   OH271236   4.314   0.291  14.906 -0.1179 -0.0447  0.0464
16582TIP3    H171237   4.312   0.199  14.880  0.6652 -0.0187 -0.1173
16582TIP3    H271238   4.377   0.331  14.846 -1.2719  0.8212 -0.6007
16583TIP3   OH271239   0.263   4.519  15.423 -0.1416  0.2126 -0.2078
16583TIP3    H171240   0.327   4.588  15.441  0.3161  0.3322 -2.1370
16583TIP3    H271241   0.178   4.563  15.424  0.1739  0.8895 -1.7532
16584TIP3   OH271242   2.193   2.382   4.283  0.0842 -0.5314  0.3152
16584TIP3    H171243   2.237   2.298   4.297  0.7421 -0.4396 -1.1201
16584TIP3    H271244   2.155   2.375   4.196  0.2821  0.7328  0.1193
16585TIP3   OH271245   0.826   0.114  12.280 -0.1372 -0.4882  0.2418
16585TIP3    H171246   0.799   0.040  12.227 -2.0356  0.4003 -0.0759
16585TIP3    H271247   0.837   0.186  12.218  0.6954 -0.2415  0.6679
16586TIP3   OH271248   5.594   1.379  14.355  0.3550 -0.0492  0.2174
16586TIP3    H171249   5.515   1.388  14.407  0.1722  1.5065 -0.3224
16586TIP3    H271250   5.562   1.357  14.267  0.5272  0.6489 -0.0169
16587TIP3   OH271251   5.567   0.720  16.325  0.3695  0.1264 -0.5092
16587TIP3    H171252   5.483   0.764  16.333  0.5342  0.6420 -1.5425
16587TIP3    H271253   5.545   0.634  16.289  0.1038 -0.4619  1.0042
16588TIP3   OH271254   5.273   5.383   0.952  0.5638 -0.4017  0.3860
16588TIP3    H171255   5.186   5.365   0.986  1.0250 -1.1850  1.1455
16588TIP3    H271256   5.329   5.390   1.029  1.6270 -2.2385 -0.1921
16589TIP3   OH271257   4.854   3.927  11.945  0.7564  0.3225  0.0934
16589TIP3    H171258   4.927   3.951  11.887  0.3928  1.2296  0.0045
16589TIP3    H271259   4.872   3.972  12.027  0.9905 -0.5340  0.5157
16590TIP3   OH271260   5.493   0.237   4.372 -0.2675  0.5044 -0.4599
16590TIP3    H171261   5.444   0.184   4.309  1.1427  2.1375 -3.0393
16590TIP3    H271262   5.427   0.272   4.431 -1.9948  0.8942 -2.5484
16591TIP3   OH271263   2.778   2.067  13.744  0.1667  0.1923  0.0447
16591TIP3    H171264   2.812   1.989  13.788  1.1758 -0.0640 -1.1594
16591TIP3    H271265   2.852   2.127  13.742  0.6022 -0.3808 -2.6446
16592TIP3   OH271266   1.801   2.986   2.288  0.1322 -0.5108 -0.0695
16592TIP3    H171267   1.769   3.034   2.211  1.0400 -0.2495 -0.2808
16592TIP3    H271268   1.814   3.053   2.354  0.1947 -0.6302  0.0381
16593TIP3   OH271269   4.982   3.760   4.163  0.3827 -0.1043 -0.1189
16593TIP3    H171270   5.032   3.794   4.237  1.0779 -0.5545 -0.3763
16593TIP3    H271271   4.901   3.726   4.202 -0.4181  2.0359  0.1071
16594TIP3   OH271272   1.080   0.130   3.285  0.0446  0.6595  0.4106
16594TIP3    H171273   1.085   0.119   3.190 -2.9106  0.2028  0.2682
16594TIP3    H271274   1.074   0.041   3.319 -2.7314  0.9317  0.7274
16595TIP3   OH271275   1.842   0.920  16.045 -0.6963  0.0877 -0.3248
16595TIP3    H171276   1.767   0.978  16.045  0.2659  1.3533 -0.5911
16595TIP3    H271277   1.809   0.839  16.006 -1.3507  1.4189 -2.6722
16596TIP3   OH271278   6.207   2.399   4.802  0.2654 -0.3460 -0.3005
16596TIP3    H171279   6.219   2.422   4.710  0.4313 -0.2864 -0.2642
16596TIP3    H271280   6.223   2.305   4.805 -1.7375 -0.7230 -0.6797
16597TIP3   OH271281   2.764   2.375   1.232 -0.4692  0.6888 -0.6073
16597TIP3    H171282   2.851   2.341   1.256  0.2221  3.8983  1.7914
16597TIP3    H271283   2.747   2.336   1.146  3.4814  0.1774 -1.2996
16598TIP3   OH271284   0.150   3.814   5.306  0.1454 -0.4976 -0.3675
16598TIP3    H171285   0.169   3.895   5.260  0.3121  0.5857  1.5329
16598TIP3    H271286   0.065   3.830   5.348 -0.0247 -1.4588 -0.3341
16599TIP3   OH271287   5.450   3.025   2.884  0.6080  0.1321 -0.3363
16599TIP3    H171288   5.408   3.089   2.827 -2.1395 -2.4147 -1.3099
16599TIP3    H271289   5.431   3.057   2.973  0.1614  1.2041 -0.7999
16600TIP3   OH271290   0.489   2.801  10.942  0.0993 -0.2615 -0.0866
16600TIP3    H171291   0.432   2.732  10.975 -0.0520  0.3038  0.8439
16600TIP3    H271292   0.451   2.825  10.858  1.1967 -2.5650 -1.3034
16601TIP3   OH271293   3.859   4.596  13.075 -0.1622 -0.0269  0.5695
16601TIP3    H171294   3.876   4.515  13.028 -2.0237  0.2169 -0.5856
16601TIP3    H271295   3.838   4.568  13.164  0.3543 -0.7179  0.4796
16602TIP3   OH271296   4.303   1.710   3.766 -0.5281 -0.2419 -0.3661
16602TIP3    H171297   4.375   1.760   3.803 -0.5452 -0.5979  0.1579
16602TIP3    H271298   4.233   1.716   3.831 -0.8931 -0.0801 -0.7712
16603TIP3   OH271299   4.642   2.214  12.426 -0.3941 -0.3763  0.3324
16603TIP3    H171300   4.591   2.249  12.354 -0.0102 -1.4192 -0.4618
16603TIP3    H271301   4.594   2.240  12.505 -0.9682  0.5199 -0.3083
16604TIP3   OH271302   5.781   5.779  17.055 -0.5248 -0.1683 -0.2895
16604TIP3    H171303   5.718   5.822  17.112 -0.5830 -2.1122  1.2017
16604TIP3    H271304   5.793   5.839  16.982 -3.6014  0.5260 -0.2932
16605TIP3   OH271305   5.428   5.811   2.882  0.2824  0.3988  0.1502
16605TIP3    H171306   5.481   5.878   2.924 -0.2025  0.9001 -0.0230
16605TIP3    H271307   5.488   5.767   2.822  0.7852  0.1815  0.8228
16606TIP3   OH271308   3.351   5.315  14.562 -0.0345 -0.5844 -0.2111
16606TIP3    H171309   3.321   5.329  14.472 -0.6277  2.2361  0.3612
16606TIP3    H271310   3.271   5.294  14.611 -0.0244 -0.0774  0.0253
16607TIP3   OH271311   3.057   5.828   0.946 -0.6301  0.2166  0.1143
16607TIP3    H171312   2.972   5.834   0.903 -0.6310  2.1897  0.3325
16607TIP3    H271313   3.066   5.912   0.992  1.5183  0.0979 -0.0687
16608TIP3   OH271314   6.057   3.782  16.882  0.3625  0.3513  0.6605
16608TIP3    H171315   6.057   3.706  16.941  0.1448  1.1301  1.6680
16608TIP3    H271316   6.071   3.857  16.940 -1.2877  1.2651 -0.1057
16609TIP3   OH271317   0.707   5.340   3.788  0.4515 -0.1454  0.3714
16609TIP3    H171318   0.713   5.413   3.849 -1.0221 -0.7014  1.1914
16609TIP3    H271319   0.690   5.380   3.703  0.9566  0.5267  0.5793
16610TIP3   OH271320   4.753   2.483  11.506 -0.7864 -0.1307  0.2223
16610TIP3    H171321   4.707   2.399  11.504  1.8146 -1.5720 -1.0932
16610TIP3    H271322   4.822   2.471  11.571 -0.9040  1.2822  0.6210
16611TIP3   OH271323   5.866   4.379   6.158  0.0614  0.3727 -0.1210
16611TIP3    H171324   5.844   4.330   6.079 -1.2022 -2.1123  1.7177
16611TIP3    H271325   5.942   4.333   6.194 -0.4101  0.4596  0.9943
16612TIP3   OH271326   3.216   6.418  14.432  0.2279  0.4740  0.1044
16612TIP3    H171327   3.305   6.385  14.448  0.2405  0.9152  0.9244
16612TIP3    H271328   3.229   6.504  14.393  0.1452  0.7471  0.6899
16613TIP3   OH271329   2.612   3.611  11.499  0.4340 -0.3147  0.1922
16613TIP3    H171330   2.551   3.672  11.457  0.9947  1.1771  1.5044
16613TIP3    H271331   2.696   3.657  11.500  0.9669 -1.2897  0.7905
16614TIP3   OH271332   0.742   1.779   1.405  0.2667 -0.3435  0.0623
16614TIP3    H171333   0.756   1.700   1.458 -0.6314  1.8115  3.7128
16614TIP3    H271334   0.647   1.792   1.407  0.4709  1.2028  0.1109
16615TIP3   OH271335   6.276   4.457   4.882 -0.6356 -0.1757  0.7074
16615TIP3    H171336   6.247   4.530   4.936  1.8474  1.6874 -0.3814
16615TIP3    H271337   6.347   4.417   4.933 -0.4557 -0.4207  0.2690
16616TIP3   OH271338   2.526   6.435  11.947 -0.0052 -0.0586  0.3272
16616TIP3    H171339   2.430   6.432  11.951 -0.0727 -1.4624 -1.4424
16616TIP3    H271340   2.551   6.353  11.904  2.1178 -0.5184  2.3311
16617TIP3   OH271341   0.901   4.578  15.692 -0.7437 -0.2215  0.2664
16617TIP3    H171342   0.827   4.518  15.697 -1.4811  0.5367 -1.2417
16617TIP3    H271343   0.865   4.664  15.713 -0.2643  0.1228 -0.2813
16618TIP3   OH271344   3.445   3.724   4.637  0.3178  0.5215 -0.3903
16618TIP3    H171345   3.419   3.816   4.638  1.5775  0.8871 -0.6846
16618TIP3    H271346   3.368   3.678   4.672 -0.0999  1.7346  0.3546
16619TIP3   OH271347   3.883   5.842  12.774 -0.3080  0.1045 -0.0434
16619TIP3    H171348   3.846   5.854  12.686 -0.6750 -1.5710 -0.1423
16619TIP3    H271349   3.902   5.748  12.779 -1.3240 -0.0073  2.0808
16620TIP3   OH271350   3.052   2.665  15.729 -0.3300 -0.1187 -0.6011
16620TIP3    H171351   3.023   2.574  15.728  0.3010 -0.3480 -3.5751
16620TIP3    H271352   3.064   2.687  15.637  2.3774  2.0655  0.1999
16621TIP3   OH271353   0.857   5.004  10.623  0.2596  0.1157 -0.4152
16621TIP3    H171354   0.906   5.001  10.541  0.8512 -1.2892 -0.0284
16621TIP3    H271355   0.923   4.988  10.691 -0.4595 -0.1460  0.2259
16622TIP3   OH271356   6.472   0.539   4.837 -0.0157  0.1165 -0.0501
16622TIP3    H171357   6.537   0.575   4.897 -0.2697  2.1180 -0.9454
16622TIP3    H271358   6.414   0.486   4.892  0.4448  0.9608  1.2648
16623TIP3   OH271359   3.372   1.963  14.760 -0.2672 -0.1349  0.0402
16623TIP3    H171360   3.323   1.881  14.760 -1.2068  0.4063  0.3840
16623TIP3    H271361   3.461   1.939  14.737 -0.9814 -0.9983 -1.9122
16624TIP3   OH271362   6.497   4.606  10.867  0.4315 -0.2957  0.0193
16624TIP3    H171363   6.537   4.607  10.954 -0.2125 -1.4794  0.3393
16624TIP3    H271364   6.546   4.539  10.819 -1.2177 -1.8605  0.4586
16625TIP3   OH271365   0.019   3.073  11.637  0.0277  0.1945 -0.2971
16625TIP3    H171366   0.037   2.979  11.627 -1.3990 -0.1612  0.2701
16625TIP3    H271367  -0.006   3.102  11.549 -2.8698 -0.7463  0.1499
16626TIP3   OH271368   2.296   4.684  13.839  0.6813  0.0644  0.4003
16626TIP3    H171369   2.343   4.636  13.771  0.0170 -1.3971  0.9473
16626TIP3    H271370   2.325   4.644  13.921  0.6706  1.0983  0.9179
16627TIP3   OH271371   3.903   4.613  11.174  0.1409  0.3792  0.0373
16627TIP3    H171372   3.883   4.673  11.245 -2.8314  0.6912 -0.9644
16627TIP3    H271373   3.851   4.645  11.100 -0.6982 -2.7765 -0.8241
16628TIP3   OH271374   5.753   1.635   6.349  0.1622 -0.4477 -0.1429
16628TIP3    H171375   5.752   1.559   6.291  0.1691 -0.7282  0.2260
16628TIP3    H271376   5.777   1.600   6.435 -0.0970 -0.0696  0.0864
16629TIP3   OH271377   2.502   4.204  14.959  0.4008  0.1930  0.5971
16629TIP3    H171378   2.482   4.292  14.990 -1.3812 -0.6874  2.0470
16629TIP3    H271379   2.469   4.201  14.870 -1.2165  0.4324  1.1776
16630TIP3   OH271380   5.375   6.602  11.356 -0.1371  0.7292 -0.5590
16630TIP3    H171381   5.459   6.637  11.327  0.0584  0.5593 -0.1945
16630TIP3    H271382   5.364   6.522  11.306  0.4126  0.2002  0.1598
16631TIP3   OH271383   1.880   5.527  16.120 -0.4186 -0.1711 -0.4784
16631TIP3    H171384   1.810   5.559  16.178  1.0611  0.1713  1.1748
16631TIP3    H271385   1.924   5.606  16.090 -0.0218 -0.4337 -0.5836
16632TIP3   OH271386   5.264   2.598  16.137  0.2046 -0.2076 -0.1150
16632TIP3    H171387   5.273   2.543  16.214  0.6060 -0.8956 -0.6421
16632TIP3    H271388   5.348   2.590  16.092  0.4654  1.2741  0.0885
16633TIP3   OH271389   4.373   0.829   3.075 -0.2892 -0.1656  0.2552
16633TIP3    H171390   4.375   0.921   3.049  3.0749 -0.3133 -0.2026
16633TIP3    H271391   4.350   0.831   3.168  0.8958  1.2103  0.5303
16634TIP3   OH271392   1.261   2.730  15.393  0.3813  0.0457  0.1677
16634TIP3    H171393   1.194   2.761  15.454  1.8834  0.3633  1.6984
16634TIP3    H271394   1.277   2.639  15.419  0.6038 -0.0092 -0.1522
16635TIP3   OH271395   4.573   2.797   5.480  0.9511  0.0841  0.2036
16635TIP3    H171396   4.525   2.786   5.563  0.1548 -2.6964 -0.5815
16635TIP3    H271397   4.526   2.867   5.435 -3.1273 -3.1628 -0.9446
16636TIP3   OH271398   3.413   2.879   5.353  0.0562 -0.2367  0.0739
16636TIP3    H171399   3.417   2.856   5.446  0.1548 -1.4823 -0.2294
16636TIP3    H271400   3.371   2.965   5.351  0.5339  0.0358  1.3085
16637TIP3   OH271401   2.306   1.124  11.386  0.5562  0.5910 -0.6692
16637TIP3    H171402   2.332   1.162  11.303 -1.4883  0.1695 -1.5333
16637TIP3    H271403   2.222   1.082  11.368  0.3181  0.0765  1.4906
16638TIP3   OH271404   2.210   1.350  13.406  0.7476  0.2788 -0.1657
16638TIP3    H171405   2.169   1.378  13.487  2.3667 -1.4087  1.2797
16638TIP3    H271406   2.143   1.296  13.363 -0.7583  2.6161 -0.8728
16639TIP3   OH271407   3.133   6.580  14.643  0.5530  0.5862  0.5003
16639TIP3    H171408   3.187   6.511  14.604 -0.5873  0.0886 -0.2265
16639TIP3    H271409   3.088   6.620  14.568 -2.5007 -1.0778  1.3726
16640TIP3   OH271410   1.176   6.691   3.005 -0.0915  0.2083  0.7778
16640TIP3    H171411   1.166   6.766   2.946  0.0209  2.0788  3.0593
16640TIP3    H271412   1.226   6.627   2.954 -2.3176  0.6462 -2.0743
16641TIP3   OH271413   1.572   1.603   1.846  0.0689  0.0245 -0.1950
16641TIP3    H171414   1.613   1.666   1.906 -0.4263 -0.4661  0.6711
16641TIP3    H271415   1.480   1.630   1.843 -0.5499 -1.7319  1.6241
16642TIP3   OH271416   2.292   2.190   5.235  0.6930  0.7274 -0.1898
16642TIP3    H171417   2.279   2.142   5.153  1.5262  1.4359 -0.7398
16642TIP3    H271418   2.272   2.126   5.304  0.1793  0.0775 -0.9376
16643TIP3   OH271419   5.591   5.711   4.450  0.0526 -0.4484 -0.0261
16643TIP3    H171420   5.580   5.636   4.392  1.0647 -1.5048  1.0942
16643TIP3    H271421   5.678   5.745   4.429  0.6533 -1.1744  1.2179
16644TIP3   OH271422   5.831   1.975   2.115 -0.1376  0.0789  0.4610
16644TIP3    H171423   5.892   1.993   2.044  0.1589  1.8700  1.1561
16644TIP3    H271424   5.876   1.911   2.170 -0.4392 -1.4427 -1.0371
16645TIP3   OH271425   4.926   5.254  13.089 -0.0382 -0.2154  0.1021
16645TIP3    H171426   4.937   5.234  12.997  0.3930  0.4886 -0.0057
16645TIP3    H271427   4.936   5.350  13.094 -3.4341  0.1624  0.3856
16646TIP3   OH271428   0.313   2.648   2.966  0.0737  0.3960  0.2014
16646TIP3    H171429   0.384   2.644   3.030  0.0855  1.6219  0.2593
16646TIP3    H271430   0.312   2.738   2.936  1.6535 -0.6578 -3.3445
16647TIP3   OH271431   0.677   3.427   4.657 -0.3630 -0.1456 -0.4445
16647TIP3    H171432   0.703   3.344   4.617 -0.1448 -0.3984  0.2146
16647TIP3    H271433   0.756   3.480   4.655 -1.0037  0.7624 -2.6435
16648TIP3   OH271434   2.362   1.788  14.705 -0.1255 -0.1028 -0.3460
16648TIP3    H171435   2.430   1.732  14.743  0.4387  1.1084  0.4584
16648TIP3    H271436   2.321   1.733  14.638  0.8181 -1.2701  0.0066
16649TIP3   OH271437   5.080   6.701   1.055  0.1558 -0.4274  0.2378
16649TIP3    H171438   5.063   6.786   1.014 -1.8067 -1.2235 -0.6716
16649TIP3    H271439   5.034   6.705   1.138  1.4170 -0.0300  0.9370
16650TIP3   OH271440   0.924   5.590   1.455 -0.1062  0.0025 -0.3571
16650TIP3    H171441   0.927   5.591   1.359 -1.1597  1.4873 -0.3834
16650TIP3    H271442   0.972   5.511   1.479 -0.7041 -0.9334 -2.1400
16651TIP3   OH271443   5.340   2.117  16.084 -0.1074  0.0905  0.3651
16651TIP3    H171444   5.322   2.117  15.990  0.5775  0.9655  0.2282
16651TIP3    H271445   5.255   2.099  16.125 -0.4547 -0.0544 -0.4071
16652TIP3   OH271446   5.636   5.396  11.610  1.1949 -0.0181  0.2990
16652TIP3    H171447   5.626   5.308  11.647  0.4364  0.6539  1.7316
16652TIP3    H271448   5.640   5.381  11.516 -2.9985 -1.3280  0.1836
16653TIP3   OH271449   1.630   1.078  16.089 -0.3908 -0.4098  0.1248
16653TIP3    H171450   1.563   1.052  16.152  0.1859  0.3688  1.0637
16653TIP3    H271451   1.608   1.168  16.066  0.4740 -0.0715  0.6190
16654TIP3   OH271452   3.470   0.323  11.887  0.6476 -0.1566 -0.3101
16654TIP3    H171453   3.435   0.272  11.961  2.0046 -2.0958 -0.9827
16654TIP3    H271454   3.418   0.294  11.812  0.1396  0.8692 -0.3617
16655TIP3   OH271455   3.945   6.587  12.896 -0.1460 -0.2852  0.2701
16655TIP3    H171456   3.874   6.525  12.880  0.6239 -0.4502 -2.8705
16655TIP3    H271457   4.025   6.534  12.887  0.4387  0.3823  1.4467
16656TIP3   OH271458   0.895   0.269   3.434  0.0944  0.2498  0.1309
16656TIP3    H171459   0.918   0.322   3.510  0.3542  1.7608 -0.9737
16656TIP3    H271460   0.980   0.242   3.398 -0.0467 -1.9906  1.3998
16657TIP3   OH271461   6.364   2.300  14.413  0.1309 -0.0898  0.5491
16657TIP3    H171462   6.297   2.369  14.411 -0.3610 -0.5656 -2.6998
16657TIP3    H271463   6.447   2.347  14.424 -0.3998  0.8387  0.6355
16658TIP3   OH271464   3.784   6.791   4.531  0.3286 -0.3620  0.0839
16658TIP3    H171465   3.780   6.697   4.518  2.0783 -0.9291  3.2035
16658TIP3    H271466   3.704   6.825   4.491 -0.6982 -3.2303 -0.3677
16659TIP3   OH271467   0.597   3.757   5.577  0.8418 -0.7848 -0.3336
16659TIP3    H171468   0.602   3.687   5.642  0.8090 -1.2229 -0.7950
16659TIP3    H271469   0.632   3.718   5.497 -0.1189 -0.6003 -0.8599
16660TIP3   OH271470   3.394   5.451  14.893  0.1111  0.6397 -0.6289
16660TIP3    H171471   3.468   5.390  14.884  0.1369  0.8295 -1.7748
16660TIP3    H271472   3.318   5.401  14.863 -0.3534  0.2088  1.2216
16661TIP3   OH271473   1.667   1.969   0.076 -0.0272 -0.5440  0.0063
16661TIP3    H171474   1.695   1.888   0.119  0.7917  0.4271  1.3441
16661TIP3    H271475   1.571   1.962   0.071 -0.2831 -0.1949  3.0964
16662TIP3   OH271476   6.086   1.349  14.993  0.3060 -0.3293  0.1664
16662TIP3    H171477   6.003   1.386  14.960  0.3935  0.2973  0.6391
16662TIP3    H271478   6.083   1.364  15.087  0.3954 -1.4546  0.3449
16663TIP3   OH271479   5.794   3.206   0.319  0.5401 -0.0765 -0.1404
16663TIP3    H171480   5.757   3.259   0.389 -1.0883 -1.4983  0.1091
16663TIP3    H271481   5.849   3.267   0.269 -1.7748  1.9889 -0.2514
16664TIP3   OH271482   4.654   3.591   2.034  0.4382 -0.0478  0.1709
16664TIP3    H171483   4.653   3.603   2.129 -2.2827  0.7275  0.0749
16664TIP3    H271484   4.612   3.507   2.019 -0.1145  0.3273 -0.4033
16665TIP3   OH271485   6.015   1.409   3.927  0.3590 -0.5319 -0.3263
16665TIP3    H171486   6.006   1.502   3.945  1.0965 -0.2624 -1.3120
16665TIP3    H271487   6.078   1.378   3.992  0.1179 -0.3387 -0.0015
16666TIP3   OH271488   5.529   0.767   5.736  0.3609 -0.1202  0.5936
16666TIP3    H171489   5.438   0.770   5.706  0.4560  2.6136  0.3869
16666TIP3    H271490   5.580   0.748   5.658 -0.0563 -2.2175  0.8137
16667TIP3   OH271491   1.941   6.682  16.675  0.4382  0.3168 -0.2404
16667TIP3    H171492   1.877   6.734  16.625  0.9128  0.1541 -1.0200
16667TIP3    H271493   1.920   6.592  16.653  0.2888  0.2183  0.2982
16668TIP3   OH271494   5.814   5.321   5.474 -0.2227 -0.1081  0.4831
16668TIP3    H171495   5.783   5.306   5.563  0.8393 -0.7925  0.7452
16668TIP3    H271496   5.884   5.385   5.484  0.6921 -1.0791  0.2697
16669TIP3   OH271497   6.780   6.186   0.078 -0.2394  1.3711  0.5941
16669TIP3    H171498   6.854   6.233   0.117  0.2378 -0.0142  1.3838
16669TIP3    H271499   6.724   6.164   0.152 -0.4713  0.7282  0.2347
16670TIP3   OH271500   1.699   6.629   0.261  0.4429  0.5022  0.3779
16670TIP3    H171501   1.659   6.547   0.288 -1.9694  1.5358  0.0483
16670TIP3    H271502   1.630   6.694   0.271  2.5392  2.6489  1.3845
16671TIP3   OH271503   0.957   3.600  15.754  0.0705 -0.5344 -0.2193
16671TIP3    H171504   0.883   3.649  15.790 -0.5672 -1.1866 -0.6146
16671TIP3    H271505   0.935   3.508  15.770  0.6248 -0.7501 -0.6583
16672TIP3   OH271506   4.705   3.667   4.156 -0.0965 -0.0549 -0.3551
16672TIP3    H171507   4.700   3.663   4.252  1.1477  0.2028 -0.2726
16672TIP3    H271508   4.613   3.663   4.127 -0.4615 -0.4240  0.8301
16673TIP3   OH271509   1.916   2.711  14.848  0.6938 -0.0326 -0.1844
16673TIP3    H171510   1.827   2.737  14.872 -0.4350 -1.8823 -2.2262
16673TIP3    H271511   1.943   2.775  14.782 -0.2683 -1.1845 -1.7182
16674TIP3   OH271512   1.681   5.399   0.776 -0.1248  0.8024  0.0368
16674TIP3    H171513   1.607   5.338   0.776 -0.1328  0.8005 -1.1314
16674TIP3    H271514   1.674   5.445   0.860 -0.0842 -0.8368  0.9605
16675TIP3   OH271515   3.807   1.971   1.247  0.0509  0.3707 -0.5282
16675TIP3    H171516   3.831   2.031   1.176  0.3591  0.1797 -0.5926
16675TIP3    H271517   3.838   2.014   1.327 -1.8090  1.3578 -0.3362
16676TIP3   OH271518   6.077   3.285  11.010 -0.7923  0.4312  0.2488
16676TIP3    H171519   6.069   3.302  11.104  0.3656  0.2057  0.3923
16676TIP3    H271520   6.035   3.200  10.997 -1.4332  0.7083  0.4686
16677TIP3   OH271521   4.844   0.054  13.967  0.1257 -0.2398  0.4965
16677TIP3    H171522   4.777   0.017  13.909 -0.5441  1.9903 -0.2511
16677TIP3    H271523   4.892  -0.021  14.001 -2.2588 -1.8507  0.4280
16678TIP3   OH271524   2.197   3.132  14.918 -0.1325  0.2327 -0.0081
16678TIP3    H171525   2.111   3.109  14.884  0.0112  1.2630 -1.0971
16678TIP3    H271526   2.252   3.056  14.898 -1.3771 -1.5290  3.0213
16679TIP3   OH271527   2.260   4.761  12.718 -0.1382 -0.0111 -0.3748
16679TIP3    H171528   2.336   4.710  12.747 -0.3834 -1.5864 -2.4129
16679TIP3    H271529   2.189   4.733  12.776  0.3221 -0.1285  0.1343
16680TIP3   OH271530   4.935   4.184  13.243 -0.5970 -0.7319 -0.4317
16680TIP3    H171531   4.970   4.178  13.154  0.4476  0.7512 -0.1460
16680TIP3    H271532   5.002   4.142  13.297 -1.8434 -2.8409 -0.4545
16681TIP3   OH271533   0.851   1.612  12.556 -0.1877 -0.2684  0.0146
16681TIP3    H171534   0.874   1.573  12.640 -0.7775  0.4370  0.5128
16681TIP3    H271535   0.933   1.612  12.507  0.1028 -0.9289  0.4871
16682TIP3   OH271536   5.959   0.205   0.900  0.6525 -0.4252  0.4910
16682TIP3    H171537   5.982   0.262   0.974  0.9643  0.3110 -0.1674
16682TIP3    H271538   5.871   0.173   0.921  0.9443 -0.6369  1.4318
16683TIP3   OH271539   1.536   1.049  15.346  0.0007  0.0191  0.6936
16683TIP3    H171540   1.445   1.052  15.375  0.0500 -0.1265  0.8600
16683TIP3    H271541   1.548   0.961  15.311 -0.1799  0.3338 -0.1661
16684TIP3   OH271542   3.207   3.041  15.366  0.3927 -0.2865 -0.2859
16684TIP3    H171543   3.138   3.105  15.376  1.0562  0.3301  0.4078
16684TIP3    H271544   3.167   2.969  15.318 -1.0775 -0.4962  1.2415
16685TIP3   OH271545   6.164   4.750  12.555  0.0063  0.7247 -0.1292
16685TIP3    H171546   6.073   4.763  12.579 -0.2188  0.4608 -0.8304
16685TIP3    H271547   6.174   4.795  12.471 -0.0659 -1.1866 -1.1866
16686TIP3   OH271548   0.722   3.855   2.294  0.1872  0.2098 -0.2811
16686TIP3    H171549   0.764   3.927   2.341  2.0888 -0.9655 -0.1564
16686TIP3    H271550   0.685   3.800   2.363  0.8563 -0.2226 -0.2665
16687TIP3   OH271551   3.622   0.745  14.484  0.1743 -0.0891  0.1505
16687TIP3    H171552   3.549   0.686  14.505 -0.5092  0.4749 -0.6110
16687TIP3    H271553   3.686   0.690  14.440  0.6679 -0.8156  1.7207
16688TIP3   OH271554   1.107   1.103  14.729 -0.4813 -0.3235  0.5147
16688TIP3    H171555   1.050   1.139  14.661 -0.5799  1.7982  1.6666
16688TIP3    H271556   1.169   1.047  14.681 -1.1199  0.3945 -1.2009
16689TIP3   OH271557   0.452   3.407   4.974 -0.4345 -0.0126  0.1523
16689TIP3    H171558   0.444   3.380   4.882 -0.6360 -1.1761  0.5004
16689TIP3    H271559   0.373   3.373   5.016 -1.9525  3.2839  0.1282
16690TIP3   OH271560   3.119   6.467   1.722  0.0563  0.0333  0.1958
16690TIP3    H171561   3.136   6.412   1.645  2.2307  0.8615  0.0676
16690TIP3    H271562   3.024   6.461   1.734 -0.2474 -0.6122 -2.1743
16691TIP3   OH271563   0.015   6.207   1.959 -0.0874  0.2456  0.1431
16691TIP3    H171564   0.019   6.223   1.865 -2.3941  2.8400  0.4163
16691TIP3    H271565   0.051   6.119   1.970 -2.8975 -1.5243 -3.5308
16692TIP3   OH271566   6.463   0.329  14.771  0.4142  0.4154  0.4026
16692TIP3    H171567   6.491   0.238  14.761  0.2365  0.4375 -0.3914
16692TIP3    H271568   6.514   0.363  14.844 -0.1484 -0.5766  1.2522
16693TIP3   OH271569   2.287   5.293   2.713 -0.0339 -0.4796  0.0978
16693TIP3    H171570   2.297   5.280   2.619 -0.2369 -1.0202  0.1510
16693TIP3    H271571   2.206   5.343   2.723 -0.0395 -0.4676 -0.0112
16694TIP3   OH271572   3.143   0.240   3.356 -0.4077 -0.5264 -0.0119
16694TIP3    H171573   3.201   0.314   3.338 -1.8113  0.2085 -1.6170
16694TIP3    H271574   3.175   0.204   3.439  2.1290  0.0625 -0.6826
16695TIP3   OH271575   2.862   2.744   1.756  0.0590 -0.3850  0.1061
16695TIP3    H171576   2.850   2.832   1.721  0.7982  0.0396  0.8998
16695TIP3    H271577   2.792   2.692   1.715  0.2634  0.3279 -1.1629
16696TIP3   OH271578   5.496   5.713  12.840  0.0941 -0.0106  0.0096
16696TIP3    H171579   5.586   5.721  12.808  0.5010 -1.2883  0.8029
16696TIP3    H271580   5.506   5.677  12.928 -1.1189  1.3920  0.7256
16697TIP3   OH271581   2.960   6.146  14.824  0.0801  0.1394 -0.1445
16697TIP3    H171582   2.886   6.096  14.860 -0.3462  0.6097 -0.3553
16697TIP3    H271583   2.986   6.205  14.895  0.7738 -0.5891  0.2044
16698TIP3   OH271584   1.501   5.523  14.797 -0.3689  0.0990 -0.6387
16698TIP3    H171585   1.465   5.604  14.760  0.4896  0.2347 -1.1857
16698TIP3    H271586   1.573   5.552  14.853  0.9604 -0.3791 -2.0614
16699TIP3   OH271587   2.759   1.898  15.685 -0.3286  0.5389  0.0556
16699TIP3    H171588   2.783   1.857  15.603  0.9483  1.7356 -0.1905
16699TIP3    H271589   2.663   1.896  15.686 -0.3158 -0.6704 -0.8330
16700TIP3   OH271590   6.810   3.013  11.955  0.2060  0.4890  0.0012
16700TIP3    H171591   6.850   2.944  11.902 -2.7837 -2.3194  1.2143
16700TIP3    H271592   6.867   3.019  12.032  0.7410 -0.3270 -0.3172
16701TIP3   OH271593   5.151   4.414   1.010  0.1333  0.2340 -0.2123
16701TIP3    H171594   5.246   4.399   1.017 -0.1968 -2.0862 -0.0615
16701TIP3    H271595   5.136   4.497   1.054  1.7361 -0.7785  2.3688
16702TIP3   OH271596   5.436   4.170  13.457 -0.6119 -0.4615 -0.7274
16702TIP3    H171597   5.459   4.078  13.444 -1.2955 -0.5031 -1.7885
16702TIP3    H271598   5.496   4.201  13.524  1.1157 -1.1023 -1.9565
16703TIP3   OH271599   6.141   2.342   5.219 -0.1499  0.5913  0.3579
16703TIP3    H171600   6.213   2.402   5.201 -0.1318  1.0748  1.9332
16703TIP3    H271601   6.062   2.392   5.198 -0.0924  0.8253  0.6841
16704TIP3   OH271602   1.530   4.156   5.298  0.3158  0.7698 -0.2537
16704TIP3    H171603   1.607   4.206   5.324  0.9614  0.2715 -1.1749
16704TIP3    H271604   1.564   4.069   5.278 -0.4727  0.5653 -0.7329
16705TIP3   OH271605   2.601   4.002   1.703  1.0129 -0.1277 -0.6370
16705TIP3    H171606   2.606   3.998   1.799 -1.3803  1.5819 -0.3971
16705TIP3    H271607   2.589   4.095   1.683 -0.5788 -0.6940 -2.4731
16706TIP3   OH271608   4.897   1.561  12.658  0.0166  0.1219  0.0916
16706TIP3    H171609   4.836   1.572  12.730  0.0357  1.0512 -0.0377
16706TIP3    H271610   4.878   1.473  12.624 -0.7197  0.1057  0.5336
16707TIP3   OH271611   0.082   1.098  12.253 -0.0924 -1.2981 -0.4602
16707TIP3    H171612   0.104   1.098  12.346  1.7712 -1.6116 -0.8635
16707TIP3    H271613   0.034   1.179  12.239 -0.9657 -1.5770  0.9006
16708TIP3   OH271614   0.523   3.859   3.570  0.0949 -0.0834  0.8645
16708TIP3    H171615   0.498   3.933   3.625  0.5763  0.4629  0.3585
16708TIP3    H271616   0.475   3.872   3.489  1.0741  0.3190  0.3396
16709TIP3   OH271617   5.900   5.655  16.647  0.0809 -0.1835  0.0942
16709TIP3    H171618   5.810   5.685  16.661  0.1171 -0.5189  1.0325
16709TIP3    H271619   5.948   5.683  16.724  0.4687 -1.2560  0.2530
16710TIP3   OH271620   6.661   1.369  15.504 -0.0737 -0.5082  0.2104
16710TIP3    H171621   6.627   1.292  15.549 -1.6835  0.4578  0.6622
16710TIP3    H271622   6.588   1.431  15.502  1.0487  0.8287 -0.5862
16711TIP3   OH271623   1.564   3.877  15.093  0.2239  0.0294  0.1831
16711TIP3    H171624   1.610   3.809  15.142  1.1653  0.4522 -0.1094
16711TIP3    H271625   1.473   3.873  15.125 -0.0359 -2.2639 -0.8128
16712TIP3   OH271626   5.885   2.184  13.885  0.2435  0.3880 -0.4490
16712TIP3    H171627   5.910   2.260  13.937 -0.9777  0.3583  0.1952
16712TIP3    H271628   5.937   2.192  13.805  1.9335  0.5923  0.6321
16713TIP3   OH271629   5.113   2.726  15.977  0.2080  0.6516 -0.3835
16713TIP3    H171630   5.181   2.711  15.912 -0.5727 -0.8425 -0.8782
16713TIP3    H271631   5.144   2.679  16.055 -0.3960 -0.2942 -0.7091
16714TIP3   OH271632   0.380   0.339   5.068 -0.9100  0.1959  0.6689
16714TIP3    H171633   0.399   0.245   5.068 -0.2396  0.3286  0.0683
16714TIP3    H271634   0.463   0.380   5.043 -1.8857  0.8304 -1.5793
16715TIP3   OH271635   2.102   2.692   6.615 -0.0163 -0.2751 -0.0782
16715TIP3    H171636   2.037   2.643   6.563  0.5656 -1.2236  0.0841
16715TIP3    H271637   2.054   2.720   6.693 -0.8544  1.0155 -1.0305
16716TIP3   OH271638   6.524   4.655  14.193  0.0798  0.6105  0.0113
16716TIP3    H171639   6.583   4.683  14.263 -0.2461 -0.6018  0.7680
16716TIP3    H271640   6.582   4.612  14.130  0.2246  0.8095  0.0070
16717TIP3   OH271641   2.657   2.176   2.209  0.2090 -0.3031 -0.1334
16717TIP3    H171642   2.721   2.107   2.227  0.6024 -0.0719 -0.6288
16717TIP3    H271643   2.673   2.242   2.276  1.2344  0.2599 -0.9216
16718TIP3   OH271644   3.758   0.901   1.956 -0.0186 -0.1688 -0.1017
16718TIP3    H171645   3.698   0.829   1.977 -0.5968 -0.0720 -1.3514
16718TIP3    H271646   3.842   0.858   1.939 -0.3215 -0.5344 -0.6840
16719TIP3   OH271647   0.629   2.790   1.656 -0.5942  0.3536  0.4124
16719TIP3    H171648   0.600   2.710   1.612  0.0960 -0.3285  1.1714
16719TIP3    H271649   0.694   2.760   1.719  0.6225  1.6790 -0.1930
16720TIP3   OH271650   4.120   0.590  11.389 -0.3936  0.3495  0.1689
16720TIP3    H171651   4.119   0.652  11.316 -1.4028 -1.4709 -1.4362
16720TIP3    H271652   4.029   0.564  11.400 -0.1787  0.2352  1.7661
16721TIP3   OH271653   6.453   2.936   4.899 -0.4171  0.5620  0.4774
16721TIP3    H171654   6.431   2.997   4.970 -1.6264 -0.8226  1.3099
16721TIP3    H271655   6.368   2.908   4.865  0.1176 -1.2614  0.6250
16722TIP3   OH271656   6.102   0.800   4.765 -0.3772 -0.3267 -0.2017
16722TIP3    H171657   6.086   0.894   4.765  0.0658 -0.2373  1.5120
16722TIP3    H271658   6.069   0.769   4.850 -1.0970 -1.8198 -0.9947
16723TIP3   OH271659   5.690   0.639   2.211  0.3239  0.5662  0.1488
16723TIP3    H171660   5.637   0.718   2.203  0.4649  0.5868 -0.5888
16723TIP3    H271661   5.690   0.620   2.305 -2.0634 -0.1617  0.0427
16724TIP3   OH271662   4.696   5.445   5.322  0.4167  0.1284  0.3336
16724TIP3    H171663   4.701   5.349   5.329 -1.9996 -0.0678 -0.2862
16724TIP3    H271664   4.670   5.474   5.410 -0.0752  0.1082  0.1963
16725TIP3   OH271665   0.499   2.066   1.612  0.0817  0.5624 -0.2107
16725TIP3    H171666   0.528   2.120   1.686 -0.0722  1.6649 -0.9410
16725TIP3    H271667   0.555   2.094   1.540  1.7430 -2.0797  0.0161
16726TIP3   OH271668   2.448   1.208  10.812  0.1374  0.0350 -0.2512
16726TIP3    H171669   2.399   1.150  10.870  0.2017 -0.8994 -1.1088
16726TIP3    H271670   2.402   1.202  10.728  1.5099 -0.5806 -0.9710
16727TIP3   OH271671   0.439   4.960  16.947 -0.5760  0.2213  0.0737
16727TIP3    H171672   0.375   4.898  16.914 -1.2274  1.1403 -0.4057
16727TIP3    H271673   0.470   4.922  17.029  1.1607 -2.1551 -1.6157
16728TIP3   OH271674   0.599   3.504  10.984 -0.8317  0.5584 -0.1221
16728TIP3    H171675   0.555   3.531  11.065  0.2951  0.3388  0.5791
16728TIP3    H271676   0.685   3.474  11.013 -0.8763 -0.7109 -1.2597
16729TIP3   OH271677   5.619   2.627  12.970 -0.0468 -0.3656 -0.2367
16729TIP3    H171678   5.610   2.713  12.931  0.3321 -0.7968 -1.3002
16729TIP3    H271679   5.550   2.574  12.930  0.4412 -0.8519 -0.4575
16730TIP3   OH271680   4.234   2.236  16.037 -0.1286  0.3023 -0.0676
16730TIP3    H171681   4.203   2.211  16.124 -1.6752  0.8211 -0.4596
16730TIP3    H271682   4.237   2.331  16.039  1.3183  0.2680 -0.0953
16731TIP3   OH271683   6.059   0.429   6.034  0.1020  0.1161 -0.0623
16731TIP3    H171684   6.049   0.373   6.112 -0.0346 -0.9775 -0.8534
16731TIP3    H271685   6.021   0.513   6.060 -2.4933 -1.0814  0.1400
16732TIP3   OH271686   2.301   2.787  13.302 -0.3451 -0.0614 -0.0335
16732TIP3    H171687   2.253   2.831  13.231 -2.4439  1.3727  2.2087
16732TIP3    H271688   2.341   2.858  13.351 -0.2917 -0.9216  1.1924
16733TIP3   OH271689   1.772   0.063   5.448 -0.0340  0.5047 -0.6083
16733TIP3    H171690   1.855   0.067   5.496 -0.1676 -0.5261 -0.2701
16733TIP3    H271691   1.711   0.114   5.502 -0.4265 -1.4524  0.8637
16734TIP3   OH271692   5.393   1.189  15.836  0.0195 -0.1135 -0.1730
16734TIP3    H171693   5.344   1.232  15.766 -1.4196 -0.2679  0.7204
16734TIP3    H271694   5.329   1.131  15.878  0.8501  0.0040  1.2903
16735TIP3   OH271695   1.989   5.186  13.859 -0.3623  0.5496 -0.5205
16735TIP3    H171696   1.919   5.218  13.917 -2.0178 -2.1615 -0.9149
16735TIP3    H271697   2.047   5.136  13.917 -0.7658 -0.2379 -0.7826
16736TIP3   OH271698   1.754   3.818   3.948 -0.0891  0.7268  0.1433
16736TIP3    H171699   1.838   3.783   3.919 -1.3439 -1.4455 -0.9897
16736TIP3    H271700   1.722   3.755   4.012 -1.7768  0.4335 -0.9356
16737TIP3   OH271701   2.340   4.438  14.991  0.3543  0.4491 -0.2395
16737TIP3    H171702   2.255   4.473  14.965 -0.9591 -0.3914  2.7077
16737TIP3    H271703   2.401   4.510  14.978 -1.1042  1.6282 -0.6677
16738TIP3   OH271704   6.699   2.003  12.910 -0.2028  0.1566  0.3046
16738TIP3    H171705   6.632   2.015  12.977 -0.3481  0.6162  0.0811
16738TIP3    H271706   6.744   1.923  12.936 -0.7109 -0.0505  0.5626
16739TIP3   OH271707   6.384   2.456  15.660 -0.1727  0.0563 -0.0266
16739TIP3    H171708   6.441   2.462  15.737 -0.0150  3.7586 -0.3625
16739TIP3    H271709   6.380   2.545  15.625 -1.9814 -1.1225 -3.0789
16740TIP3   OH271710   3.937   4.042   5.111 -0.1771 -0.0160  0.0250
16740TIP3    H171711   3.850   4.002   5.105  0.4957 -1.3102 -1.6059
16740TIP3    H271712   3.923   4.134   5.089 -0.9161 -0.5627 -1.9494
16741TIP3   OH271713   5.820   3.157   1.509 -0.1539 -0.2938 -0.0351
16741TIP3    H171714   5.748   3.188   1.454 -1.6819 -1.4350  1.2800
16741TIP3    H271715   5.814   3.062   1.505  1.6322 -0.4266 -0.3114
16742TIP3   OH271716   4.415   4.957   2.340  0.8164  0.0626 -0.1584
16742TIP3    H171717   4.399   5.023   2.272  0.3164  1.5783  1.3846
16742TIP3    H271718   4.453   4.883   2.293  1.0179  1.2907 -2.0010
16743TIP3   OH271719   4.890   3.367  12.267  0.5708 -0.0896 -0.2240
16743TIP3    H171720   4.947   3.440  12.241  1.6221 -0.3628  1.2407
16743TIP3    H271721   4.805   3.389  12.229  0.8267  2.0082  0.3412
16744TIP3   OH271722   5.013   2.819  14.024 -0.1335 -0.8328  0.2357
16744TIP3    H171723   5.043   2.907  14.002  1.2023 -1.1219  0.8331
16744TIP3    H271724   4.931   2.808  13.975  1.0210 -0.2222 -1.9131
16745TIP3   OH271725   4.416   0.748   2.396  0.8104  0.1544  0.2626
16745TIP3    H171726   4.363   0.783   2.468 -1.3696 -1.1887 -0.6370
16745TIP3    H271727   4.505   0.742   2.432  0.0422  0.8728  2.3584
16746TIP3   OH271728   2.488   1.226  13.803 -0.6460 -0.3845  0.1455
16746TIP3    H171729   2.452   1.153  13.853 -4.0863  2.1029  1.4434
16746TIP3    H271730   2.423   1.243  13.735  0.1728  1.4175 -0.2168
16747TIP3   OH271731   6.590   2.134   1.575 -0.1899  0.2122 -0.0601
16747TIP3    H171732   6.597   2.071   1.503  1.6238  0.5779 -0.2170
16747TIP3    H271733   6.580   2.219   1.531  0.0534  0.3342  0.1198
16748TIP3   OH271734   5.628   4.212   2.272  0.2996 -0.7741  0.4956
16748TIP3    H171735   5.536   4.222   2.295 -0.2667  0.9533 -2.2626
16748TIP3    H271736   5.647   4.287   2.216  4.1973  0.4992  3.2593
16749TIP3   OH271737   5.811   4.185  12.857  0.0275 -0.4414  0.2112
16749TIP3    H171738   5.834   4.273  12.887 -0.1866 -0.8300  1.5461
16749TIP3    H271739   5.748   4.200  12.786 -1.0679  0.4722  1.3437
16750TIP3   OH271740   4.547   1.207  15.564 -0.1834  0.8254 -0.1021
16750TIP3    H171741   4.480   1.168  15.507 -0.7093  1.9492 -0.2767
16750TIP3    H271742   4.630   1.186  15.523 -0.5017  0.5416 -0.5998
16751TIP3   OH271743   3.905   3.462  11.223  0.3377  0.3654 -1.1110
16751TIP3    H171744   3.826   3.509  11.247  0.5665  0.9745 -1.5455
16751TIP3    H271745   3.875   3.373  11.203  0.0945 -0.0468  1.0396
16752TIP3   OH271746   6.588   5.469   0.336 -0.0389  0.4964  0.2707
16752TIP3    H171747   6.583   5.561   0.308 -0.2863  0.9272  1.6763
16752TIP3    H271748   6.521   5.462   0.404 -0.0758 -0.7626  0.1137
16753TIP3   OH271749   5.800   4.214  17.254 -0.0590 -0.3863 -0.1205
16753TIP3    H171750   5.796   4.186  17.162 -0.3708 -0.2545 -0.1467
16753TIP3    H271751   5.715   4.190  17.290  0.7182 -2.1281  0.6167
16754TIP3   OH271752   4.472   4.892  15.326  0.1093 -0.6803  0.1400
16754TIP3    H171753   4.516   4.968  15.364  2.1952 -2.9075  2.3765
16754TIP3    H271754   4.389   4.886  15.373 -0.5985  0.8501 -0.8688
16755TIP3   OH271755   1.742   4.112  12.661  0.3126  0.5723 -0.5836
16755TIP3    H171756   1.715   4.119  12.570 -0.7463 -3.3399 -0.6768
16755TIP3    H271757   1.798   4.034  12.663  0.9391  1.0436  1.9697
16756TIP3   OH271758   4.310   6.201   3.546 -0.5378  0.1214  0.2413
16756TIP3    H171759   4.379   6.264   3.565 -0.8676  0.7378 -0.5903
16756TIP3    H271760   4.241   6.252   3.504 -1.8233 -0.3385  1.7098
16757TIP3   OH271761   0.753   3.908  14.667  0.0942  0.1629  0.3118
16757TIP3    H171762   0.698   3.970  14.714 -0.6524  0.0446 -0.4143
16757TIP3    H271763   0.787   3.850  14.736 -1.4968 -0.3979  0.6441
16758TIP3   OH271764   0.666   0.084  10.505 -0.2481  0.0487  0.1389
16758TIP3    H171765   0.665   0.179  10.492  0.1724  0.4156  2.5164
16758TIP3    H271766   0.756   0.058  10.483 -0.6194  0.0548 -1.4079
16759TIP3   OH271767   0.505   0.161  11.841 -0.0902  0.0308  0.2295
16759TIP3    H171768   0.537   0.076  11.809  1.3550 -0.0577  1.8210
16759TIP3    H271769   0.430   0.181  11.786  1.4769 -0.7853 -2.2847
16760TIP3   OH271770   1.666   4.947  16.884  0.1594 -0.2819  0.0908
16760TIP3    H171771   1.675   5.039  16.908  3.0221 -0.2815 -0.7578
16760TIP3    H271772   1.659   4.900  16.967 -0.3375  0.6042  0.5567
16761TIP3   OH271773   4.486   3.936   2.699 -0.0863 -0.3236 -0.2664
16761TIP3    H171774   4.566   3.987   2.686  0.4544 -1.1875 -0.3898
16761TIP3    H271775   4.443   3.977   2.773  0.5074  0.1104 -0.1584
16762TIP3   OH271776   4.590   5.739  11.726  0.7920 -0.0260  0.2535
16762TIP3    H171777   4.620   5.826  11.752 -0.9575  0.8643 -0.6895
16762TIP3    H271778   4.496   5.740  11.742  0.4446 -1.0739 -1.5799
16763TIP3   OH271779   1.145   3.954   2.514 -0.2620 -0.4215  0.0232
16763TIP3    H171780   1.097   3.974   2.594 -1.5619  0.0666 -0.8483
16763TIP3    H271781   1.201   4.030   2.500  1.2150 -1.2382  1.3494
16764TIP3   OH271782   5.694   1.019   3.401 -0.5428  0.0652 -0.0943
16764TIP3    H171783   5.739   0.978   3.475  0.8807  0.0186 -0.9591
16764TIP3    H271784   5.642   1.089   3.440  1.0475  0.7518  0.8410
16765TIP3   OH271785   2.725   1.360  13.836  0.7179  0.0818  0.0142
16765TIP3    H171786   2.736   1.417  13.759 -0.2575  1.3716  0.8105
16765TIP3    H271787   2.643   1.314  13.820  0.9324 -0.2712 -0.0921
16766TIP3   OH271788   0.795   4.857  12.132  0.2738  0.4537 -0.5037
16766TIP3    H171789   0.753   4.894  12.054 -0.9819  0.4579  0.1664
16766TIP3    H271790   0.781   4.763  12.125 -0.2612  0.4973 -0.0423
16767TIP3   OH271791   5.501   6.161  12.509 -0.3033 -0.8696 -0.1300
16767TIP3    H171792   5.481   6.212  12.431 -0.8501 -0.2849  0.3869
16767TIP3    H271793   5.590   6.129  12.494 -0.7306 -1.5142 -1.3924
16768TIP3   OH271794   5.086   4.127  15.238 -0.0550  0.2403  0.6149
16768TIP3    H171795   5.115   4.122  15.147  0.4096 -0.6174  0.8027
16768TIP3    H271796   4.995   4.098  15.236 -0.2209  0.7701  0.3462
16769TIP3   OH271797   6.418   5.833  11.469 -0.3004  0.4828  0.6651
16769TIP3    H171798   6.425   5.927  11.488 -0.8105  0.7705 -0.4949
16769TIP3    H271799   6.503   5.810  11.431 -0.1355  0.4513  1.0532
16770TIP3   OH271800   3.130   6.194  11.290  0.1626  0.1100  0.3033
16770TIP3    H171801   3.062   6.166  11.350  0.0893 -0.6157 -0.1138
16770TIP3    H271802   3.108   6.284  11.268 -1.1097 -0.3892 -0.4688
16771TIP3   OH271803   5.408   6.354  16.581  0.4024 -0.7520  0.7543
16771TIP3    H171804   5.428   6.397  16.498 -0.3515 -0.0986  0.9069
16771TIP3    H271805   5.422   6.422  16.647  1.6030 -1.4373  1.2311
16772TIP3   OH271806   1.442   1.940   4.471  0.2658  0.2511  0.0830
16772TIP3    H171807   1.440   1.955   4.566  0.8400 -1.1273  0.3190
16772TIP3    H271808   1.473   2.023   4.435  0.6144  0.5984  1.1512
16773TIP3   OH271809   6.064   4.096   3.643  0.1627 -0.0227  0.5034
16773TIP3    H171810   6.033   4.145   3.719 -0.9090 -0.9977  0.7161
16773TIP3    H271811   5.994   4.106   3.578  0.1589 -0.8505  0.3756
16774TIP3   OH271812   4.649   3.791  16.181 -0.4992 -0.3384  0.3600
16774TIP3    H171813   4.682   3.795  16.091  2.6855 -0.6359  1.4621
16774TIP3    H271814   4.570   3.845  16.179 -0.6624 -0.5749 -2.6763
16775TIP3   OH271815   4.544   3.200   0.188 -0.1820 -0.1793 -0.1390
16775TIP3    H171816   4.551   3.120   0.241 -2.3111 -0.2935  0.0176
16775TIP3    H271817   4.496   3.261   0.244  0.5184  0.8563 -0.6615
16776TIP3   OH271818   4.435   1.333   4.447 -0.0725  0.3235  0.2726
16776TIP3    H171819   4.465   1.337   4.538  0.8363 -0.2265  0.0039
16776TIP3    H271820   4.475   1.253   4.412  2.0258  2.0830 -1.4759
16777TIP3   OH271821   6.321   4.814   3.002 -0.0821  0.6560  0.4406
16777TIP3    H171822   6.400   4.863   2.978 -0.0298  0.8751  1.0588
16777TIP3    H271823   6.254   4.882   3.016 -0.3711  0.4737 -0.0484
16778TIP3   OH271824   2.633   4.253   1.057 -0.3671 -0.3038  0.5037
16778TIP3    H171825   2.643   4.161   1.082 -2.5514 -1.5599 -2.9241
16778TIP3    H271826   2.543   4.260   1.024  0.2354  2.6980 -0.6942
16779TIP3   OH271827   2.103   3.990   3.760  0.6217 -0.1777 -0.1845
16779TIP3    H171828   2.043   3.954   3.695  0.9421 -0.0333 -0.5609
16779TIP3    H271829   2.174   4.029   3.709  1.0992 -0.4562  0.2597
16780TIP3   OH271830   4.383   0.897  11.871 -0.6458 -0.2517 -0.4641
16780TIP3    H171831   4.462   0.856  11.838 -1.2755 -1.9543  0.0654
16780TIP3    H271832   4.407   0.928  11.959 -0.5505 -0.7161 -0.3249
16781TIP3   OH271833   1.938   1.329   4.319  0.2902 -0.6371 -0.1840
16781TIP3    H171834   1.927   1.266   4.247 -0.2487  0.9221 -1.5088
16781TIP3    H271835   1.858   1.382   4.317  1.2254  0.8278  0.1541
16782TIP3   OH271836   6.018   4.663   6.096 -0.7250  0.5743 -0.2158
16782TIP3    H171837   6.034   4.748   6.136  1.4451  0.3833 -0.6178
16782TIP3    H271838   5.990   4.607   6.169 -0.2448  1.1231  0.3879
16783TIP3   OH271839   4.285   4.672  14.501  0.1477  0.0492  0.4395
16783TIP3    H171840   4.375   4.673  14.535  0.1156  0.7918  0.5086
16783TIP3    H271841   4.276   4.755  14.454  0.5518 -1.4032 -2.3344
16784TIP3   OH271842   6.634   0.826  14.856 -0.1476 -0.3231 -0.1804
16784TIP3    H171843   6.585   0.794  14.932  0.9543  2.0449  1.6021
16784TIP3    H271844   6.574   0.816  14.782 -2.4723  0.3599  1.5553
16785TIP3   OH271845   3.458   1.972   1.756 -0.0138  0.3195  0.7924
16785TIP3    H171846   3.522   1.965   1.827  1.0232 -0.3481 -0.1857
16785TIP3    H271847   3.453   1.884   1.719  0.0322  0.8249 -0.4513
16786TIP3   OH271848   3.211   3.644   5.875 -0.6023  0.9799  0.4060
16786TIP3    H171849   3.302   3.651   5.903 -0.9762  1.9423  1.4185
16786TIP3    H271850   3.161   3.686   5.945 -1.6580  2.4078 -1.1815
16787TIP3   OH271851   2.527   5.078   0.492  0.3695  0.2248 -0.7860
16787TIP3    H171852   2.493   4.994   0.522  0.8434 -0.1546 -1.2995
16787TIP3    H271853   2.615   5.058   0.459  0.5176  0.9351 -0.8351
16788TIP3   OH271854   5.220   2.349   4.670 -0.1275  0.2650 -0.4708
16788TIP3    H171855   5.207   2.380   4.759 -0.3752 -0.0955 -0.3803
16788TIP3    H271856   5.314   2.339   4.661 -0.2725 -2.7806  0.8042
16789TIP3   OH271857   5.468   5.491   3.708 -0.4797  0.0127  0.2067
16789TIP3    H171858   5.396   5.472   3.648  0.1236 -0.2941 -0.4183
16789TIP3    H271859   5.448   5.438   3.786 -0.1521 -1.2508 -0.5424
16790TIP3   OH271860   4.169   2.684  16.776 -0.3053 -0.2214  0.0851
16790TIP3    H171861   4.150   2.750  16.842 -0.9672 -1.8884  1.6074
16790TIP3    H271862   4.121   2.714  16.698 -0.2060  1.3115  0.5968
16791TIP3   OH271863   0.740   0.034   0.649 -0.0308  0.1898  0.4829
16791TIP3    H171864   0.672  -0.033   0.652 -1.8545  1.9242 -0.6775
16791TIP3    H271865   0.801   0.011   0.719 -0.8794 -2.3931  0.3957
16792TIP3   OH271866   5.014   6.216   4.083 -0.0186 -0.2658 -0.2027
16792TIP3    H171867   5.065   6.186   4.007  0.1962 -0.2626 -0.0603
16792TIP3    H271868   4.940   6.263   4.045 -0.0084 -0.4200 -0.4154
16793TIP3   OH271869   2.549   4.954   1.474 -0.6703  0.0708  0.1932
16793TIP3    H171870   2.464   4.994   1.494  0.7775  1.7287  3.3015
16793TIP3    H271871   2.609   5.028   1.467  1.0514 -1.2686  0.6654
16794TIP3   OH271872   0.222   3.486  16.656  0.7455  0.0809  0.2872
16794TIP3    H171873   0.288   3.535  16.705  0.0649  0.6936  0.6005
16794TIP3    H271874   0.198   3.545  16.584 -0.8571  0.6830  1.2739
16795TIP3   OH271875   5.964   1.535   3.529 -0.2609 -0.2877 -0.1837
16795TIP3    H171876   5.936   1.610   3.581  0.7472 -0.3614  0.4970
16795TIP3    H271877   5.972   1.569   3.440  1.4534  0.7691  0.3360
16796TIP3   OH271878   1.952   5.247   2.325 -0.1727  0.4371  0.2395
16796TIP3    H171879   1.884   5.313   2.311 -1.3130 -0.6280  0.6563
16796TIP3    H271880   1.915   5.189   2.392  0.0732 -1.6388 -1.3968
16797TIP3   OH271881   0.553   1.209  13.109 -0.0194  0.0568  0.5545
16797TIP3    H171882   0.584   1.269  13.177  1.5144 -1.2270  1.0019
16797TIP3    H271883   0.465   1.184  13.137  0.2822  0.1894  1.6127
16798TIP3   OH271884   5.406   0.707   2.618 -0.0548 -0.8278  0.3556
16798TIP3    H171885   5.405   0.643   2.689  3.5034 -0.0537  1.2109
16798TIP3    H271886   5.394   0.792   2.662  2.6842 -0.2955  0.1993
16799TIP3   OH271887   2.033   0.181  16.288 -0.9644  0.2345  0.2212
16799TIP3    H171888   1.985   0.098  16.297  0.9454 -0.8861  0.4206
16799TIP3    H271889   2.090   0.167  16.212  0.3989  0.8445  1.1234
16800TIP3   OH271890   6.533   3.965   1.144  0.2451 -0.0358  0.3223
16800TIP3    H171891   6.596   3.979   1.214 -0.7247  0.7928  1.0241
16800TIP3    H271892   6.456   3.928   1.187  0.3544 -1.3872 -0.5827
16801TIP3   OH271893   0.842   3.051   0.550  0.4472  0.1264  0.1157
16801TIP3    H171894   0.770   3.109   0.576 -0.9478 -1.1339 -0.7790
16801TIP3    H271895   0.797   2.976   0.511  2.2471 -1.1434  0.4734
16802TIP3   OH271896   1.127   6.422   5.563  0.5537  0.0569  0.0765
16802TIP3    H171897   1.192   6.413   5.494  0.2202  1.2229 -0.3956
16802TIP3    H271898   1.084   6.337   5.567  0.3879  0.0774 -1.3187
16803TIP3   OH271899   2.990   4.105  16.744 -0.5211  0.2597 -0.4568
16803TIP3    H171900   2.940   4.063  16.674 -2.6398 -3.1330  2.9268
16803TIP3    H271901   2.936   4.180  16.770 -0.2491  0.8918 -1.6438
16804TIP3   OH271902   6.645   3.668  16.202  0.8169  0.4928 -0.5013
16804TIP3    H171903   6.601   3.725  16.266 -1.7053  1.4459 -2.9682
16804TIP3    H271904   6.734   3.703  16.196  1.0497  0.5105  2.2702
16805TIP3   OH271905   4.109   3.038  11.640 -0.4789  0.6253 -0.1741
16805TIP3    H171906   4.047   3.063  11.571 -1.3042 -0.9010 -0.0217
16805TIP3    H271907   4.078   2.952  11.669  0.9650  0.4209  0.8043
16806TIP3   OH271908   3.916   0.398  11.397 -0.2107 -0.7986 -0.4565
16806TIP3    H171909   3.907   0.346  11.317  0.4049 -2.6804  0.6608
16806TIP3    H271910   3.880   0.343  11.466 -0.6402  0.7548  0.5994
16807TIP3   OH271911   1.824   3.811   1.826  0.0771 -0.1264 -0.3267
16807TIP3    H171912   1.904   3.829   1.776  1.3035 -1.7987  0.9921
16807TIP3    H271913   1.821   3.716   1.833 -1.0184  0.0119  1.2764
16808TIP3   OH271914   5.093   4.565  15.784  0.0175  0.8211  0.3465
16808TIP3    H171915   5.092   4.626  15.858  2.2550  0.9149  0.3241
16808TIP3    H271916   5.000   4.546  15.769 -0.5775  2.0723  2.1117
16809TIP3   OH271917   6.291   4.750  11.381  0.3270  0.2669 -0.2829
16809TIP3    H171918   6.252   4.674  11.424  0.5590  0.3120  0.0061
16809TIP3    H271919   6.380   4.755  11.416  1.0686 -0.6520 -1.9407
16810TIP3   OH271920   0.441   0.355  17.019  0.0853  0.1771  0.4622
16810TIP3    H171921   0.385   0.283  16.992  1.6096 -1.5347  1.7645
16810TIP3    H271922   0.415   0.374  17.109  0.1531  0.7871  0.3543
16811TIP3   OH271923   6.599   5.081  17.263  0.1683  0.3600 -0.4938
16811TIP3    H171924   6.675   5.022  17.271 -0.6150 -0.9302 -2.2371
16811TIP3    H271925   6.638   5.167  17.251  1.3447  0.3870  2.8297
16812TIP3   OH271926   2.209   5.456   4.869  0.5912 -0.0130  0.1262
16812TIP3    H171927   2.258   5.512   4.809 -0.5245  1.6816  0.7664
16812TIP3    H271928   2.230   5.488   4.956  0.6124 -1.1474  0.5495
16813TIP3   OH271929   6.240   4.564  12.742 -0.2287 -0.2082 -0.0441
16813TIP3    H171930   6.187   4.608  12.675 -1.5272 -0.9750  0.4732
16813TIP3    H271931   6.228   4.616  12.821  2.1767  1.3329 -0.6379
16814TIP3   OH271932   2.219   2.288  13.073 -0.1289 -0.0099  0.6828
16814TIP3    H171933   2.267   2.358  13.118  0.7125  0.5113 -0.9813
16814TIP3    H271934   2.188   2.232  13.144 -2.4978  3.0701  2.2042
16815TIP3   OH271935   3.317   5.800  17.048 -0.1907  0.0484  0.0068
16815TIP3    H171936   3.290   5.875  17.101 -1.6192 -0.4932  0.0758
16815TIP3    H271937   3.258   5.802  16.972  1.0203  0.0984 -0.9482
16816TIP3   OH271938   4.003   0.391  12.050  0.1481  0.0876  0.1198
16816TIP3    H171939   3.982   0.342  12.129  0.7800 -2.1689 -1.0443
16816TIP3    H271940   3.955   0.473  12.058 -0.4939 -0.4806  2.4136
16817TIP3   OH271941   6.492   4.486   1.205 -0.2393 -0.0574 -0.0142
16817TIP3    H171942   6.522   4.406   1.163 -0.1068  0.0529 -0.1310
16817TIP3    H271943   6.539   4.556   1.160  1.3399 -0.0590  1.5689
16818TIP3   OH271944   3.414   0.982   1.790  0.4463  0.0779  0.6335
16818TIP3    H171945   3.450   1.031   1.716  1.4190 -1.5824 -0.0415
16818TIP3    H271946   3.331   1.024   1.809 -0.0944  0.2020 -1.7797
16819TIP3   OH271947   3.072   2.250  12.069 -0.0670 -0.6820  0.1064
16819TIP3    H171948   3.036   2.232  11.982  0.5365  0.0724 -0.3132
16819TIP3    H271949   3.100   2.164  12.102  1.3422 -0.7613 -1.2046
16820TIP3   OH271950   2.773   0.566  11.460 -0.0231 -0.1379  0.6959
16820TIP3    H171951   2.722   0.488  11.437 -1.8944  1.3472 -0.2433
16820TIP3    H271952   2.722   0.639  11.428  2.8104  1.4162 -0.4622
16821TIP3   OH271953   5.629   6.724   4.178 -0.5498 -0.3112  0.5854
16821TIP3    H171954   5.599   6.670   4.251 -2.1154 -1.2549 -0.6893
16821TIP3    H271955   5.582   6.688   4.102  0.2538  1.2951 -0.6993
16822TIP3   OH271956   6.197   6.413   2.663  0.4352 -0.3156  0.5290
16822TIP3    H171957   6.259   6.375   2.725 -0.0461 -0.1166  1.1409
16822TIP3    H271958   6.199   6.354   2.588  1.6641 -0.0925  0.3730
16823TIP3   OH271959   4.365   5.990  14.108 -0.0804  0.1284 -0.6454
16823TIP3    H171960   4.435   5.926  14.121 -0.0667  0.2358 -0.1733
16823TIP3    H271961   4.289   5.938  14.082  0.0015 -0.0531 -0.5220
16824TIP3   OH271962   6.198   6.514  16.291 -0.0894  0.2977  0.3600
16824TIP3    H171963   6.261   6.496  16.221  0.2597  0.5874  0.5974
16824TIP3    H271964   6.157   6.429  16.308 -1.0223  0.4695 -1.0122
16825TIP3   OH271965   6.515   5.486  10.949 -0.2984 -0.5562 -0.4399
16825TIP3    H171966   6.569   5.427  10.896 -0.5688 -0.7499 -0.4993
16825TIP3    H271967   6.426   5.454  10.938 -0.5518  0.3453 -1.1201
16826TIP3   OH271968   4.544   2.836  14.203 -0.2462 -0.2677 -0.3596
16826TIP3    H171969   4.632   2.841  14.240  0.5820 -0.0531 -2.3195
16826TIP3    H271970   4.519   2.744  14.213  0.7169 -0.6002 -0.9844
16827TIP3   OH271971   6.668   4.212  14.740 -0.9079  0.2207 -0.0952
16827TIP3    H171972   6.662   4.120  14.714 -1.4135  0.1876  0.1389
16827TIP3    H271973   6.585   4.251  14.713 -1.0796  0.3917  0.6582
16828TIP3   OH271974   3.007   0.203  14.079  0.2209 -0.5685 -0.1096
16828TIP3    H171975   3.026   0.184  14.171 -2.4308 -1.8861  0.2100
16828TIP3    H271976   2.952   0.131  14.051 -1.0858  1.1401 -2.0224
16829TIP3   OH271977   6.017   3.741   1.182 -0.2462 -0.4041 -0.5834
16829TIP3    H171978   6.008   3.829   1.146 -0.5393  0.1617  0.8089
16829TIP3    H271979   5.986   3.683   1.113 -0.2411  0.6010 -1.4445
16830TIP3   OH271980   1.002   3.941   0.342  0.0439 -0.2188 -0.0822
16830TIP3    H171981   0.988   4.035   0.352  0.3760 -0.0399 -1.2682
16830TIP3    H271982   0.928   3.901   0.389 -0.7640  0.6491 -0.6053
16831TIP3   OH271983   0.859   1.913   3.117 -0.6017  0.5262  0.2927
16831TIP3    H171984   0.823   1.882   3.034 -0.7493  0.6063  0.3280
16831TIP3    H271985   0.825   2.002   3.127  1.7299  1.6075 -0.9653
16832TIP3   OH271986   1.286   6.081   0.397  0.4948  0.0132  0.1407
16832TIP3    H171987   1.225   6.009   0.378 -0.2558  0.6922 -0.0177
16832TIP3    H271988   1.242   6.160   0.366  1.6642  0.4641 -0.4113
16833TIP3   OH271989   4.900   2.240  15.181 -0.5378  0.1504  0.1271
16833TIP3    H171990   4.884   2.240  15.276  0.3193  0.7956  0.2862
16833TIP3    H271991   4.836   2.301  15.146 -0.6729  0.1294  0.3376
16834TIP3   OH271992   4.129   4.035  10.820 -0.2015  0.0414  0.7150
16834TIP3    H171993   4.105   4.123  10.791  0.7278  0.3889  0.9719
16834TIP3    H271994   4.082   3.977  10.760  0.8537  0.7484 -0.8399
16835TIP3   OH271995   2.348   1.078  16.800 -0.0989 -0.3237  0.3952
16835TIP3    H171996   2.397   1.158  16.782 -1.2395  0.5416  0.9798
16835TIP3    H271997   2.398   1.008  16.759  0.3600  0.8328 -1.0495
16836TIP3   OH271998   1.687   2.652   5.428  0.2081 -0.4088  0.8544
16836TIP3    H171999   1.614   2.618   5.480  0.0718  0.1932  1.0565
16836TIP3    H272000   1.728   2.573   5.392  0.6072 -0.8700  2.2705
16837TIP3   OH272001   6.240   6.381  12.249  0.5668  0.6196 -0.3325
16837TIP3    H172002   6.210   6.377  12.159 -0.3250 -1.5832  0.0377
16837TIP3    H272003   6.171   6.428  12.296  0.4460  0.6595 -0.5506
16838TIP3   OH272004   0.887   0.666   1.943 -0.1623 -0.2029 -0.2116
16838TIP3    H172005   0.941   0.740   1.916  1.7017 -0.7520  1.8856
16838TIP3    H272006   0.857   0.627   1.861  0.5994  1.5558 -1.3685
16839TIP3   OH272007   4.024   2.605  15.137 -0.0128 -0.0150  0.5410
16839TIP3    H172008   3.953   2.638  15.192 -1.2889 -0.4974 -0.7674
16839TIP3    H272009   4.001   2.514  15.120  0.5468  0.0163 -0.4445
16840TIP3   OH272010   3.322   6.388   2.057 -0.4532 -0.2529 -0.5881
16840TIP3    H172011   3.348   6.470   2.016 -2.6154 -0.1024 -1.7038
16840TIP3    H272012   3.254   6.411   2.120 -0.1909 -1.0395  0.0066
16841TIP3   OH272013   6.563   2.583  13.366 -0.0168 -0.2433  0.0311
16841TIP3    H172014   6.658   2.593  13.362  0.1515 -1.5376  0.7879
16841TIP3    H272015   6.532   2.620  13.283  1.3051 -1.5522 -1.0690
16842TIP3   OH272016   4.305   0.318  16.454 -0.7360 -0.0831  0.3419
16842TIP3    H172017   4.382   0.311  16.510 -0.5099 -0.4895 -0.0185
16842TIP3    H272018   4.299   0.411  16.432  1.3356 -0.4631 -2.0040
16843TIP3   OH272019   0.185   2.923  17.198  0.4347  0.0349 -0.2475
16843TIP3    H172020   0.257   2.860  17.206 -0.5348 -0.9834  0.9041
16843TIP3    H272021   0.155   2.935  17.289 -1.6674 -0.5724 -0.8346
16844TIP3   OH272022   0.027   3.539   2.583 -0.6100  0.4044 -0.4795
16844TIP3    H172023   0.035   3.599   2.509 -2.9392  2.2203  0.6709
16844TIP3    H272024  -0.010   3.593   2.653 -1.7979 -2.1262  0.8895
16845TIP3   OH272025   5.131   5.097  15.304 -0.1106  0.5243 -0.3045
16845TIP3    H172026   5.162   5.007  15.300 -1.2360  0.0683  0.6877
16845TIP3    H272027   5.210   5.150  15.310  0.5137 -0.5317  1.1781
16846TIP3   OH272028   1.139   2.604   1.399 -0.4278 -0.5362 -0.0045
16846TIP3    H172029   1.055   2.640   1.429 -0.1873  1.3300 -1.4621
16846TIP3    H272030   1.123   2.576   1.309  0.7609  0.7346 -0.6269
16847TIP3   OH272031   6.753   4.296   2.020  0.4527  0.5163 -0.0718
16847TIP3    H172032   6.743   4.279   1.926 -2.2118  0.8825  0.1156
16847TIP3    H272033   6.737   4.212   2.062 -1.1137  0.9335  0.1928
16848TIP3   OH272034   0.270   0.338  16.335  0.5677  0.0684 -0.4786
16848TIP3    H172035   0.298   0.247  16.351  1.8060  0.4893 -0.2153
16848TIP3    H272036   0.232   0.366  16.418  1.8693  0.4006  0.0030
16849TIP3   OH272037   2.146   3.917  16.917  0.7630 -0.2213  0.1171
16849TIP3    H172038   2.089   3.989  16.892  1.0674  0.2176  0.6830
16849TIP3    H272039   2.121   3.896  17.007 -1.1383 -2.5737 -0.9114
16850TIP3   OH272040   2.303   5.023  14.603 -0.3416  0.4841  0.0965
16850TIP3    H172041   2.259   5.017  14.688 -1.9208 -0.2746 -0.7407
16850TIP3    H272042   2.231   5.019  14.540  0.6468  3.1352 -1.2420
16851TIP3   OH272043   3.977   3.679   2.536 -0.3482 -0.1722 -0.2401
16851TIP3    H172044   4.049   3.665   2.473 -0.3156  0.0822 -0.2609
16851TIP3    H272045   3.914   3.733   2.488  0.2178  1.0034  0.3433
16852TIP3   OH272046   1.640   4.959  10.760 -0.9975  0.0110 -0.3585
16852TIP3    H172047   1.729   4.980  10.788 -1.4106  2.1436 -0.5564
16852TIP3    H272048   1.595   4.933  10.840 -0.4524 -0.1476 -0.1041
16853TIP3   OH272049   5.731   2.970  13.920  0.3234  0.2942 -0.0566
16853TIP3    H172050   5.711   2.995  14.010  0.6837 -1.1439  0.4424
16853TIP3    H272051   5.725   2.874  13.921 -0.5600  0.3243 -1.7702
16854TIP3   OH272052   2.628   4.788  10.634  0.3733  0.1328 -0.7825
16854TIP3    H172053   2.665   4.840  10.563  0.8288  0.3928 -0.3545
16854TIP3    H272054   2.666   4.700  10.622  0.0420  0.0445 -1.1714
16855TIP3   OH272055   5.908   3.032   2.744 -0.5433 -0.0284 -0.4370
16855TIP3    H172056   5.820   2.995   2.742 -0.1118 -1.1097  0.0444
16855TIP3    H272057   5.949   2.993   2.821 -0.8875  3.4118  1.6031
16856TIP3   OH272058   5.641   2.848  16.228  0.3129  0.0017 -0.2094
16856TIP3    H172059   5.709   2.832  16.163  0.3702  0.5152 -0.2799
16856TIP3    H272060   5.682   2.907  16.292 -0.4543  1.3287 -0.9195
16857TIP3   OH272061   4.419   5.329  14.998 -0.5430  0.2786 -0.6769
16857TIP3    H172062   4.492   5.343  15.059 -2.2203  1.1129  1.2093
16857TIP3    H272063   4.432   5.396  14.931  0.4151  0.4319 -0.3564
16858TIP3   OH272064   1.491   5.467   2.324  0.4453 -0.4388  0.5180
16858TIP3    H172065   1.509   5.389   2.376  2.0185  0.1213  0.8475
16858TIP3    H272066   1.409   5.502   2.359  1.2090 -0.3669  2.2695
16859TIP3   OH272067   2.326   5.500  15.832 -0.6951 -0.2652  0.3954
16859TIP3    H172068   2.293   5.419  15.793 -0.4080 -0.7544  1.1688
16859TIP3    H272069   2.406   5.520  15.783 -0.6466 -0.5629  0.3571
16860TIP3   OH272070   1.808   5.200  16.945  0.0763  0.5247 -0.2625
16860TIP3    H172071   1.871   5.188  16.873  1.8995  0.8274  1.2441
16860TIP3    H272072   1.734   5.244  16.905 -0.8600 -3.2099 -2.9415
16861TIP3   OH272073   4.686   1.898   5.820 -0.4078 -0.0370 -0.0364
16861TIP3    H172074   4.653   1.833   5.883  0.0370 -0.1604  0.0690
16861TIP3    H272075   4.632   1.976   5.837 -0.0654  0.0425  0.7341
16862TIP3   OH272076   5.898   1.289  12.670 -0.0209  0.0622 -0.2638
16862TIP3    H172077   5.938   1.203  12.660  0.1907  0.3118 -1.7402
16862TIP3    H272078   5.956   1.348  12.621 -0.1865  1.0368  0.6928
16863TIP3   OH272079   2.560   1.321   0.980  0.0027 -0.1968  0.4960
16863TIP3    H172080   2.499   1.319   1.054 -0.3035  1.0786  0.2921
16863TIP3    H272081   2.519   1.380   0.917  0.4185 -1.0214 -0.5632
16864TIP3   OH272082   3.042   0.281   5.339  0.1706 -0.7617  0.1581
16864TIP3    H172083   3.075   0.230   5.264  0.1539  1.8942 -1.7358
16864TIP3    H272084   2.954   0.307   5.314 -0.1161 -0.4663  1.4383
16865TIP3   OH272085   3.115   6.708  12.285  0.0240  0.5034  0.2116
16865TIP3    H172086   3.106   6.613  12.275  0.6149  0.4776 -0.1128
16865TIP3    H272087   3.036   6.735  12.331  0.3691 -0.3009  1.2909
16866TIP3   OH272088   6.561   6.434   2.339 -0.0766 -0.8288  0.6496
16866TIP3    H172089   6.593   6.498   2.402  0.8089  0.0292 -0.6376
16866TIP3    H272090   6.618   6.446   2.262 -3.6635  1.0096 -1.8628
16867TIP3   OH272091   2.243   2.460   0.490 -0.0766  0.4044 -0.3719
16867TIP3    H172092   2.244   2.554   0.505  2.4645  0.1803  1.0955
16867TIP3    H272093   2.211   2.423   0.572 -2.7139  0.0423 -1.5235
16868TIP3   OH272094   3.833   5.584  12.452  0.9145  0.2580  0.2884
16868TIP3    H172095   3.812   5.594  12.359  1.1969  0.7560  0.2791
16868TIP3    H272096   3.928   5.590  12.455  0.8444  1.1190  0.7214
16869TIP3   OH272097   0.175   0.612  12.154  0.5390 -0.3661  0.4228
16869TIP3    H172098   0.124   0.689  12.129  0.9334  0.8381  3.1168
16869TIP3    H272099   0.256   0.620  12.103  1.0275  1.5972  1.4501
16870TIP3   OH272100   0.545   5.928   0.697 -0.3676  0.4944  0.4614
16870TIP3    H172101   0.531   5.893   0.785  0.3287  1.7107  1.0625
16870TIP3    H272102   0.463   5.910   0.651  0.1330 -2.3713  0.5827
16871TIP3   OH272103   1.081   6.754  12.608 -0.4214  0.6916  0.0554
16871TIP3    H172104   1.066   6.732  12.699 -0.5587  0.4988 -0.0162
16871TIP3    H272105   1.031   6.690  12.558 -0.2805  0.7445 -0.1565
16872TIP3   OH272106   4.779   4.599  11.753 -0.9448 -0.2895  0.1686
16872TIP3    H172107   4.705   4.604  11.693 -0.0119 -1.8353 -1.1264
16872TIP3    H272108   4.842   4.663  11.719 -0.5502 -0.9349 -0.3121
16873TIP3   OH272109   0.062   5.722   3.790 -0.3555  0.8654 -0.1556
16873TIP3    H172110  -0.006   5.788   3.793 -1.8850 -0.5453 -2.3540
16873TIP3    H272111   0.099   5.729   3.702 -0.8172 -1.4379 -0.5702
16874TIP3   OH272112   6.464   0.028  13.350  0.0090  0.0619  0.1101
16874TIP3    H172113   6.537  -0.034  13.349 -0.9478 -1.0825  0.1381
16874TIP3    H272114   6.386  -0.027  13.361 -0.9284  1.2035 -0.7089
16875TIP3   OH272115   3.533   3.071   5.576 -0.2498 -0.1805 -0.1625
16875TIP3    H172116   3.573   3.097   5.493  1.1121 -1.9642 -0.0957
16875TIP3    H272117   3.452   3.122   5.580  0.0196  0.4824 -2.2345
16876TIP3   OH272118   4.445   3.286   0.842 -0.3034 -0.0273 -0.6784
16876TIP3    H172119   4.407   3.283   0.930 -0.4243 -0.2074 -0.7366
16876TIP3    H272120   4.393   3.351   0.795  0.7628  1.2480 -0.1482
16877TIP3   OH272121   5.381   0.012   0.358  0.3784  0.0170  0.1068
16877TIP3    H172122   5.400  -0.072   0.401 -0.4277 -1.7486 -2.8101
16877TIP3    H272123   5.315   0.053   0.414  1.5994 -0.7607  2.1847
16878TIP3   OH272124   1.024   2.169  13.012  0.0456  0.0399 -0.4307
16878TIP3    H172125   0.942   2.217  13.001 -0.0956 -0.0506  0.2262
16878TIP3    H272126   1.024   2.106  12.940 -0.9749 -0.6946  0.1990
16879TIP3   OH272127   0.468   3.250   3.936 -0.1610  0.2177  0.4592
16879TIP3    H172128   0.409   3.199   3.991  0.9301  1.7492  3.1326
16879TIP3    H272129   0.461   3.340   3.969  1.2058  1.0227 -1.3239
16880TIP3   OH272130   2.048   1.204  12.327  0.0679 -0.6033  0.0642
16880TIP3    H172131   2.007   1.119  12.312  0.8848 -1.1060  0.6678
16880TIP3    H272132   2.053   1.213  12.422  2.1112 -0.9497  0.0324
16881TIP3   OH272133   2.144   0.298   5.495  0.6888  0.3942  0.0836
16881TIP3    H172134   2.094   0.343   5.563 -0.1041 -2.2485  1.3553
16881TIP3    H272135   2.144   0.206   5.523  0.7899 -0.6816 -3.2170
16882TIP3   OH272136   2.509   3.205  13.019 -0.2505 -0.0079 -0.0692
16882TIP3    H172137   2.571   3.133  13.008  0.6114  0.7970 -0.5702
16882TIP3    H272138   2.555   3.281  12.982 -0.1535  1.3025  2.6474
16883TIP3   OH272139   0.882   3.181   6.245 -0.4351  0.1148 -0.0841
16883TIP3    H172140   0.836   3.168   6.327 -2.2554 -1.1781 -1.2977
16883TIP3    H272141   0.855   3.108   6.190  1.1153  0.7209 -1.6860
16884TIP3   OH272142   3.665   4.897  16.737 -0.0622 -0.5168  0.3776
16884TIP3    H172143   3.588   4.935  16.778 -0.8805 -1.0891 -0.6078
16884TIP3    H272144   3.736   4.914  16.799 -0.1179  3.6605 -0.5372
16885TIP3   OH272145   2.967   1.069  10.852 -0.0161  0.2342 -0.1904
16885TIP3    H172146   3.047   1.024  10.879  0.6966  2.2073  1.1181
16885TIP3    H272147   2.964   1.148  10.906 -3.2546 -0.1504  0.3438
16886TIP3   OH272148   6.225   3.487  14.218 -0.3686 -0.4404 -0.2714
16886TIP3    H172149   6.270   3.570  14.205 -1.1462  0.3202  1.8242
16886TIP3    H272150   6.133   3.506  14.201 -0.4610 -1.0238 -0.4369
16887TIP3   OH272151   2.075   4.700  12.915  0.0562 -0.5756 -0.4731
16887TIP3    H172152   1.992   4.740  12.890 -0.4134 -1.8342 -0.9614
16887TIP3    H272153   2.100   4.746  12.995 -1.4795 -0.6968  0.1002
16888TIP3   OH272154   5.171   4.727   3.151  0.2616  0.1396 -0.0213
16888TIP3    H172155   5.237   4.788   3.184 -0.1087  0.6622 -0.2372
16888TIP3    H272156   5.103   4.726   3.219 -0.6294  1.4179 -0.8645
16889TIP3   OH272157   2.649   2.133  16.623  0.0099  0.1118  1.0580
16889TIP3    H172158   2.723   2.127  16.683  0.2202  1.0476  0.8987
16889TIP3    H272159   2.685   2.176  16.545 -0.4087 -0.5307  0.5037
16890TIP3   OH272160   0.339   5.955   5.425 -0.3732 -0.1351  0.0073
16890TIP3    H172161   0.334   6.015   5.500  0.6217  0.9981 -0.7990
16890TIP3    H272162   0.286   5.998   5.358 -0.1551 -0.4665 -0.3747
16891TIP3   OH272163   0.736   3.359   1.504  0.1441  0.3764  0.3106
16891TIP3    H172164   0.807   3.398   1.454 -0.8276  0.0084 -1.3807
16891TIP3    H272165   0.681   3.317   1.439 -2.1553  1.4759  1.4981
16892TIP3   OH272166   6.454   4.426   5.701 -0.4584  0.4040 -0.0361
16892TIP3    H172167   6.417   4.392   5.783  2.7678  0.9790  1.7651
16892TIP3    H272168   6.517   4.359   5.674  0.2237  1.3119 -0.7181
16893TIP3   OH272169   3.789   4.619  14.155  0.8469 -0.2021 -0.2545
16893TIP3    H172170   3.796   4.540  14.100 -1.0480 -0.9659  0.5781
16893TIP3    H272171   3.872   4.622  14.202  0.8834 -1.7897 -0.1963
16894TIP3   OH272172   2.366   4.739  14.910 -0.3732  0.0367  0.1448
16894TIP3    H172173   2.295   4.787  14.953  0.8622  1.7935  0.2236
16894TIP3    H272174   2.352   4.754  14.817 -0.4242 -0.1063  0.1274
16895TIP3   OH272175   1.960   6.585  13.001 -0.2549  0.3613  0.1820
16895TIP3    H172176   1.889   6.622  12.948 -1.2223 -1.1231  0.4210
16895TIP3    H272177   1.932   6.599  13.091 -0.2689 -0.2708  0.2754
16896TIP3   OH272178   5.549   1.841  13.100  0.0999 -0.0953 -0.3953
16896TIP3    H172179   5.553   1.872  13.190 -1.6672 -2.1945  0.4671
16896TIP3    H272180   5.619   1.777  13.093  0.3591  0.2065 -0.5752
16897TIP3   OH272181   3.891   4.826  11.330 -0.1135  0.7359  0.3653
16897TIP3    H172182   3.902   4.864  11.417  3.0986  1.0079 -0.1044
16897TIP3    H272183   3.889   4.902  11.271 -2.0257  0.5407  0.1497
16898TIP3   OH272184   6.764   3.258   2.735 -0.0246 -0.6063  0.1313
16898TIP3    H172185   6.796   3.225   2.651 -1.2277 -0.0751 -0.5669
16898TIP3    H272186   6.796   3.196   2.800  0.3788 -1.3834 -0.7984
16899TIP3   OH272187   5.474   5.573  14.582 -0.1476  0.2131 -0.2885
16899TIP3    H172188   5.540   5.505  14.589 -1.3442 -1.0002 -0.6117
16899TIP3    H272189   5.459   5.582  14.487 -2.1753 -1.2460 -0.1367
16900TIP3   OH272190   3.562   3.168  12.905 -0.2691 -0.1058 -0.2878
16900TIP3    H172191   3.578   3.222  12.828 -0.8858  0.3124 -0.1256
16900TIP3    H272192   3.635   3.188  12.964  0.0701 -0.2447 -0.6531
16901TIP3   OH272193   3.604   2.937   5.024 -0.0852  0.3978 -0.4649
16901TIP3    H172194   3.679   2.901   5.070 -0.7057  1.1379  1.1483
16901TIP3    H272195   3.540   2.866   5.023  0.2291  0.1206 -0.8912
16902TIP3   OH272196   1.157   6.522  12.784 -0.4009  0.3389 -0.1874
16902TIP3    H172197   1.083   6.535  12.724  0.2102  0.1681 -0.9840
16902TIP3    H272198   1.216   6.463  12.737  0.0238  0.0954  0.6424
16903TIP3   OH272199   2.009   3.980  14.825  0.1349 -0.1121 -0.3254
16903TIP3    H172200   2.008   3.888  14.798  0.1829 -0.4167  0.6788
16903TIP3    H272201   1.917   4.004  14.834  0.1335 -0.3089  0.2105
16904TIP3   OH272202   0.430   6.572   4.355 -0.3446  0.3548  0.4525
16904TIP3    H172203   0.516   6.608   4.330 -1.2056  1.8661 -0.4263
16904TIP3    H272204   0.450   6.487   4.393  1.6840  1.2381  1.4736
16905TIP3   OH272205   2.646   4.231  11.591 -0.1887  0.6652  0.4701
16905TIP3    H172206   2.563   4.190  11.568  0.2011 -0.0363  0.3104
16905TIP3    H272207   2.680   4.266  11.509 -0.1324  0.6029  0.4675
16906TIP3   OH272208   5.601   5.938  11.860  0.3721  0.2664  0.7400
16906TIP3    H172209   5.565   5.878  11.795 -0.1870  1.2809  0.1243
16906TIP3    H272210   5.631   5.880  11.931  1.2268 -0.8535 -0.5131
16907TIP3   OH272211   1.205   6.160   3.669  0.3513 -0.0624  0.1169
16907TIP3    H172212   1.281   6.219   3.672  0.1527  0.2164 -0.3712
16907TIP3    H272213   1.230   6.093   3.606 -0.6536  1.2012 -1.6607
16908TIP3   OH272214   1.372   0.837  17.044 -0.2074 -0.0632  0.3062
16908TIP3    H172215   1.346   0.929  17.042 -0.1436 -0.0645 -0.4692
16908TIP3    H272216   1.349   0.808  17.133 -2.8713 -0.0518 -0.3363
16909TIP3   OH272217   2.031   3.938   2.682 -0.1823 -0.0434  0.1343
16909TIP3    H172218   2.065   3.895   2.603 -1.8846 -0.4554 -0.3854
16909TIP3    H272219   1.940   3.960   2.660 -0.5471  0.1913  1.8516
16910TIP3   OH272220   3.696   2.847   1.762  0.2562  0.2147 -0.1953
16910TIP3    H172221   3.605   2.818   1.762 -0.4252  2.2516 -0.5916
16910TIP3    H272222   3.722   2.844   1.854 -0.3440  0.0428 -0.0288
16911TIP3   OH272223   3.388   4.893   3.348  0.1967  0.5512  0.1802
16911TIP3    H172224   3.295   4.871   3.344  0.4665 -0.8790  1.3713
16911TIP3    H272225   3.401   4.954   3.276 -1.2864 -0.6420 -1.1299
16912TIP3   OH272226   5.523   4.201  17.241  0.1772 -0.5659  0.3419
16912TIP3    H172227   5.527   4.249  17.158  1.0278 -1.1656  0.0254
16912TIP3    H272228   5.447   4.144  17.232 -1.5600  1.5286  1.1830
16913TIP3   OH272229   1.411   5.036  13.394  0.0201  0.6668 -0.4291
16913TIP3    H172230   1.496   5.008  13.429 -0.8167 -0.4221  0.7455
16913TIP3    H272231   1.381   4.962  13.342 -0.9786  0.4130  0.5064
16914TIP3   OH272232   4.175   4.783   0.376 -0.1687 -0.1453  0.5111
16914TIP3    H172233   4.207   4.740   0.456  2.5441  1.9608  0.6113
16914TIP3    H272234   4.247   4.774   0.313 -0.9537  1.1467 -0.5952
16915TIP3   OH272235   1.852   0.148  16.938  0.3937  0.0097  0.0578
16915TIP3    H172236   1.800   0.075  16.903 -0.8806 -0.0040  1.8906
16915TIP3    H272237   1.835   0.146  17.032  1.5378  1.7478  0.3210
16916TIP3   OH272238   1.025   6.503   2.774 -0.2181 -0.5017  0.1837
16916TIP3    H172239   1.002   6.414   2.748  0.6317 -0.1659 -1.8298
16916TIP3    H272240   0.958   6.558   2.734 -0.6330 -0.1924  1.2670
16917TIP3   OH272241   3.821   1.103   3.192 -0.2301 -0.0308  0.0083
16917TIP3    H172242   3.869   1.021   3.199  1.5927  1.0139  0.0855
16917TIP3    H272243   3.870   1.154   3.127 -2.3338  0.3385 -1.3643
16918TIP3   OH272244   5.483   4.752  14.402 -0.6606 -0.4884  0.0723
16918TIP3    H172245   5.534   4.773  14.324  0.2437 -2.3543  0.1225
16918TIP3    H272246   5.399   4.795  14.389  0.5647  1.8314 -0.4687
16919TIP3   OH272247   3.987   0.752   1.949  0.6065  0.4052 -0.1634
16919TIP3    H172248   4.058   0.723   1.892  0.0179  0.1075 -0.7479
16919TIP3    H272249   3.965   0.675   2.002 -0.4834 -0.0406 -1.2301
16920TIP3   OH272250   0.439   1.041   1.862  0.3223 -0.2465 -0.4398
16920TIP3    H172251   0.412   0.949   1.870  1.7869 -0.6793 -0.2841
16920TIP3    H272252   0.535   1.037   1.860  0.3917  1.2999 -0.2922
16921TIP3   OH272253   2.158   4.449  12.693 -0.7636  0.3710 -0.0163
16921TIP3    H172254   2.199   4.363  12.701 -0.3119  0.5721 -0.2007
16921TIP3    H272255   2.215   4.508  12.741 -0.4864  0.7660 -0.8299
16922TIP3   OH272256   2.250   0.396   2.958 -0.1925  0.0409  0.2515
16922TIP3    H172257   2.329   0.361   2.999  0.5785  0.4500 -0.8658
16922TIP3    H272258   2.232   0.477   3.007 -0.0388 -0.1579  0.6399
16923TIP3   OH272259   3.595   1.769  13.371 -0.2506 -0.0598  0.7516
16923TIP3    H172260   3.595   1.674  13.388 -0.6905 -0.4563 -1.3577
16923TIP3    H272261   3.511   1.786  13.329  0.1287  1.1551  0.4701
16924TIP3   OH272262   4.720   5.196   1.549 -0.3701 -0.2348 -0.3711
16924TIP3    H172263   4.626   5.188   1.567 -0.2334 -1.8546 -0.3307
16924TIP3    H272264   4.749   5.268   1.606 -1.2124 -0.9867  1.0242
16925TIP3   OH272265   5.191   4.042   0.363  0.0131  0.4073  0.0249
16925TIP3    H172266   5.173   4.117   0.305 -2.6646 -0.3347 -0.1965
16925TIP3    H272267   5.150   4.066   0.446  0.0893 -0.3477  0.2804
16926TIP3   OH272268   5.772   1.589  14.417  0.2128 -0.0824 -0.5249
16926TIP3    H172269   5.702   1.646  14.450  0.0935 -0.1038 -0.7472
16926TIP3    H272270   5.727   1.520  14.369  0.3127 -0.7949  0.3858
16927TIP3   OH272271   6.805   1.154  10.730  0.3898 -0.2650  0.5153
16927TIP3    H172272   6.830   1.062  10.716  0.5902 -0.2771  0.9264
16927TIP3    H272273   6.710   1.156  10.715  0.7723 -0.0294 -1.9852
16928TIP3   OH272274   4.631   1.156  16.734 -0.0742  0.5431  0.5061
16928TIP3    H172275   4.659   1.167  16.643  0.4023  0.1466  0.6065
16928TIP3    H272276   4.554   1.100  16.729 -0.0421  0.5129  0.3480
16929TIP3   OH272277   0.064   3.139  14.308 -0.1495  0.5084  0.4347
16929TIP3    H172278   0.124   3.090  14.364  0.1149  0.9325  0.5219
16929TIP3    H272279  -0.023   3.118  14.342 -0.0841 -0.4739  0.0135
16930TIP3   OH272280   2.421   1.507  14.215 -0.1043  0.0543 -0.2033
16930TIP3    H172281   2.350   1.460  14.172 -0.9625  1.2740 -0.1527
16930TIP3    H272282   2.499   1.487  14.163 -0.5846 -0.8364 -0.5878
16931TIP3   OH272283   6.617   4.395  16.592 -0.1754  0.0216  0.2204
16931TIP3    H172284   6.565   4.363  16.666 -0.2047  0.3309  0.3344
16931TIP3    H272285   6.707   4.396  16.624 -0.3596  1.4924  0.7161
16932TIP3   OH272286   2.019   4.921   3.873  0.1568 -0.2836  0.7317
16932TIP3    H172287   1.992   4.925   3.965  1.5212  0.1374  1.1284
16932TIP3    H272288   1.937   4.927   3.824 -0.5675 -0.2564  1.9164
16933TIP3   OH272289   3.113   4.380  14.467  0.0980 -0.5876  0.1206
16933TIP3    H172290   3.062   4.299  14.456 -0.4835 -0.3708  1.1294
16933TIP3    H272291   3.091   4.410  14.555 -0.4799  1.2081 -0.5981
16934TIP3   OH272292   3.129   4.741  15.124  0.1128 -0.5485  0.0699
16934TIP3    H172293   3.061   4.677  15.146  0.3703 -1.6094 -2.0976
16934TIP3    H272294   3.109   4.767  15.035  1.9376 -0.0552 -0.2046
16935TIP3   OH272295   5.312   6.040  15.325  0.4516  0.3646 -0.0969
16935TIP3    H172296   5.335   5.967  15.382  1.1063  3.2343  3.4815
16935TIP3    H272297   5.225   6.067  15.354 -0.0157  0.6914 -1.7500
16936TIP3   OH272298   4.255   5.449   4.865  0.7875  0.3063 -0.2859
16936TIP3    H172299   4.319   5.520   4.859 -1.3797  2.3107 -0.3323
16936TIP3    H272300   4.286   5.395   4.937  1.1684  2.6324  1.3350
16937TIP3   OH272301   3.615   1.524   2.848  0.6047 -0.2773 -0.0417
16937TIP3    H172302   3.655   1.566   2.924  2.2515  1.5104 -1.8345
16937TIP3    H272303   3.685   1.471   2.809  0.1212 -0.2339 -0.9944
16938TIP3   OH272304   1.256   1.834  11.056  0.0008 -0.7406 -0.3525
16938TIP3    H172305   1.336   1.879  11.029  0.1516  0.4781  1.9989
16938TIP3    H272306   1.185   1.887  11.018  0.2554 -0.2198 -0.1051
16939TIP3   OH272307   1.847   0.956  11.969 -0.0746 -0.8047  0.7043
16939TIP3    H172308   1.826   1.031  12.024 -1.6854 -0.5832 -0.1927
16939TIP3    H272309   1.943   0.956  11.965 -0.0339  0.7770  1.2818
16940TIP3   OH272310   5.037   5.520   1.131  0.3371 -0.0613  0.7954
16940TIP3    H172311   5.059   5.613   1.135  0.4122 -0.0435  0.1323
16940TIP3    H272312   4.975   5.514   1.058  0.6281 -0.5834  0.5938
16941TIP3   OH272313   4.349   1.792   5.852  0.2874  0.3173 -0.2673
16941TIP3    H172314   4.307   1.709   5.828  0.9800 -0.3914  0.8623
16941TIP3    H272315   4.363   1.838   5.770  3.0352 -2.2208 -1.3264
16942TIP3   OH272316   1.835   4.870   5.065 -0.4644 -0.3411  0.3836
16942TIP3    H172317   1.817   4.863   4.971 -0.1874 -1.0365  0.3768
16942TIP3    H272318   1.748   4.876   5.105 -0.5633  0.6013  0.0419
16943TIP3   OH272319   5.869   5.932   2.241  0.6110 -0.1422  0.2895
16943TIP3    H172320   5.840   5.863   2.301  1.8685  0.5325  1.7069
16943TIP3    H272321   5.813   6.007   2.261  0.0860 -0.3592 -0.3695
16944TIP3   OH272322   1.343   2.404   5.347  0.2006 -0.3285 -0.7984
16944TIP3    H172323   1.338   2.320   5.301 -1.0922 -0.5645 -0.2715
16944TIP3    H272324   1.427   2.402   5.393 -0.9888 -2.5384  1.4077
16945TIP3   OH272325   6.201   2.541   2.647  0.3037 -0.2573 -0.6099
16945TIP3    H172326   6.274   2.589   2.686  0.3637 -1.6238  1.0269
16945TIP3    H272327   6.141   2.609   2.617  0.3466  0.8727  1.7366
16946TIP3   OH272328   5.973   1.356   5.642 -0.0791 -0.7665 -0.0039
16946TIP3    H172329   5.970   1.444   5.679 -0.7741 -1.7845  2.4853
16946TIP3    H272330   6.033   1.308   5.700 -2.9946 -3.0257  1.2910
16947TIP3   OH272331   5.597   6.623   2.455  0.2644 -0.2946 -0.2291
16947TIP3    H172332   5.548   6.601   2.375  0.7667  0.4503 -0.7496
16947TIP3    H272333   5.642   6.542   2.479 -1.8769 -1.2327  0.7414
16948TIP3   OH272334   4.061   2.715   5.547  0.4325 -0.3883  0.3400
16948TIP3    H172335   4.046   2.738   5.638 -0.1208  0.6866 -0.0052
16948TIP3    H272336   4.057   2.799   5.500  0.1634 -0.9843 -0.7330
16949TIP3   OH272337   4.881   1.504   1.712 -0.1589 -0.4206 -0.0718
16949TIP3    H172338   4.863   1.412   1.693 -1.5741 -0.5873  1.8854
16949TIP3    H272339   4.799   1.549   1.694  0.0159  0.1912  0.6144
16950TIP3   OH272340   1.614   3.540   6.059  0.5331 -0.0684  0.1493
16950TIP3    H172341   1.632   3.446   6.070 -1.2617 -0.5025 -0.4451
16950TIP3    H272342   1.645   3.560   5.971  2.6263  0.3456  0.9510
16951TIP3   OH272343   6.819   3.667  16.508 -0.0608 -0.5622  0.3952
16951TIP3    H172344   6.820   3.746  16.563  0.8230 -2.1789  2.7805
16951TIP3    H272345   6.864   3.694  16.428  2.4657  0.7390  2.1527
16952TIP3   OH272346   4.914   1.480   2.948  0.6913 -0.1736  0.1454
16952TIP3    H172347   4.942   1.571   2.961 -1.1064  0.3274  0.6737
16952TIP3    H272348   4.966   1.449   2.874  1.9127  1.0195  0.4854
16953TIP3   OH272349   5.091   2.943  13.423  0.2139  0.3496 -1.0526
16953TIP3    H172350   5.125   3.032  13.432 -0.1029  0.4662 -1.0115
16953TIP3    H272351   5.144   2.891  13.482  0.2312  0.5560 -0.8861
16954TIP3   OH272352   5.843   4.882   0.530 -0.1401  0.1228 -0.2974
16954TIP3    H172353   5.775   4.868   0.596  0.0622  1.4068  0.2125
16954TIP3    H272354   5.914   4.925   0.578  0.3861  0.2340 -1.1610
16955TIP3   OH272355   5.113   3.756  13.536 -0.0802 -0.3403  0.0758
16955TIP3    H172356   5.131   3.682  13.592  0.0358 -0.5134 -0.1875
16955TIP3    H272357   5.071   3.821  13.593 -0.3445 -0.6769  0.2643
16956TIP3   OH272358   4.284   0.873  14.008 -0.1639 -0.5722  0.1132
16956TIP3    H172359   4.245   0.805  14.064  0.0013  0.6771  1.7733
16956TIP3    H272360   4.213   0.899  13.949 -0.3381 -1.8950 -0.2914
16957TIP3   OH272361   3.565   6.045   0.556 -0.0488  0.5541  0.1730
16957TIP3    H172362   3.478   6.061   0.520 -0.2614  0.1360  0.5103
16957TIP3    H272363   3.622   6.042   0.479 -0.3492  0.6975 -0.0556
16958TIP3   OH272364   1.579   3.939   1.815 -0.3945  0.5963  0.2135
16958TIP3    H172365   1.662   3.892   1.811 -0.5424  0.3375  0.1538
16958TIP3    H272366   1.602   4.027   1.843 -0.1554  0.3909  0.6621
16959TIP3   OH272367   3.895   2.170   5.541 -0.7357 -0.1348 -0.7591
16959TIP3    H172368   3.972   2.136   5.493 -3.1350 -2.6911 -2.9824
16959TIP3    H272369   3.873   2.251   5.496  1.2482  1.1633  0.5466
16960TIP3   OH272370   4.581   3.663   4.659  0.6010 -0.0407  0.2992
16960TIP3    H172371   4.549   3.748   4.689 -0.8884 -0.1749 -0.8673
16960TIP3    H272372   4.554   3.658   4.567  1.4978 -1.3770  0.0960
16961TIP3   OH272373   3.705   0.453  11.846 -0.3295  0.6434 -0.1586
16961TIP3    H172374   3.627   0.435  11.898  0.0346  1.3875  0.6546
16961TIP3    H272375   3.690   0.539  11.807 -0.4067  0.2856 -0.9398
16962TIP3   OH272376   3.532   4.642  10.182 -0.1308 -0.1705  0.0737
16962TIP3    H172377   3.544   4.697  10.259 -0.8626  1.3642 -0.8724
16962TIP3    H272378   3.440   4.655  10.159 -0.4245 -2.1577  0.0938
16963TIP3   OH272379   3.017   3.781   2.646 -0.1884 -0.1511 -0.4530
16963TIP3    H172380   3.112   3.781   2.655 -0.3735 -3.4390  2.5842
16963TIP3    H272381   2.985   3.789   2.735 -2.7188 -2.5706 -1.0914
16964TIP3   OH272382   4.778   4.522  15.185 -0.5599 -0.0701  0.1372
16964TIP3    H172383   4.745   4.466  15.255 -0.2190  2.5946  2.5142
16964TIP3    H272384   4.864   4.485  15.164 -0.3764 -0.5200  1.5926
16965TIP3   OH272385   3.776   2.185   4.047  0.3821 -0.8969  0.6973
16965TIP3    H172386   3.833   2.155   4.117  1.1372  0.9846  0.8867
16965TIP3    H272387   3.689   2.190   4.087  0.4208 -1.8160  0.9239
16966TIP3   OH272388   6.382   3.877  13.597  0.0811  0.3674  0.0631
16966TIP3    H172389   6.476   3.890  13.610  0.0883  0.8366 -0.4301
16966TIP3    H272390   6.341   3.947  13.649  0.0316  0.6291 -0.3233
16967TIP3   OH272391   3.145   5.665  16.679  0.4567  0.0909 -0.3084
16967TIP3    H172392   3.129   5.750  16.720 -0.6049 -0.2639  0.0494
16967TIP3    H272393   3.106   5.602  16.740  0.9156 -0.6185 -0.7472
16968TIP3   OH272394   0.123   6.226  12.267 -0.4507 -0.2269  0.5761
16968TIP3    H172395   0.119   6.302  12.209 -0.4285  1.0777  2.2487
16968TIP3    H272396   0.172   6.161  12.218 -1.4738  0.4200 -1.3534
16969TIP3   OH272397   3.398   3.909   4.354  0.8574  0.1426 -0.2901
16969TIP3    H172398   3.339   3.967   4.306 -0.4501  0.3117  1.4898
16969TIP3    H272399   3.348   3.828   4.365  0.4841  0.6889  2.2307
16970TIP3   OH272400   0.031   3.183  12.943 -0.7670  0.2041 -0.1958
16970TIP3    H172401   0.011   3.162  12.852 -0.2179 -0.6650 -0.1196
16970TIP3    H272402  -0.051   3.220  12.977 -1.1790 -0.0860 -0.8534
16971TIP3   OH272403   1.748   0.579  10.897  1.0120  0.6735 -0.3779
16971TIP3    H172404   1.664   0.600  10.856 -0.6355 -0.2886  2.3503
16971TIP3    H272405   1.783   0.665  10.923 -0.0668  0.9560  0.1861
16972TIP3   OH272406   0.503   3.433   2.685 -0.0100 -0.3627  0.1041
16972TIP3    H172407   0.413   3.403   2.678 -0.4395  0.6023  1.2586
16972TIP3    H272408   0.499   3.526   2.663  0.6097 -0.1898  0.6768
16973TIP3   OH272409   0.958   3.127   2.272  0.1667 -0.2470  0.9436
16973TIP3    H172410   0.999   3.208   2.243 -3.0146  1.5188  1.1386
16973TIP3    H272411   0.941   3.079   2.192 -1.3176  0.9878  0.5005
16974TIP3   OH272412   4.376   2.381   0.658 -0.4428 -0.0560 -0.1063
16974TIP3    H172413   4.390   2.468   0.695 -0.0977 -0.5280  0.8950
16974TIP3    H272414   4.307   2.393   0.594  0.8397  1.3026 -1.2622
16975TIP3   OH272415   3.969   0.954   4.157 -0.6435  0.6977 -0.1848
16975TIP3    H172416   3.942   0.872   4.198 -1.3733  0.7942 -0.4692
16975TIP3    H272417   3.939   0.947   4.066  0.1136  0.8893 -0.4578
16976TIP3   OH272418   6.681   5.355   1.519  0.1080 -0.3753  0.7943
16976TIP3    H172419   6.648   5.299   1.449  1.0822  0.3856 -0.2940
16976TIP3    H272420   6.605   5.407   1.546 -0.2912 -0.7375  0.3565
16977TIP3   OH272421   3.989   2.153   2.140 -0.4441  0.1674 -0.2674
16977TIP3    H172422   4.050   2.206   2.088 -1.4396 -0.1714 -1.8245
16977TIP3    H272423   3.904   2.167   2.098 -1.0309 -1.1775  0.4534
16978TIP3   OH272424   3.853   3.659   1.046  0.2515 -0.5856 -0.2707
16978TIP3    H172425   3.834   3.565   1.051  1.1241 -0.7452  0.0495
16978TIP3    H272426   3.785   3.694   0.988 -0.1385 -1.3988 -0.3079
16979TIP3   OH272427   5.171   4.720   1.150  0.3344 -0.8269  0.4404
16979TIP3    H172428   5.225   4.726   1.071 -0.6838  0.0642 -0.2161
16979TIP3    H272429   5.226   4.754   1.220 -0.2585  2.7100 -0.6921
16980TIP3   OH272430   3.703   3.217   2.560 -0.1788 -0.3171  0.0936
16980TIP3    H172431   3.692   3.213   2.655 -0.0410  0.0954  0.1265
16980TIP3    H272432   3.686   3.128   2.531 -0.7664 -0.3196  0.4473
16981TIP3   OH272433   5.312   6.475   6.229 -0.5909 -0.3653  0.1545
16981TIP3    H172434   5.235   6.530   6.239  0.5681  1.3672 -0.2350
16981TIP3    H272435   5.319   6.426   6.311 -3.1047 -1.8716 -0.4961
16982TIP3   OH272436   4.151   6.368  13.015 -0.2730 -0.1795 -0.4059
16982TIP3    H172437   4.187   6.296  12.962 -2.8036 -1.1410 -0.9000
16982TIP3    H272438   4.108   6.324  13.088  1.1106  1.0423  1.1732
16983TIP3   OH272439   4.308   0.787   5.463  0.1339 -0.7399 -0.0962
16983TIP3    H172440   4.362   0.849   5.514  0.5726 -0.1909 -1.2133
16983TIP3    H272441   4.226   0.834   5.448  0.5394 -0.3426 -1.1115
16984TIP3   OH272442   4.284   2.653   5.065 -0.4541  0.0696 -0.5365
16984TIP3    H172443   4.301   2.628   4.974  0.6200 -1.5728  0.0864
16984TIP3    H272444   4.277   2.748   5.064 -0.7228  0.0381 -2.3796
16985TIP3   OH272445   0.532   5.504   2.785 -0.3639  0.5699  0.2342
16985TIP3    H172446   0.507   5.567   2.853 -2.9462  0.2362 -0.3326
16985TIP3    H272447   0.627   5.498   2.791 -0.4199  1.6089  2.8691
16986TIP3   OH272448   0.087   2.187  14.245  0.4389 -0.1525 -0.4454
16986TIP3    H172449  -0.008   2.177  14.245  0.4721 -0.4651  0.1764
16986TIP3    H272450   0.107   2.230  14.161 -0.4418  1.7340  0.3038
16987TIP3   OH272451   5.287   6.667   3.127  0.1401 -0.0673 -0.1564
16987TIP3    H172452   5.217   6.629   3.073 -0.5623  1.7485 -0.5333
16987TIP3    H272453   5.365   6.619   3.100 -0.1390  0.9818 -3.0408
16988TIP3   OH272454   6.188   3.171  15.564  0.2399  0.3713  0.8226
16988TIP3    H172455   6.202   3.259  15.530 -1.7485  0.1716 -0.5710
16988TIP3    H272456   6.111   3.179  15.620 -0.2966 -0.5936  0.2327
16989TIP3   OH272457   1.260   1.270  11.040  0.0190 -0.1106 -0.0408
16989TIP3    H172458   1.189   1.261  10.977 -0.8978 -0.6279  1.0467
16989TIP3    H272459   1.306   1.350  11.013 -1.5926  0.7940 -0.1531
16990TIP3   OH272460   2.945   3.584  16.078  0.5995  0.1829 -0.6014
16990TIP3    H172461   2.900   3.651  16.026  1.0865  0.5767 -0.5212
16990TIP3    H272462   2.988   3.632  16.149 -0.2536 -0.3792  0.3097
16991TIP3   OH272463   1.173   2.177   4.905  0.7230  0.0360 -0.0070
16991TIP3    H172464   1.153   2.117   4.833 -0.3215 -0.3746  0.6263
16991TIP3    H272465   1.184   2.121   4.982 -0.6763  0.6632  0.6755
16992TIP3   OH272466   3.790   2.048  15.075 -0.2661 -0.2111 -0.5939
16992TIP3    H172467   3.721   2.111  15.093  0.9641  0.4827  1.9270
16992TIP3    H272468   3.776   2.022  14.984 -1.9063  2.2827 -1.0924
16993TIP3   OH272469   1.006   6.020   5.232  0.9628 -0.5630 -0.4515
16993TIP3    H172470   1.027   6.009   5.139 -0.2611 -2.8074 -0.5063
16993TIP3    H272471   0.930   5.963   5.246  1.3062 -0.4573  1.9799
16994TIP3   OH272472   4.577   6.035  11.104  0.1074  0.1953 -0.6976
16994TIP3    H172473   4.575   5.963  11.041  0.1669 -0.7283  0.3433
16994TIP3    H272474   4.506   6.093  11.077 -1.5101 -1.4790 -0.1194
16995TIP3   OH272475   1.099   3.398   3.117 -0.1676  0.5636 -0.0320
16995TIP3    H172476   1.048   3.434   3.189 -1.5635  1.4275 -1.4180
16995TIP3    H272477   1.125   3.311   3.148 -2.5780  0.0451  0.7034
16996TIP3   OH272478   6.071   3.857   2.277 -0.2314  0.2772 -0.7806
16996TIP3    H172479   6.013   3.883   2.348  1.4426  0.1834  0.6773
16996TIP3    H272480   6.102   3.770   2.303 -0.0688 -0.0083 -1.9177
16997TIP3   OH272481   4.101   6.737   5.447  0.3328 -0.2929  0.0943
16997TIP3    H172482   4.036   6.692   5.394  0.7605 -1.7966  0.8298
16997TIP3    H272483   4.182   6.687   5.433  0.3994 -0.8567  2.3349
16998TIP3   OH272484   2.033   1.318  15.693 -0.1338  0.3082 -0.1561
16998TIP3    H172485   1.967   1.291  15.629 -0.4428  0.3429  0.1477
16998TIP3    H272486   1.983   1.345  15.770  0.2444  0.0742  0.1752
16999TIP3   OH272487   3.078   2.087  13.260 -0.1197 -0.0006  0.4267
16999TIP3    H172488   3.122   2.004  13.246 -0.3046 -0.0003 -0.1675
16999TIP3    H272489   3.103   2.141  13.185  0.1247  0.5310  0.8842
17000TIP3   OH272490   5.936   2.948   1.236 -0.0726 -0.5897 -0.1287
17000TIP3    H172491   6.008   2.933   1.175 -0.3533  0.7584 -0.8306
17000TIP3    H272492   5.900   2.861   1.254  0.3384 -1.0520 -1.4994
17001TIP3   OH272493   3.692   3.800  12.978 -1.0270 -0.2013 -0.1860
17001TIP3    H172494   3.739   3.740  13.036 -0.8003 -0.4470 -0.6162
17001TIP3    H272495   3.671   3.746  12.901 -0.0411  0.5049 -0.9606
17002TIP3   OH272496   5.394   6.814  15.901 -0.4176  0.0320 -0.0473
17002TIP3    H172497   5.468   6.848  15.951  0.3731  2.1717 -2.5459
17002TIP3    H272498   5.318   6.831  15.956  0.8044 -1.0731  2.0196
17003TIP3   OH272499   1.275   4.193   0.993 -0.1088 -0.0739  0.1842
17003TIP3    H172500   1.273   4.286   1.016  2.8600 -0.2385  1.2678
17003TIP3    H272501   1.366   4.176   0.970 -0.9487 -2.3718 -1.5559
17004TIP3   OH272502   1.694   5.230   1.754 -0.0721 -0.0924  0.5660
17004TIP3    H172503   1.777   5.237   1.707 -0.0837 -1.6402  0.3061
17004TIP3    H272504   1.627   5.241   1.686 -0.0820 -0.1998  0.5582
17005TIP3   OH272505   3.103   0.076  12.757 -0.2076  0.1415  0.7735
17005TIP3    H172506   3.098  -0.012  12.718  0.8029  0.1788  0.5432
17005TIP3    H272507   3.184   0.075  12.808  1.0406  1.6611 -1.0695
17006TIP3   OH272508   5.453   1.382   4.498 -0.2218  0.2897 -0.4333
17006TIP3    H172509   5.426   1.340   4.416 -1.3094 -2.5363  1.3080
17006TIP3    H272510   5.375   1.428   4.528 -0.0177  0.7568 -0.6043
17007TIP3   OH272511   3.366   3.691  13.824  0.1774 -0.2985 -0.1265
17007TIP3    H172512   3.325   3.770  13.791  0.7104 -0.4055 -1.0874
17007TIP3    H272513   3.323   3.673  13.908 -2.4676 -1.0114 -1.6018
17008TIP3   OH272514   2.393   0.388   5.557 -0.7789  0.3624  0.1911
17008TIP3    H172515   2.303   0.364   5.534 -0.6426  0.5163 -0.5063
17008TIP3    H272516   2.415   0.460   5.498 -0.3214  0.5633  0.6038
17009TIP3   OH272517   1.021   1.925   0.778  0.0171  0.0685 -0.3317
17009TIP3    H172518   1.023   1.849   0.720 -0.7502  0.0753 -0.3810
17009TIP3    H272519   1.112   1.942   0.800  0.2316 -0.5392 -0.7514
17010TIP3   OH272520   2.550   1.545   2.357  0.5093  0.0804  0.2971
17010TIP3    H172521   2.563   1.583   2.444  1.6082  0.1414  0.1217
17010TIP3    H272522   2.468   1.498   2.363 -0.0439  1.1082  1.0150
17011TIP3   OH272523   2.880   1.020   2.540  0.2195 -0.1707 -0.4313
17011TIP3    H172524   2.816   1.074   2.585  0.8072  0.7761 -0.7030
17011TIP3    H272525   2.848   0.930   2.550 -0.0530  0.0915  1.2150
17012TIP3   OH272526   5.408   2.048   6.013 -0.2355  0.6190 -0.0596
17012TIP3    H172527   5.499   2.029   5.988 -0.5844 -1.2478 -0.0106
17012TIP3    H272528   5.384   2.124   5.960  0.8915  0.2296 -1.1604
17013TIP3   OH272529   1.352   1.949   4.801  0.2551 -0.2940 -0.0056
17013TIP3    H172530   1.351   1.854   4.806  0.3969 -0.1865  3.1183
17013TIP3    H272531   1.372   1.978   4.890 -1.8137  2.6920 -0.4019
17014TIP3   OH272532   0.257   6.529  13.990  0.1977 -0.1860  0.0483
17014TIP3    H172533   0.312   6.489  13.923  1.8607  1.6431  0.3033
17014TIP3    H272534   0.168   6.525  13.953  1.0466  0.5245 -2.1288
17015TIP3   OH272535   4.348   0.377  11.741  0.0801 -0.2687  0.0479
17015TIP3    H172536   4.342   0.449  11.678  0.7883  0.2585  0.5712
17015TIP3    H272537   4.425   0.327  11.713 -0.3425 -0.7688 -0.2458
17016TIP3   OH272538   2.339   1.737   3.036 -0.1123 -0.5068  0.4535
17016TIP3    H172539   2.427   1.699   3.030 -0.3835 -1.1913  0.7034
17016TIP3    H272540   2.345   1.801   3.107  0.2369 -0.4011  0.3298
17017TIP3   OH272541   6.627   4.799  11.833 -0.3959 -0.1838 -0.1731
17017TIP3    H172542   6.676   4.876  11.804 -0.5573 -0.5934 -1.5957
17017TIP3    H272543   6.689   4.752  11.889 -0.4111  1.1353  0.9709
17018TIP3   OH272544   6.325   3.039   0.710  0.3746  0.6083  0.5578
17018TIP3    H172545   6.398   2.978   0.723  0.1668  0.4785  1.1096
17018TIP3    H272546   6.257   2.987   0.667 -0.1054  0.2479  1.7557
17019TIP3   OH272547   1.071   2.454   0.590 -0.4134  0.3171 -0.0280
17019TIP3    H172548   1.129   2.387   0.626  0.7906  0.9507 -0.7102
17019TIP3    H272549   1.011   2.476   0.661  0.6256  0.1251  0.9225
17020TIP3   OH272550   6.237   0.529  13.637 -0.5205 -0.2121  0.2315
17020TIP3    H172551   6.179   0.454  13.648  0.8058 -1.3338 -0.2516
17020TIP3    H272552   6.181   0.605  13.652 -1.7301 -1.3108  1.4183
17021TIP3   OH272553   6.327   6.047  15.613  0.3654 -0.3436 -0.9512
17021TIP3    H172554   6.316   6.138  15.641  0.4880 -0.9126  1.0131
17021TIP3    H272555   6.294   6.045  15.523  2.0832  2.0271 -1.6500
17022TIP3   OH272556   6.634   5.739   5.837 -0.1582 -0.1802  0.2643
17022TIP3    H172557   6.617   5.683   5.761 -2.1256  1.6488 -0.6840
17022TIP3    H272558   6.556   5.793   5.845  1.8576  2.7758  0.8686
17023TIP3   OH272559   1.183   3.228  16.523 -0.5225  0.2908  0.6475
17023TIP3    H172560   1.172   3.322  16.510  0.8377  0.4194  0.2936
17023TIP3    H272561   1.202   3.218  16.616 -1.2434  0.2966  0.8007
17024TIP3   OH272562   4.025   1.311  13.056 -0.1232 -0.4871  0.1932
17024TIP3    H172563   3.985   1.246  13.114 -1.8537 -0.6009 -1.1013
17024TIP3    H272564   3.953   1.366  13.028  1.3664  2.2190  1.4957
17025TIP3   OH272565   3.517   4.624  11.314  0.1190  0.4171  0.2573
17025TIP3    H172566   3.588   4.606  11.377  0.2136  2.5468  0.7992
17025TIP3    H272567   3.554   4.600  11.229  0.6280 -0.7769  0.7948
17026TIP3   OH272568   2.356   0.465  12.764  0.5602  0.2040  0.2017
17026TIP3    H172569   2.374   0.374  12.786  0.0838  0.2555  0.8216
17026TIP3    H272570   2.309   0.461  12.680  0.1346 -0.1544  0.4510
17027TIP3   OH272571   4.483   3.267  14.161 -0.2263 -0.5236 -0.2186
17027TIP3    H172572   4.443   3.182  14.141  0.4778 -0.8814 -0.1265
17027TIP3    H272573   4.409   3.325  14.179 -0.7180 -1.0728 -0.4649
17028TIP3   OH272574   2.078   2.180   0.053 -0.3976  0.6095 -0.2791
17028TIP3    H172575   2.074   2.234   0.132  0.4743  0.5543 -0.1942
17028TIP3    H272576   2.160   2.131   0.062 -1.2835 -0.8892 -0.2510
17029TIP3   OH272577   6.361   5.157   1.402 -0.2118 -0.3172  0.6437
17029TIP3    H172578   6.274   5.124   1.382  0.5493 -1.1504 -1.4599
17029TIP3    H272579   6.421   5.088   1.373  1.2687  1.4679 -0.6821
17030TIP3   OH272580   3.831   6.467   2.899  0.2983 -0.0915 -0.5770
17030TIP3    H172581   3.826   6.549   2.849  0.1261 -0.5348 -1.2971
17030TIP3    H272582   3.842   6.495   2.990 -0.4137  0.7393 -0.7379
17031TIP3   OH272583   4.877   5.620   3.296  0.4890  0.1418 -0.4888
17031TIP3    H172584   4.867   5.714   3.282 -3.4754 -0.4992 -2.6863
17031TIP3    H272585   4.845   5.605   3.385 -0.3032  0.6632 -0.6876
17032TIP3   OH272586   1.548   0.797   3.217 -0.0942 -0.3097 -0.3718
17032TIP3    H172587   1.478   0.739   3.247 -1.1601  1.9248  1.6342
17032TIP3    H272588   1.532   0.806   3.123 -1.7031 -0.8825 -0.1743
17033TIP3   OH272589   1.411   2.114   3.427  0.6085 -0.4430  0.1584
17033TIP3    H172590   1.447   2.199   3.401 -0.7392  0.5394  1.4197
17033TIP3    H272591   1.487   2.061   3.449  1.3576  1.2257  1.6718
17034TIP3   OH272592   5.241   0.103   5.476 -0.0768  0.3646 -0.0772
17034TIP3    H172593   5.310   0.110   5.542 -0.2788  0.6526  0.1017
17034TIP3    H272594   5.163   0.135   5.519 -0.7427 -1.7122  0.3173
17035TIP3   OH272595   5.110   1.853   6.414  0.3766  0.1435 -0.5922
17035TIP3    H172596   5.026   1.856   6.460  0.2926 -0.7175 -0.6839
17035TIP3    H272597   5.128   1.944   6.391 -0.6528  0.3008 -0.7919
17036TIP3   OH272598   3.894   1.097   1.817  0.3437 -0.2177 -0.7795
17036TIP3    H172599   3.990   1.091   1.809  0.2937 -2.6865  0.1487
17036TIP3    H272600   3.870   1.021   1.871 -2.1473  0.3756 -1.0271
17037TIP3   OH272601   3.307   5.973  16.099  0.3088  0.3601 -0.4972
17037TIP3    H172602   3.218   6.001  16.123 -0.1009 -1.4463  0.1653
17037TIP3    H272603   3.363   6.012  16.166 -0.1148  0.5822 -0.2693
17038TIP3   OH272604   4.722   3.037   2.111  0.3099 -0.5545 -0.5520
17038TIP3    H172605   4.705   3.120   2.156 -0.0541 -0.2817 -1.1897
17038TIP3    H272606   4.808   3.010   2.143  0.7998  0.4926 -0.9815
17039TIP3   OH272607   4.627   3.591  16.717 -0.1086  0.0355  0.0678
17039TIP3    H172608   4.707   3.597  16.665 -0.2256  0.3218 -0.0804
17039TIP3    H272609   4.589   3.507  16.694 -0.8122  0.6972 -1.2607
17040TIP3   OH272610   1.887   3.790   1.418  0.2956 -0.0051 -0.0339
17040TIP3    H172611   1.873   3.871   1.369  0.2663 -1.9046 -3.3429
17040TIP3    H272612   1.807   3.779   1.469 -0.2616  1.3831 -0.5704
17041TIP3   OH272613   5.289   0.513  12.935 -0.0247 -0.0410 -0.0592
17041TIP3    H172614   5.372   0.535  12.893 -0.1461  2.3590  0.8521
17041TIP3    H272615   5.269   0.589  12.990 -2.0732 -1.2205  0.8968
17042TIP3   OH272616   0.348   5.294   0.555 -0.7105 -0.3672  0.0016
17042TIP3    H172617   0.441   5.285   0.535 -0.3497 -0.0015  1.4964
17042TIP3    H272618   0.307   5.307   0.470  0.7725  0.8603 -0.5564
17043TIP3   OH272619   0.849   0.546   5.169  0.2222 -0.2508 -0.4130
17043TIP3    H172620   0.866   0.640   5.175  0.4592 -0.3842  0.9974
17043TIP3    H272621   0.896   0.508   5.243 -2.5809 -1.0926  1.0086
17044TIP3   OH272622   5.421   3.454   2.167  0.4088  0.0634 -0.5289
17044TIP3    H172623   5.440   3.524   2.105  2.0131  0.6891  0.6158
17044TIP3    H272624   5.481   3.383   2.143  0.0227 -0.2467 -0.5892
17045TIP3   OH272625   3.679   1.757   3.040  0.4617  0.0175 -0.3857
17045TIP3    H172626   3.763   1.802   3.032  1.1046 -1.6611 -4.5661
17045TIP3    H272627   3.624   1.797   2.972  0.2886 -3.6737 -2.5946
17046TIP3   OH272628   0.827   4.271   5.178 -0.2085 -0.3114  0.3579
17046TIP3    H172629   0.893   4.289   5.245 -1.0741  0.0945  1.1244
17046TIP3    H272630   0.774   4.200   5.216  1.1259 -2.2058 -1.1979
17047TIP3   OH272631   2.828   5.358  15.851  0.2264  0.2903 -0.2638
17047TIP3    H172632   2.747   5.314  15.825  0.4809 -0.4902  0.2706
17047TIP3    H272633   2.863   5.305  15.923  1.5021  0.3084 -0.8545
17048TIP3   OH272634   4.085   1.169  15.088  0.2885  0.4975  0.0269
17048TIP3    H172635   4.038   1.089  15.063 -1.9835  2.7924 -3.5655
17048TIP3    H272636   4.030   1.209  15.154  0.1159  0.3552 -0.0287
17049TIP3   OH272637   0.939   3.854  11.962  0.0519  0.5740 -0.1009
17049TIP3    H172638   0.923   3.941  11.998  2.1283 -0.0034  2.3464
17049TIP3    H272639   0.896   3.795  12.024  0.0230 -0.2227 -0.8757
17050TIP3   OH272640   2.334   6.167   3.165  0.0993 -0.0875 -0.4012
17050TIP3    H172641   2.259   6.139   3.217  0.7444  0.2007  0.7079
17050TIP3    H272642   2.322   6.262   3.156 -0.5091 -0.2700 -1.5992
17051TIP3   OH272643   1.269   2.057  12.117 -0.3355  0.2398  0.1337
17051TIP3    H172644   1.311   2.048  12.202  0.3069 -0.0559 -0.2096
17051TIP3    H272645   1.306   2.137  12.080 -0.0962 -0.0052 -0.1571
17052TIP3   OH272646   4.558   4.603   2.594  0.7745 -0.3901 -0.1951
17052TIP3    H172647   4.470   4.640   2.603  0.4125 -1.0523 -0.9811
17052TIP3    H272648   4.547   4.510   2.614  1.4103 -0.3670  0.2856
17053TIP3   OH272649   1.087   0.793  15.073  0.2129  0.5674  0.2184
17053TIP3    H172650   1.020   0.826  15.133 -0.1271  1.0026 -0.3924
17053TIP3    H272651   1.038   0.749  15.004  0.4841  1.7786 -0.7801
17054TIP3   OH272652   4.718   2.303  13.863 -0.7018  0.0398 -0.1296
17054TIP3    H172653   4.702   2.357  13.940  1.0717 -1.6201  1.4583
17054TIP3    H272654   4.645   2.242  13.860 -1.3814  0.8617 -0.4572
17055TIP3   OH272655   1.314   1.827   0.433 -0.0253 -0.0600 -0.0924
17055TIP3    H172656   1.345   1.917   0.426  4.8099 -1.5640 -0.1293
17055TIP3    H272657   1.320   1.807   0.526 -1.7435 -0.1746  0.0103
17056TIP3   OH272658   4.680   5.442   4.454  0.1121  0.1688  0.4150
17056TIP3    H172659   4.611   5.484   4.506  1.8106  1.1600  1.9199
17056TIP3    H272660   4.721   5.515   4.406  1.1159 -0.1894  0.7208
17057TIP3   OH272661   6.013   4.882   5.813 -0.4841  0.3117 -0.7796
17057TIP3    H172662   5.971   4.799   5.836  1.0306 -0.5320 -1.0072
17057TIP3    H272663   6.045   4.870   5.724  0.1929  0.9547 -0.6354
17058TIP3   OH272664   2.891   4.293   3.336 -0.6862 -0.2842 -0.3029
17058TIP3    H172665   2.809   4.243   3.341 -1.0831  0.3033 -0.8063
17058TIP3    H272666   2.878   4.364   3.399 -1.4032  0.9917 -1.8422
17059TIP3   OH272667   1.023   2.457   1.162  0.0406 -0.7487  0.6598
17059TIP3    H172668   1.090   2.422   1.103 -0.8385 -1.0974 -0.1414
17059TIP3    H272669   0.949   2.476   1.105 -0.3667  0.1191  1.4674
17060TIP3   OH272670   2.743   6.426  11.237 -0.4973  0.2977 -0.5360
17060TIP3    H172671   2.662   6.437  11.286 -1.3270 -0.0991 -1.8137
17060TIP3    H272672   2.767   6.515  11.210 -1.0312  0.3138 -0.9741
17061TIP3   OH272673   0.384   6.678  14.413 -0.0334 -0.5630 -0.0723
17061TIP3    H172674   0.307   6.727  14.385  0.4905  0.2450 -0.1244
17061TIP3    H272675   0.435   6.665  14.333  0.4885  0.0036  0.1588
17062TIP3   OH272676   4.059   3.656  15.424  0.6043  0.3751  0.5025
17062TIP3    H172677   4.084   3.578  15.375  1.5880  0.2775  1.1455
17062TIP3    H272678   3.995   3.700  15.368 -0.2390 -1.0778  0.3159
17063TIP3   OH272679   5.839   6.613   2.661  0.3655  0.2741 -0.1693
17063TIP3    H172680   5.784   6.544   2.624 -0.8236  0.5854  0.9491
17063TIP3    H272681   5.914   6.619   2.603  0.8868 -2.5173  0.1574
17064TIP3   OH272682   2.070   6.531   2.870 -0.0892  0.5582  0.0762
17064TIP3    H172683   1.986   6.567   2.898 -0.7266  0.0123 -1.1065
17064TIP3    H272684   2.051   6.439   2.851 -0.1156  1.2843 -3.8726
17065TIP3   OH272685   4.237   4.716  13.304  0.0602  0.0299 -0.4267
17065TIP3    H172686   4.235   4.628  13.266 -2.6162  0.3055 -1.0815
17065TIP3    H272687   4.309   4.760  13.259 -0.4069 -0.9530 -2.1968
17066TIP3   OH272688   1.714   4.828  13.017 -0.5313 -1.2037 -0.0335
17066TIP3    H172689   1.770   4.904  13.031 -0.4045 -1.7007  2.4564
17066TIP3    H272690   1.737   4.796  12.930 -0.6375  1.6122 -1.1367
17067TIP3   OH272691   4.266   2.550   2.140  0.0979 -0.2593  0.0347
17067TIP3    H172692   4.355   2.585   2.136  0.3872 -0.8834  0.8686
17067TIP3    H272693   4.278   2.455   2.148 -0.6291 -0.2966  0.7618
17068TIP3   OH272694   2.790   0.520  12.874 -0.0839 -0.2059 -0.1761
17068TIP3    H172695   2.884   0.519  12.859  0.2431 -0.1097  1.6511
17068TIP3    H272696   2.761   0.430  12.861  0.7488 -0.8106  1.8680
17069TIP3   OH272697   2.387   0.823   4.055 -0.2705 -0.4783 -0.4210
17069TIP3    H172698   2.339   0.830   4.137  1.9264  2.5289  0.7014
17069TIP3    H272699   2.352   0.893   4.000  0.3094 -0.5947 -0.9479
17070TIP3   OH272700   6.407   0.860   6.554 -0.2849 -0.4792 -0.7131
17070TIP3    H172701   6.489   0.910   6.558  0.1889 -1.1830 -1.5150
17070TIP3    H272702   6.414   0.797   6.626 -1.4585  1.4338  1.1463
17071TIP3   OH272703   1.503   3.313  15.826 -0.1324 -0.4557 -0.1078
17071TIP3    H172704   1.421   3.361  15.829 -0.5218 -1.1393  0.2687
17071TIP3    H272705   1.521   3.302  15.733 -0.7331 -0.7642 -0.1872
17072TIP3   OH272706   6.423   3.495   6.338  0.2272  0.1612  0.5017
17072TIP3    H172707   6.376   3.551   6.400 -0.2796  1.6796 -1.1898
17072TIP3    H272708   6.378   3.411   6.344 -0.8450  0.7514  1.0513
17073TIP3   OH272709   0.416   6.041   4.807  0.0080 -0.6130  0.8211
17073TIP3    H172710   0.405   6.033   4.902 -0.2089 -0.7564  0.7842
17073TIP3    H272711   0.366   6.120   4.785 -0.9744 -1.2711  0.6523
17074TIP3   OH272712   4.357   3.757   2.128 -0.2072 -0.6874  0.1376
17074TIP3    H172713   4.410   3.810   2.068  0.2514 -0.8418  0.4021
17074TIP3    H272714   4.410   3.752   2.208 -0.3361 -1.3811  0.1800
17075TIP3   OH272715   1.751   4.605  15.180 -0.4140  0.1519  0.2342
17075TIP3    H172716   1.705   4.564  15.107 -0.9225  0.8324  0.1666
17075TIP3    H272717   1.834   4.559  15.184 -1.0238 -0.9757  0.2431
17076TIP3   OH272718   3.639   2.643   4.689  0.4654 -0.0050  0.3865
17076TIP3    H172719   3.609   2.641   4.780  0.7411 -0.9397  0.4558
17076TIP3    H272720   3.632   2.735   4.664 -1.7859 -0.0911  0.6179
17077TIP3   OH272721   5.270   4.864  15.195 -0.0565 -0.0708  0.2458
17077TIP3    H172722   5.250   4.864  15.102 -1.0977  0.4703  0.4602
17077TIP3    H272723   5.279   4.771  15.218  0.2269 -0.1991 -0.3952
17078TIP3   OH272724   3.782   5.639  14.291  0.2615  0.5599  0.0047
17078TIP3    H172725   3.720   5.677  14.229  0.0151 -1.1233 -0.7960
17078TIP3    H272726   3.810   5.557  14.251  2.3943  0.8817  0.7228
17079TIP3   OH272727   4.157   3.369  14.394 -0.1696  0.2748  0.2061
17079TIP3    H172728   4.224   3.418  14.347  0.1614  1.3911  1.8087
17079TIP3    H272729   4.115   3.434  14.451  1.2311 -1.5470  3.4311
17080TIP3   OH272730   5.200   4.409  14.324 -0.3875  0.0187  0.0682
17080TIP3    H172731   5.257   4.448  14.390 -0.1303  0.4249 -0.3922
17080TIP3    H272732   5.119   4.459  14.329 -1.0676 -1.1729  1.3923
17081TIP3   OH272733   0.843   1.093  15.896 -0.0261 -0.0026 -0.4898
17081TIP3    H172734   0.789   1.063  15.822 -0.3349  1.7002 -0.9768
17081TIP3    H272735   0.916   1.030  15.899 -0.2038 -0.3194 -2.0263
17082TIP3   OH272736   4.935   6.470   0.803  0.7167 -0.2741 -0.0176
17082TIP3    H172737   4.941   6.375   0.801  0.3816 -0.2937 -0.2062
17082TIP3    H272738   4.857   6.488   0.857  1.1747 -0.0901  0.5845
17083TIP3   OH272739   3.341   4.651  14.896  0.1657 -0.2928 -0.0722
17083TIP3    H172740   3.254   4.664  14.859  0.2826 -1.9413 -0.9602
17083TIP3    H272741   3.388   4.731  14.873 -1.3337  0.9812  1.1397
17084TIP3   OH272742   3.038   2.127  15.888 -0.0642 -0.4956  0.3187
17084TIP3    H172743   3.057   2.106  15.797  1.6482  1.1564  0.2432
17084TIP3    H272744   2.977   2.060  15.917 -2.3983  0.2127 -2.6940
17085TIP3   OH272745   4.949   2.701  11.478  0.4299  0.3764  0.6474
17085TIP3    H172746   4.971   2.750  11.557  1.8422  0.0709  0.4435
17085TIP3    H272747   4.895   2.629  11.510  0.0220  0.9118  1.1897
17086TIP3   OH272748   0.373   3.219   5.799  0.4160 -0.2520  0.2350
17086TIP3    H172749   0.322   3.142   5.773 -0.2211  0.2915 -0.1196
17086TIP3    H272750   0.431   3.235   5.725 -0.0952  0.1651 -0.0773
17087TIP3   OH272751   4.996   6.087   2.807  0.2178 -0.5404 -0.2565
17087TIP3    H172752   5.091   6.081   2.821  0.3436 -0.4662 -1.0559
17087TIP3    H272753   4.958   6.033   2.876  0.8836 -1.4199 -0.5666
17088TIP3   OH272754   4.776   1.139  14.381 -0.0617  0.3567  0.0524
17088TIP3    H172755   4.785   1.174  14.469  0.6602 -3.4489  1.5931
17088TIP3    H272756   4.689   1.100  14.379  0.0691  0.1000 -0.8114
17089TIP3   OH272757   1.790   0.053   0.409 -0.0352 -0.2703  0.1270
17089TIP3    H172758   1.799  -0.031   0.362 -2.4103  0.0415 -0.9550
17089TIP3    H272759   1.784   0.028   0.501  1.0359 -1.1661 -0.0381
17090TIP3   OH272760   5.920   2.065  11.059  0.2220  0.5761 -0.6547
17090TIP3    H172761   5.904   2.016  11.139 -0.4797 -0.6061 -1.4968
17090TIP3    H272762   6.007   2.037  11.030 -0.2226 -0.2647 -1.1911
17091TIP3   OH272763   3.795   3.168  11.661  0.3465 -0.5803  0.8350
17091TIP3    H172764   3.854   3.105  11.619  0.8692  0.3589  0.1313
17091TIP3    H272765   3.712   3.121  11.670  0.6008 -1.2245 -0.0778
17092TIP3   OH272766   6.482   6.627   3.426  0.6499 -0.3657  0.1306
17092TIP3    H172767   6.532   6.546   3.426  0.0426 -0.7460 -0.6242
17092TIP3    H272768   6.549   6.696   3.419  1.1256 -0.8317  0.0595
17093TIP3   OH272769   1.714   1.535  15.225 -0.0295 -0.5350  0.1173
17093TIP3    H172770   1.655   1.460  15.236 -1.6554  0.8405  1.1667
17093TIP3    H272771   1.693   1.568  15.137 -1.1511  0.2056  0.6540
17094TIP3   OH272772   5.885   2.163  13.377  0.1528 -0.3734  0.1394
17094TIP3    H172773   5.803   2.202  13.345  1.1087  2.2832  0.7878
17094TIP3    H272774   5.921   2.117  13.301 -0.0321  1.7531 -1.2817
17095TIP3   OH272775   5.718   0.799  14.209  0.1781 -0.5634 -0.3982
17095TIP3    H172776   5.631   0.822  14.176 -0.5835 -1.0090  1.2518
17095TIP3    H272777   5.776   0.865  14.171 -1.4226  1.9686  1.4107
17096TIP3   OH272778   2.916   6.413   2.091  0.4976  0.5434 -0.1649
17096TIP3    H172779   2.991   6.471   2.079  1.8364 -0.4629  2.8634
17096TIP3    H272780   2.927   6.345   2.024  2.0653  0.6362 -0.0239
17097TIP3   OH272781   1.129   0.430   0.285 -0.2400  0.3524 -0.9084
17097TIP3    H172782   1.105   0.364   0.221  0.6878  1.3871 -2.3411
17097TIP3    H272783   1.058   0.429   0.349 -1.0446 -0.8524 -1.8115
17098TIP3   OH272784   4.205   6.439  13.702 -0.4247 -0.4183 -0.5176
17098TIP3    H172785   4.152   6.499  13.753  1.1978  1.4081 -0.9524
17098TIP3    H272786   4.228   6.488  13.623  0.3467 -1.8391 -1.1981
17099TIP3   OH272787   1.113   6.576  15.609  0.1475 -0.3057  0.3257
17099TIP3    H172788   1.182   6.594  15.546  0.3094 -0.8655  0.3430
17099TIP3    H272789   1.039   6.545  15.557  0.4774 -1.3393  0.4535
17100TIP3   OH272790   1.561   3.232   5.709  0.5300  0.1422 -0.0479
17100TIP3    H172791   1.516   3.256   5.790 -3.0176  0.1575 -1.9286
17100TIP3    H272792   1.619   3.160   5.734 -0.3379  0.2881  2.5316
17101TIP3   OH272793   2.226   1.569  16.495  0.0736 -0.0718 -0.6882
17101TIP3    H172794   2.178   1.498  16.452  0.5514 -0.4774 -0.5679
17101TIP3    H272795   2.301   1.525  16.535 -0.2113  0.3475  0.3038
17102TIP3   OH272796   5.743   3.443   0.990  0.5529  0.4830 -0.5512
17102TIP3    H172797   5.760   3.537   0.985 -0.0931  0.7078  1.1079
17102TIP3    H272798   5.649   3.437   1.007  0.6264 -0.4509 -0.4529
17103TIP3   OH272799   3.603   6.567  14.544 -0.4103  0.3088  0.4017
17103TIP3    H172800   3.659   6.623  14.490 -0.5410  0.7836  0.7532
17103TIP3    H272801   3.661   6.497  14.575 -0.9451 -1.6311 -2.6814
17104TIP3   OH272802   0.900   0.980  14.071 -0.6093  0.7497  0.5274
17104TIP3    H172803   0.896   1.060  14.019 -1.0557  1.8322  2.1922
17104TIP3    H272804   0.983   0.985  14.118 -0.8500  0.4657  0.9958
17105TIP3   OH272805   1.013   3.437  10.975  1.0881 -0.0912  0.1950
17105TIP3    H172806   1.014   3.355  11.023  0.8900 -0.5824 -0.6205
17105TIP3    H272807   0.952   3.493  11.024  0.1429 -0.9110 -0.0135
17106TIP3   OH272808   2.336   0.383   4.595 -0.2144 -0.1960 -0.4117
17106TIP3    H172809   2.322   0.315   4.661 -1.4403 -0.3229 -0.7780
17106TIP3    H272810   2.421   0.421   4.616  0.7832 -2.2518 -0.5417
17107TIP3   OH272811   2.944   5.634   1.099 -0.4828  0.1637 -0.0367
17107TIP3    H172812   2.983   5.685   1.027  1.3026  0.7823  1.3238
17107TIP3    H272813   2.853   5.661   1.101 -0.1361  1.4529 -0.9345
17108TIP3   OH272814   3.944   3.174  13.404 -0.3578  0.6623  0.3709
17108TIP3    H172815   3.932   3.259  13.446 -0.6789  1.3059 -0.9992
17108TIP3    H272816   3.965   3.195  13.313  0.1795 -0.7132  0.1643
17109TIP3   OH272817   1.816   1.579  15.716 -0.1632  0.1422  0.2583
17109TIP3    H172818   1.775   1.515  15.774  0.3097 -0.6799 -0.2996
17109TIP3    H272819   1.910   1.573  15.735  0.1238 -0.9332 -1.3440
17110TIP3   OH272820   3.576   5.085  16.051  0.1425 -0.0648  0.0075
17110TIP3    H172821   3.598   5.061  15.961  0.6464 -0.3319  0.2007
17110TIP3    H272822   3.522   5.164  16.042  0.7291  0.2849 -0.4967
17111TIP3   OH272823   6.486   3.409   5.147  0.1857  0.8205  0.3850
17111TIP3    H172824   6.401   3.452   5.160 -0.6229 -0.1899 -1.3385
17111TIP3    H272825   6.541   3.477   5.108 -1.0290  0.4333 -2.1418
17112TIP3   OH272826   0.297   2.203   1.248 -0.2047  0.5546  0.5742
17112TIP3    H172827   0.370   2.258   1.274 -0.4758  1.2639 -0.1299
17112TIP3    H272828   0.330   2.153   1.173 -0.8887  1.9539 -0.6837
17113TIP3   OH272829   1.862   3.358  13.454  0.0148 -0.3380  0.2677
17113TIP3    H172830   1.855   3.267  13.485  0.3920 -0.5868 -0.3711
17113TIP3    H272831   1.823   3.356  13.366 -1.0945  0.3708  0.7352
17114TIP3   OH272832   2.729   1.596  11.813 -0.1406 -0.1819 -0.7684
17114TIP3    H172833   2.656   1.539  11.836 -0.6485  1.9483  3.1604
17114TIP3    H272834   2.689   1.669  11.766 -0.4528  0.5189  0.5657
17115TIP3   OH272835   1.620   6.240   3.255  0.1126 -0.1863 -0.1995
17115TIP3    H172836   1.671   6.319   3.272 -1.0986  0.4150  0.8339
17115TIP3    H272837   1.684   6.170   3.249  1.1522  0.7706 -0.3664
17116TIP3   OH272838   5.110   3.257   2.643  0.1173 -0.4527 -0.4994
17116TIP3    H172839   5.107   3.308   2.562 -0.3650 -0.3999 -0.4516
17116TIP3    H272840   5.201   3.261   2.671 -0.1543  1.4416  0.1741
17117TIP3   OH272841   6.378   6.082   5.706 -0.3593 -0.2779 -0.2744
17117TIP3    H172842   6.354   6.112   5.793 -1.2817 -0.3136 -0.5100
17117TIP3    H272843   6.294   6.071   5.660  0.0665 -1.1445 -0.8682
17118TIP3   OH272844   3.379   1.199  16.544 -0.0251 -0.0622  0.2466
17118TIP3    H172845   3.373   1.288  16.580  0.4786 -0.0827  0.3776
17118TIP3    H272846   3.309   1.151  16.589 -0.8679  0.4824 -0.4507
17119TIP3   OH272847   3.567   1.239  13.935 -0.5197 -0.3119  0.0927
17119TIP3    H172848   3.507   1.237  13.860 -0.3763 -0.2950 -0.0217
17119TIP3    H272849   3.558   1.152  13.974 -0.0576 -0.5746 -0.3692
17120TIP3   OH272850   3.224   1.464  16.815  0.7515  0.2481  0.2756
17120TIP3    H172851   3.310   1.444  16.849  0.9780 -1.0055 -1.0016
17120TIP3    H272852   3.233   1.456  16.720 -0.4007  1.5479  0.0384
17121TIP3   OH272853   4.386   2.528   1.624  0.1132 -0.0031 -0.3255
17121TIP3    H172854   4.364   2.608   1.671 -0.6498 -0.6405  0.4181
17121TIP3    H272855   4.414   2.467   1.692  1.1075 -0.2291 -0.9320
17122TIP3   OH272856   3.383   6.140   3.455 -0.0598 -0.2545  0.3653
17122TIP3    H172857   3.400   6.225   3.414 -0.3873 -0.9811 -1.2942
17122TIP3    H272858   3.386   6.158   3.549 -1.0424  1.7944  0.0258
17123TIP3   OH272859   4.837   1.003  12.839 -0.1964 -0.1828  0.0837
17123TIP3    H172860   4.915   0.996  12.784 -0.7888  3.2128 -1.3243
17123TIP3    H272861   4.862   0.961  12.922  2.4868 -0.7249 -0.9436
17124TIP3   OH272862   1.547   5.322  12.836  0.1798  0.4112  0.3533
17124TIP3    H172863   1.594   5.299  12.916 -2.1864  0.8373  1.9311
17124TIP3    H272864   1.455   5.322  12.862 -0.5341  2.0848 -2.0042
17125TIP3   OH272865   0.962   3.720  15.440 -0.1587  0.5401  0.3380
17125TIP3    H172866   0.871   3.736  15.419 -0.3020  0.9299  1.2082
17125TIP3    H272867   0.973   3.625  15.429 -0.4306  0.6217 -0.6347
17126TIP3   OH272868   1.735   5.609  14.885  0.0251 -0.2865  0.7786
17126TIP3    H172869   1.808   5.606  14.946  1.3752 -0.7336 -0.8144
17126TIP3    H272870   1.749   5.689  14.835  0.3190 -1.1451 -0.5638
17127TIP3   OH272871   2.826   5.120   5.692  0.2129  0.2991 -0.5729
17127TIP3    H172872   2.827   5.200   5.640  0.8027  0.0045 -1.0321
17127TIP3    H272873   2.816   5.050   5.627  0.8405 -0.0699 -0.2724
17128TIP3   OH272874   0.274   1.141   4.613  0.2308 -0.0951  0.1258
17128TIP3    H172875   0.341   1.077   4.588 -0.5197 -1.4251  1.4197
17128TIP3    H272876   0.286   1.153   4.707 -2.1204 -1.3380  0.6304
17129TIP3   OH272877   3.626   6.144  13.917  0.1194  0.5022 -0.0388
17129TIP3    H172878   3.695   6.143  13.851  0.1203  1.0949 -0.0503
17129TIP3    H272879   3.544   6.141  13.867  0.1286  0.4125 -0.0490
17130TIP3   OH272880   0.166   6.761  10.651  0.7363  0.2491  0.0916
17130TIP3    H172881   0.080   6.801  10.663  0.0102 -0.9370 -0.9726
17130TIP3    H272882   0.183   6.715  10.733 -0.2242 -0.5642 -0.1567
17131TIP3   OH272883   5.781   2.591   4.949  0.3228  0.1383  0.4871
17131TIP3    H172884   5.868   2.611   4.916  0.7377  0.7685  1.9090
17131TIP3    H272885   5.792   2.511   5.001 -0.2490 -0.6471 -0.5853
17132TIP3   OH272886   6.234   2.047  16.191 -0.1002  0.1984  0.0227
17132TIP3    H172887   6.175   2.121  16.204 -0.1817  0.0551  0.5113
17132TIP3    H272888   6.252   2.046  16.097 -0.0659  0.8581  0.0210
17133TIP3   OH272889   6.557   2.160  15.057  0.1574  0.9329  0.2291
17133TIP3    H172890   6.464   2.175  15.046  0.1215  1.4362  1.1465
17133TIP3    H272891   6.565   2.115  15.142  0.8030  1.5432  0.4993
17134TIP3   OH272892   6.500   5.627   3.996  0.0558 -0.4213 -0.1488
17134TIP3    H172893   6.593   5.641   4.016  0.2455 -0.2784 -1.1215
17134TIP3    H272894   6.461   5.605   4.081  0.9020 -0.0935  0.3351
17135TIP3   OH272895   5.918   4.011  12.096  0.3535 -0.2157 -0.5520
17135TIP3    H172896   5.837   4.048  12.130  0.9426  0.5901 -0.0079
17135TIP3    H272897   5.957   3.966  12.171 -0.0568 -1.4263 -1.0567
17136TIP3   OH272898   1.320   4.368   6.586 -0.0538  0.3990 -0.5778
17136TIP3    H172899   1.399   4.327   6.622  0.6560  2.4077  0.2349
17136TIP3    H272900   1.250   4.338   6.644  0.6851  1.5082  0.9260
17137TIP3   OH272901   1.009   2.745  15.780 -0.2220 -0.3461  0.2009
17137TIP3    H172902   1.021   2.788  15.695  0.2269  0.8191  0.8531
17137TIP3    H272903   0.935   2.790  15.820  1.2824  0.9143  1.5818
17138TIP3   OH272904   2.200   5.420  13.313 -0.1053  0.3406 -0.1131
17138TIP3    H172905   2.151   5.503  13.309  1.5996  1.3257 -1.2464
17138TIP3    H272906   2.240   5.413  13.227  0.1316 -1.4677  0.1397
17139TIP3   OH272907   1.377   6.663   0.578 -0.1732 -0.3711 -1.0938
17139TIP3    H172908   1.381   6.739   0.636 -3.1702 -1.5864  0.7916
17139TIP3    H272909   1.459   6.617   0.592 -0.1304  0.2884  0.8933
17140TIP3   OH272910   5.737   1.064   0.378 -0.0628  0.2773  0.2754
17140TIP3    H172911   5.757   0.972   0.396 -1.4687  0.0469  0.7467
17140TIP3    H272912   5.754   1.075   0.285  1.9275  0.0222  0.6047
17141TIP3   OH272913   4.590   6.439  16.521  0.2084  0.5411 -0.7222
17141TIP3    H172914   4.549   6.499  16.460 -0.9910  0.1923 -0.2699
17141TIP3    H272915   4.566   6.472  16.608  0.8540  0.3164 -0.4476
17142TIP3   OH272916   2.943   3.448  13.892 -0.6915  0.1616 -0.2860
17142TIP3    H172917   2.853   3.449  13.859 -0.6600  0.5664 -0.3619
17142TIP3    H272918   2.966   3.355  13.897 -0.9847  0.0709 -0.6217
17143TIP3   OH272919   4.046   4.618   2.119 -0.2102  0.0276 -0.0671
17143TIP3    H172920   4.122   4.676   2.113  0.7343 -1.0299  1.4144
17143TIP3    H272921   4.050   4.564   2.041 -0.1233  0.7611 -0.5821
17144TIP3   OH272922   5.564   1.198  13.130 -0.4995 -1.0646 -0.7754
17144TIP3    H172923   5.592   1.250  13.205 -0.1433 -0.4535 -1.3240
17144TIP3    H272924   5.495   1.141  13.165 -1.4476  0.3090 -0.3280
17145TIP3   OH272925   0.864   3.833  11.291  0.0953 -0.1118  0.1166
17145TIP3    H172926   0.898   3.908  11.243  1.8853 -1.1323 -0.2335
17145TIP3    H272927   0.776   3.860  11.317  0.8638  2.2806  0.3953
17146TIP3   OH272928   3.643   5.598   0.832  0.4155  0.3140 -0.4581
17146TIP3    H172929   3.700   5.653   0.779  0.1065  0.7829 -0.3124
17146TIP3    H272930   3.612   5.656   0.902 -1.0565  0.3754 -1.1270
17147TIP3   OH272931   3.122   0.961   2.951  0.2212 -0.1390  0.8077
17147TIP3    H172932   3.190   1.003   2.899  0.0782  0.4356  1.0774
17147TIP3    H272933   3.153   0.871   2.963  0.4322 -0.1741  0.0533
17148TIP3   OH272934   2.585   0.043  17.109 -0.1248  0.3608 -0.0588
17148TIP3    H172935   2.508  -0.013  17.120  0.2445  0.1483  1.6920
17148TIP3    H272936   2.654  -0.004  17.156  0.2766  2.1318  1.1506
17149TIP3   OH272937   3.541   2.178  15.700 -0.1973 -0.1096 -0.4465
17149TIP3    H172938   3.447   2.192  15.713 -0.0219  2.0072 -1.2344
17149TIP3    H272939   3.555   2.196  15.607  0.9445 -0.7333 -0.3976
17150TIP3   OH272940   2.123   2.254  14.247 -0.1043  0.9382  0.1218
17150TIP3    H172941   2.037   2.227  14.279 -0.3891 -0.1596 -1.5190
17150TIP3    H272942   2.184   2.192  14.286  0.0834  2.3331  2.1025
17151TIP3   OH272943   6.066   1.234  16.467  0.1366  0.4472  0.1935
17151TIP3    H172944   5.970   1.239  16.459 -0.0071  0.6237  1.9320
17151TIP3    H272945   6.096   1.323  16.450 -0.1951  0.9148  2.0219
17152TIP3   OH272946   2.617   1.224  13.360 -0.0980 -0.4613 -0.6970
17152TIP3    H172947   2.583   1.182  13.281  0.3705 -2.1513 -0.0127
17152TIP3    H272948   2.693   1.172  13.385  0.0908  0.3817  0.5659
17153TIP3   OH272949   6.571   6.804   6.823 -0.1606  0.0265  0.0900
17153TIP3    H172950   6.603   6.723   6.862 -0.8238  0.5628  1.7950
17153TIP3    H272951   6.576   6.868   6.894 -0.3920  1.2825 -1.0143
17154TIP3   OH272952   5.102   2.888   5.349 -0.2590 -0.3368  0.3358
17154TIP3    H172953   5.056   2.972   5.342  0.8949  0.5066  2.4604
17154TIP3    H272954   5.046   2.836   5.407 -0.1651 -0.4683  0.3066
17155TIP3   OH272955   2.167   5.851  14.751 -0.1649 -0.1759 -0.0409
17155TIP3    H172956   2.214   5.793  14.691  0.5171  2.4178 -2.1355
17155TIP3    H272957   2.234   5.912  14.781 -0.7837 -0.6844  2.4423
17156TIP3   OH272958   2.301   3.308   4.803  0.4321  0.9733 -0.5302
17156TIP3    H172959   2.368   3.241   4.798 -1.1848 -0.9617  2.0983
17156TIP3    H272960   2.349   3.390   4.813  2.4333 -0.3797  1.4632
17157TIP3   OH272961   4.345   5.518  14.795  0.3980 -0.2408  0.3727
17157TIP3    H172962   4.371   5.536  14.705  0.0688  0.8080  0.4905
17157TIP3    H272963   4.300   5.597  14.824  0.5864 -0.5352  1.4891
17158TIP3   OH272964   6.521   5.224  12.856 -0.1130  0.4785  0.4538
17158TIP3    H172965   6.437   5.243  12.815  0.5952  1.4134 -0.6002
17158TIP3    H272966   6.579   5.293  12.825  0.6605  0.7240  2.4080
17159TIP3   OH272967   0.741   3.124  11.877 -0.2031 -0.3231 -0.4262
17159TIP3    H172968   0.775   3.056  11.935  1.9333  1.1661  0.1192
17159TIP3    H272969   0.779   3.103  11.791  0.6174  0.2689 -0.2162
17160TIP3   OH272970   2.398   2.754  11.927 -0.0184 -0.3685 -0.3441
17160TIP3    H172971   2.330   2.803  11.972  0.7235  0.9359 -0.6060
17160TIP3    H272972   2.419   2.682  11.986 -0.2643  0.3350  0.6175
17161TIP3   OH272973   0.986   4.930  14.619  0.7787 -0.4447  0.3115
17161TIP3    H172974   1.043   4.940  14.696 -0.8728 -0.7885  1.6180
17161TIP3    H272975   0.897   4.941  14.654  0.0639  0.6747 -1.7823
17162TIP3   OH272976   2.877   4.550  10.474 -0.2175 -0.7078 -0.1975
17162TIP3    H172977   2.950   4.488  10.469 -0.3598 -0.9779  1.0321
17162TIP3    H272978   2.915   4.633  10.446  0.7764 -0.6685  1.2560
17163TIP3   OH272979   1.713   0.095  17.145 -0.3749  0.1836 -0.2667
17163TIP3    H172980   1.668   0.039  17.208  2.2803 -0.8272  0.8120
17163TIP3    H272981   1.672   0.181  17.155 -1.6510 -0.5711  1.0715
17164TIP3   OH272982   0.764   6.112  11.664 -0.0612  0.2779 -0.9137
17164TIP3    H172983   0.677   6.083  11.693 -1.1014  2.1594 -2.0399
17164TIP3    H272984   0.746   6.165  11.586  1.9875  1.9601 -0.2735
17165TIP3   OH272985   5.015   4.254   2.580  0.3287  0.4212  0.8016
17165TIP3    H172986   4.983   4.169   2.550 -1.5361  0.9896  1.0965
17165TIP3    H272987   5.061   4.290   2.505  0.5464 -0.5627  0.4555
17166TIP3   OH272988   5.397   1.903   2.920 -0.1698  0.2274 -0.2027
17166TIP3    H172989   5.357   1.957   2.989 -1.9490 -0.7409 -0.4548
17166TIP3    H272990   5.451   1.840   2.967 -2.8567 -1.6550  0.4727
17167TIP3   OH272991   4.501   1.757   6.079 -0.0428 -0.2549  0.6258
17167TIP3    H172992   4.475   1.748   5.987  1.0957 -2.1043  0.4726
17167TIP3    H272993   4.446   1.695   6.126  0.7924 -0.7601  0.9334
17168TIP3   OH272994   5.437   5.677  10.684  0.0362 -0.4325 -0.1661
17168TIP3    H172995   5.409   5.759  10.724 -0.3337  0.1234 -1.5080
17168TIP3    H272996   5.381   5.610  10.724 -0.3644  0.1148  0.1933
17169TIP3   OH272997   5.254   4.545   2.014 -0.4714 -0.0199 -0.2529
17169TIP3    H172998   5.164   4.557   2.043 -0.0015  0.2802  1.1333
17169TIP3    H272999   5.300   4.623   2.045  0.1023  0.2153 -1.6595
17170TIP3   OH273000   6.811   3.618   0.352 -0.1022 -0.2099  0.7710
17170TIP3    H173001   6.796   3.650   0.441 -2.1546  2.6027 -0.5202
17170TIP3    H273002   6.733   3.566   0.332 -0.9219  1.4174 -0.3386
17171TIP3   OH273003   3.741   3.114   0.861 -0.0428  0.5869  0.1808
17171TIP3    H173004   3.806   3.068   0.913 -0.1198 -0.1649 -0.3884
17171TIP3    H273005   3.697   3.172   0.923  1.6834  1.6675  0.4309
17172TIP3   OH273006   5.888   4.095  17.004 -0.0126  0.0913 -0.2773
17172TIP3    H173007   5.983   4.107  16.998  0.0206  0.2301  0.4981
17172TIP3    H273008   5.877   4.006  17.039 -0.1217  0.8692  1.7343
17173TIP3   OH273009   3.392   3.661  15.977 -0.3364  0.5338 -0.0556
17173TIP3    H173010   3.393   3.685  15.885 -1.7481 -1.1856 -0.5623
17173TIP3    H273011   3.469   3.606  15.989 -0.8486 -0.2996 -0.5339
17174TIP3   OH273012   3.556   6.279   0.356  0.4981  0.3835 -0.2543
17174TIP3    H173013   3.476   6.260   0.406  0.7622  0.6988  0.2884
17174TIP3    H273014   3.589   6.361   0.394  0.1641  1.1596 -1.6022
17175TIP3   OH273015   0.096   4.534  15.020  0.1300  0.1263 -0.5246
17175TIP3    H173016   0.016   4.587  15.012  1.1776  2.0126  0.8800
17175TIP3    H273017   0.068   4.445  14.999 -2.4116  0.6977  0.2294
17176TIP3   OH273018   4.074   2.651   3.272 -0.1016  0.0455 -0.0362
17176TIP3    H173019   4.108   2.667   3.360  2.0991 -1.4373 -0.5832
17176TIP3    H273020   4.022   2.571   3.280  1.3980 -0.9857 -0.3723
17177TIP3   OH273021   0.490   4.512  14.005  0.2761 -0.3212 -0.2013
17177TIP3    H173022   0.557   4.520  14.073  1.0592 -1.0348 -0.8899
17177TIP3    H273023   0.506   4.586  13.947 -0.6349  0.5133  0.5851
17178TIP3   OH273024   0.941   2.465   4.940 -0.5094 -0.4115  0.4646
17178TIP3    H173025   1.023   2.429   4.973 -0.4782 -0.6680  0.1088
17178TIP3    H273026   0.919   2.410   4.865  0.2595  1.1240 -0.9263
17179TIP3   OH273027   1.147   5.045   0.011 -0.6601  0.6460 -0.3045
17179TIP3    H173028   1.163   5.137  -0.011 -0.3561  0.6412 -0.0993
17179TIP3    H273029   1.180   4.996  -0.064 -0.3237  0.6734 -0.1712
17180TIP3   OH273030   4.903   6.443   2.822 -0.0441  0.5082  0.7875
17180TIP3    H173031   4.983   6.423   2.773 -1.3634  0.4111 -1.4284
17180TIP3    H273032   4.863   6.358   2.840 -0.2690  0.6144  0.7943
17181TIP3   OH273033   3.037   0.623  15.884 -0.1138  0.0090  0.2205
17181TIP3    H173034   3.116   0.623  15.938  0.1197  1.8555 -0.0785
17181TIP3    H273035   3.063   0.580  15.803 -0.0868 -1.5311  1.0256
17182TIP3   OH273036   6.456   4.730  15.244  0.1817  0.1320  0.6213
17182TIP3    H173037   6.544   4.747  15.276  0.0005  2.1022  0.1139
17182TIP3    H273038   6.399   4.780  15.303 -0.5507 -0.5712  0.5159
17183TIP3   OH273039   3.021   1.654   1.906 -0.2945 -0.3285 -0.6608
17183TIP3    H173040   2.946   1.628   1.960  1.3756 -0.0357  1.8501
17183TIP3    H273041   3.083   1.693   1.967  0.8963  1.7089 -3.0697
17184TIP3   OH273042   2.399   3.600   3.999 -0.0540 -0.1718 -0.0140
17184TIP3    H173043   2.477   3.567   4.045  0.6012  0.3287 -0.7623
17184TIP3    H273044   2.357   3.522   3.965 -1.2274 -0.6845  2.4846
17185TIP3   OH273045   2.550   5.180  14.604 -0.5563  0.0359  0.4820
17185TIP3    H173046   2.479   5.138  14.555 -0.0537 -0.9272  0.5522
17185TIP3    H273047   2.546   5.141  14.691  0.3828 -0.4245  0.3300
17186TIP3   OH273048   3.512   1.696   0.870 -0.2218 -0.7102  0.5119
17186TIP3    H173049   3.451   1.632   0.833  1.0212 -1.7734  0.2694
17186TIP3    H273050   3.559   1.731   0.794 -2.0687  1.8006  0.4381
17187TIP3   OH273051   4.381   4.491  15.719 -0.2859 -0.7079 -0.1490
17187TIP3    H173052   4.313   4.429  15.746  0.3064 -1.4182 -0.2764
17187TIP3    H273053   4.463   4.450  15.746  0.1187  0.0055 -0.2723
17188TIP3   OH273054   2.867   3.980  11.397  0.3659 -0.2819  0.9951
17188TIP3    H173055   2.781   4.021  11.394 -0.4875 -2.0263  0.7806
17188TIP3    H273056   2.910   4.008  11.316  0.6877  2.0157  1.9400
17189TIP3   OH273057   1.747   1.820  12.571  0.1142 -0.0794  0.4962
17189TIP3    H173058   1.717   1.740  12.527  1.4194  0.3956 -1.3346
17189TIP3    H273059   1.703   1.891  12.524 -0.0655  0.3525  1.3038
17190TIP3   OH273060   5.096   0.575   2.360  0.1789  0.0808 -0.1427
17190TIP3    H173061   5.026   0.573   2.295  2.0063 -0.4026 -2.1585
17190TIP3    H273062   5.055   0.545   2.441 -1.7287 -1.0055 -1.4823
17191TIP3   OH273063   4.153   0.280  15.492 -0.2112  0.8447  0.1734
17191TIP3    H173064   4.200   0.196  15.493  0.3034  1.0593 -2.5527
17191TIP3    H273065   4.081   0.267  15.554  0.8194 -1.0401  1.0356
17192TIP3   OH273066   4.351   4.218  13.204 -0.3892 -0.0422  0.1431
17192TIP3    H173067   4.350   4.225  13.299 -0.6660  0.2087  0.1214
17192TIP3    H273068   4.437   4.181  13.184 -0.5383 -0.5967  0.5199
17193TIP3   OH273069   4.744   4.283  14.355  0.7592 -0.1667  0.0501
17193TIP3    H173070   4.715   4.219  14.420 -2.5116  1.3845  0.2336
17193TIP3    H273071   4.710   4.250  14.272  0.0997  0.6550 -0.0214
17194TIP3   OH273072   4.225   4.439  13.619 -0.9044 -0.0019  0.7187
17194TIP3    H173073   4.141   4.440  13.665 -2.1719  0.9557 -1.5078
17194TIP3    H273074   4.226   4.522  13.571 -0.1627 -1.4242 -1.8325
17195TIP3   OH273075   1.710   1.945   3.535 -0.5312  0.6381 -0.2085
17195TIP3    H173076   1.755   1.919   3.615  0.1352  2.9579  0.2073
17195TIP3    H273077   1.681   1.862   3.496 -0.4042 -0.5481  2.1342
17196TIP3   OH273078   4.535   5.781  14.132 -0.3511 -0.0220 -0.1111
17196TIP3    H173079   4.623   5.805  14.103 -0.7424 -0.5053 -1.7286
17196TIP3    H273080   4.529   5.687  14.116 -1.4731  0.1679 -0.8483
17197TIP3   OH273081   0.919   4.071  11.141 -0.5883 -0.0481  0.2730
17197TIP3    H173082   0.890   4.046  11.054 -1.1213  0.1772  0.3835
17197TIP3    H273083   0.859   4.141  11.168  0.3396  0.7518  0.3200
17198TIP3   OH273084   3.184   6.423   2.764  0.4889  0.5348 -0.3410
17198TIP3    H173085   3.110   6.395   2.818  1.1558 -2.8786 -1.1119
17198TIP3    H273086   3.143   6.467   2.690 -0.7371 -0.1634 -0.0965
17199TIP3   OH273087   4.807   5.988   0.525  0.9359 -0.1472  0.1221
17199TIP3    H173088   4.722   6.011   0.562  0.0599 -0.4408 -1.6650
17199TIP3    H273089   4.856   6.070   0.525  0.8012 -0.0475  1.4763
17200TIP3   OH273090   2.411   0.721  15.336 -0.5244  0.0489 -0.2422
17200TIP3    H173091   2.385   0.630  15.344  0.9216 -0.3400  0.2824
17200TIP3    H273092   2.450   0.742  15.421  1.4902  0.3677 -1.2063
17201TIP3   OH273093   4.714   4.835   3.624 -0.5253  0.2470  0.2011
17201TIP3    H173094   4.683   4.919   3.590  0.0540 -0.4663 -2.1448
17201TIP3    H273095   4.809   4.841   3.620 -0.4913 -1.4346 -2.3352
17202TIP3   OH273096   1.335   6.222   1.535 -0.3210  0.1764  0.1484
17202TIP3    H173097   1.270   6.258   1.595  1.2160  0.0675  1.9169
17202TIP3    H273098   1.374   6.298   1.492 -3.1138  0.1500 -2.5830
17203TIP3   OH273099   2.389   0.387   0.539  0.0011  0.0157  0.2223
17203TIP3    H173100   2.383   0.477   0.572  1.3878  0.0271  0.4638
17203TIP3    H273101   2.415   0.396   0.448 -0.4942 -0.1252  0.0653
17204TIP3   OH273102   1.024   2.187   0.963 -0.0583 -0.6890  0.2348
17204TIP3    H173103   1.070   2.112   1.002 -0.6253 -0.2294  1.8224
17204TIP3    H273104   1.082   2.261   0.978 -0.5986 -0.3857  0.8443
17205TIP3   OH273105   4.570   6.371   1.604 -0.3340  0.2177 -0.7092
17205TIP3    H173106   4.568   6.396   1.696 -0.2586 -1.3933 -0.2508
17205TIP3    H273107   4.480   6.381   1.574 -0.0989  2.0494 -0.8336
17206TIP3   OH273108   1.605   1.014   4.807 -0.1449 -0.2995  0.3172
17206TIP3    H173109   1.529   1.070   4.825  1.0258  0.3870  3.2565
17206TIP3    H273110   1.649   1.005   4.891  2.0269 -2.2337 -0.9811
17207TIP3   OH273111   2.320   3.528  11.417  0.2923  0.2270  0.5599
17207TIP3    H173112   2.329   3.472  11.494 -0.9666  0.3704  0.8359
17207TIP3    H273113   2.308   3.616  11.453 -0.7702  0.2253  0.2268
17208TIP3   OH273114   0.273   1.089  11.126  0.0260 -0.1948 -0.1804
17208TIP3    H173115   0.299   1.056  11.212  0.6766  0.8302  0.0176
17208TIP3    H273116   0.236   1.012  11.081 -1.6598 -0.4346  1.5275
17209TIP3   OH273117   5.388   4.947   4.649 -0.3455  0.2686 -0.5838
17209TIP3    H173118   5.357   4.979   4.565 -1.6410 -0.9361 -0.5801
17209TIP3    H273119   5.312   4.954   4.707  0.2323  0.0872  0.1986
17210TIP3   OH273120   4.186   5.456   0.288  0.0047 -0.0926 -0.0189
17210TIP3    H173121   4.195   5.361   0.295  0.9829  0.0834  1.2799
17210TIP3    H273122   4.268   5.485   0.247  0.5089  0.3597  1.2783
17211TIP3   OH273123   3.797   6.128   2.854 -0.2969 -0.3012  0.0108
17211TIP3    H173124   3.839   6.156   2.773  0.6208  0.1160  0.6172
17211TIP3    H273125   3.825   6.037   2.866 -0.2867 -0.3067 -0.0567
17212TIP3   OH273126   4.593   4.230   4.090  1.4183 -0.0905 -0.1186
17212TIP3    H173127   4.565   4.320   4.076  0.3622  0.1045  2.8912
17212TIP3    H273128   4.530   4.178   4.039 -0.3127  0.7100  1.1371
17213TIP3   OH273129   2.196   4.856   2.046 -0.4947 -0.1476 -0.4123
17213TIP3    H173130   2.244   4.881   1.967  2.0469  0.0907  1.1305
17213TIP3    H273131   2.138   4.931   2.064  0.1688  0.5364 -1.0932
17214TIP3   OH273132   2.117   1.280   2.916  0.9545 -0.1843  0.8081
17214TIP3    H173133   2.022   1.290   2.911  0.9640 -0.4047  0.1712
17214TIP3    H273134   2.140   1.314   3.002  0.5330  1.7613  0.1680
17215TIP3   OH273135   4.416   2.208  11.061 -0.1913  0.2061 -0.0605
17215TIP3    H173136   4.437   2.121  11.096 -0.0369  0.6272  0.9303
17215TIP3    H273137   4.321   2.212  11.062 -0.1837  0.4210  0.8824
17216TIP3   OH273138   5.391   3.145  14.337  0.3127 -0.0090  0.4388
17216TIP3    H173139   5.370   3.097  14.257 -0.4726  0.1830  0.5242
17216TIP3    H273140   5.451   3.088  14.385 -1.8879 -1.6200  1.3098
17217TIP3   OH273141   4.729   6.517   4.944 -0.3710  0.0151  0.1901
17217TIP3    H173142   4.713   6.551   4.856 -1.7279  0.9217  0.7777
17217TIP3    H273143   4.800   6.454   4.932  1.0922  1.8266 -1.1950
17218TIP3   OH273144   1.219   1.869  14.531  0.0584  0.1739  0.6008
17218TIP3    H173145   1.270   1.881  14.611 -0.3599 -0.0179  0.8980
17218TIP3    H273146   1.277   1.819  14.473  0.1505 -0.1884  0.9990
17219TIP3   OH273147   5.336   5.765  13.138  0.2555 -0.1473 -0.2337
17219TIP3    H173148   5.250   5.802  13.157  0.5441 -0.3993  1.6961
17219TIP3    H273149   5.343   5.689  13.197  1.2734 -0.8936 -1.2954
17220TIP3   OH273150   5.590   2.104  16.314 -0.2682  0.1699 -0.3301
17220TIP3    H173151   5.552   2.020  16.288 -0.5720  0.2682 -0.2086
17220TIP3    H273152   5.670   2.081  16.362  0.0109 -0.0286 -0.8919
17221TIP3   OH273153   6.435   2.550   1.902 -0.0222 -0.9660  0.0128
17221TIP3    H173154   6.411   2.611   1.972  0.0739  0.8634 -1.4951
17221TIP3    H273155   6.530   2.551   1.901 -0.0237 -0.9794 -0.1433
17222TIP3   OH273156   0.955   1.418   0.250  0.2237 -0.8334  0.1591
17222TIP3    H173157   0.983   1.346   0.307 -0.3865 -0.4232  0.9892
17222TIP3    H273158   1.001   1.495   0.284 -0.8963 -0.4015  0.7365
17223TIP3   OH273159   1.343   6.340   5.392 -0.2826  0.4313  0.3047
17223TIP3    H173160   1.398   6.368   5.465  0.2765  0.5816 -0.1679
17223TIP3    H273161   1.351   6.244   5.393 -0.4154  0.4207  0.5430
17224TIP3   OH273162   0.020   5.044  16.391  0.2522  0.3126 -0.0106
17224TIP3    H173163  -0.019   5.011  16.472  0.6746 -0.0520  0.0470
17224TIP3    H273164   0.004   5.139  16.394 -0.8846  0.1360 -0.1392
17225TIP3   OH273165   5.631   2.391  14.113 -0.0558 -0.4716  0.1481
17225TIP3    H173166   5.567   2.444  14.160  2.8442  0.9684  2.5931
17225TIP3    H273167   5.675   2.340  14.181  1.7392 -1.0543 -1.4061
17226TIP3   OH273168   3.945   5.885   2.924  0.3834  0.3370  0.5129
17226TIP3    H173169   3.894   5.810   2.893 -0.7142  0.6053  1.6314
17226TIP3    H273170   4.029   5.877   2.879 -0.9726  0.4268 -2.1584
17227TIP3   OH273171   1.020   2.321  12.508  0.9005  0.1830  0.1486
17227TIP3    H173172   1.115   2.323  12.499  1.0043 -0.0168  1.1293
17227TIP3    H273173   0.998   2.405  12.547  0.7169  0.0878  0.2516
17228TIP3   OH273174   4.848   6.475  11.864  0.5575  0.5233  0.6817
17228TIP3    H173175   4.819   6.566  11.872 -1.2806  0.3849 -3.2042
17228TIP3    H273176   4.900   6.473  11.784 -1.6676 -2.2608 -0.8131
17229TIP3   OH273177   4.025   6.480   1.804  0.3777  0.0471 -0.7704
17229TIP3    H173178   4.108   6.465   1.850  0.8642  1.0309 -1.3035
17229TIP3    H273179   4.044   6.552   1.745 -0.5955 -0.3775 -1.6123
17230TIP3   OH273180   2.413   1.527   6.926 -0.3261 -0.4326  0.3009
17230TIP3    H173181   2.394   1.472   6.850 -2.4633  2.2169 -1.1624
17230TIP3    H273182   2.436   1.612   6.889  0.6578  0.3293  2.5781
17231TIP3   OH273183   2.163   1.990   1.468  0.2990 -0.4599 -0.2448
17231TIP3    H173184   2.219   2.047   1.417  0.1296 -0.6974 -0.7000
17231TIP3    H273185   2.078   1.992   1.423  0.2834 -1.0440 -0.2544
17232TIP3   OH273186   6.240   5.752  15.481  0.1290  0.4014  0.6607
17232TIP3    H173187   6.278   5.819  15.424  2.5799  0.5255  2.3862
17232TIP3    H273188   6.170   5.798  15.528  0.4415  1.2112  0.3440
17233TIP3   OH273189   3.396   6.428   4.449 -0.0827  0.2144  0.1386
17233TIP3    H173190   3.403   6.349   4.502  1.3583  1.3189  1.6869
17233TIP3    H273191   3.393   6.397   4.359  0.9001 -1.5900  0.6996
17234TIP3   OH273192   4.263   0.359   4.293 -0.3776  0.2410 -0.0619
17234TIP3    H173193   4.346   0.312   4.280 -1.0113 -1.3462  1.3652
17234TIP3    H273194   4.247   0.404   4.211  1.5527 -0.0028 -0.5974
17235TIP3   OH273195   0.207   4.871  13.911  0.4958  0.8997 -0.7494
17235TIP3    H173196   0.223   4.836  13.998 -0.5246 -1.0195 -1.2807
17235TIP3    H273197   0.138   4.936  13.922  0.2720  0.5555 -0.1516
17236TIP3   OH273198   0.835   4.032   0.580 -0.0582 -0.2592  0.1593
17236TIP3    H173199   0.770   3.966   0.603 -0.6731  1.1106  2.5592
17236TIP3    H273200   0.907   4.017   0.642  0.2304  0.6574  0.0534
17237TIP3   OH273201   0.522   5.759   5.624  0.3404  0.1870  0.4603
17237TIP3    H173202   0.466   5.816   5.676  0.4007  0.6065  0.0739
17237TIP3    H273203   0.519   5.675   5.669 -0.2433  0.3256  0.6937
17238TIP3   OH273204   5.592   0.700   3.971 -0.2001 -0.0108 -0.0639
17238TIP3    H173205   5.626   0.744   4.049  0.4067 -0.8342  0.1484
17238TIP3    H273206   5.525   0.640   4.005  1.4081 -1.7693  0.0628
17239TIP3   OH273207   2.131   5.174   3.566 -0.2662 -0.0301  0.0267
17239TIP3    H173208   2.066   5.205   3.629 -0.6510  0.0978 -0.4305
17239TIP3    H273209   2.124   5.235   3.493  0.3564 -0.0285 -0.0372
17240TIP3   OH273210   1.067   0.198   2.628 -0.0878 -0.2660  0.3595
17240TIP3    H173211   1.109   0.185   2.543  0.0964 -0.6192  0.5028
17240TIP3    H273212   0.976   0.174   2.613 -0.0177 -0.5045  0.3034
17241TIP3   OH273213   3.752   0.559   4.105  0.2687  0.6913  0.5017
17241TIP3    H173214   3.785   0.472   4.128  1.4036  1.0166  0.1391
17241TIP3    H273215   3.805   0.619   4.157 -1.0922  1.1304  1.4006
17242TIP3   OH273216   3.533   2.172   5.781  0.0529  0.5572 -0.1196
17242TIP3    H173217   3.507   2.121   5.857 -0.6221  1.4506  0.2603
17242TIP3    H273218   3.623   2.145   5.762  0.3508  0.6066  1.2140
17243TIP3   OH273219   0.604   3.561   0.332  0.0444 -0.2217  0.0998
17243TIP3    H173220   0.577   3.582   0.421 -1.9742  0.0324 -0.5477
17243TIP3    H273221   0.589   3.467   0.323 -1.0154 -0.0087 -0.3916
17244TIP3   OH273222   3.208   6.751   4.752 -0.1010 -0.3216 -0.3427
17244TIP3    H173223   3.144   6.812   4.717 -0.7017 -0.6929  0.1079
17244TIP3    H273224   3.166   6.665   4.748 -1.3384 -0.0417  3.9257
17245TIP3   OH273225   1.687   5.330  14.959  0.1086 -0.3788  0.0331
17245TIP3    H173226   1.673   5.396  14.891  0.2049  0.0380  0.4135
17245TIP3    H273227   1.615   5.345  15.021 -1.3105 -2.2302 -1.1152
17246TIP3   OH273228   3.361   2.337  14.875 -0.0600 -0.3026 -0.6881
17246TIP3    H173229   3.286   2.397  14.873 -0.0986 -0.3335 -0.2567
17246TIP3    H273230   3.372   2.309  14.784 -1.4457 -1.3865 -0.5340
17247TIP3   OH273231   1.090   2.490   1.788 -0.3639 -0.1268  0.2835
17247TIP3    H173232   0.997   2.509   1.799 -1.2170 -3.0425 -1.3334
17247TIP3    H273233   1.113   2.436   1.864  0.1975  1.1732  1.0458
17248TIP3   OH273234   1.196   1.107   6.060 -0.2138  0.3127 -0.1444
17248TIP3    H173235   1.268   1.112   5.996 -1.7719  2.4902 -1.8084
17248TIP3    H273236   1.232   1.146   6.139 -0.2693  3.7336 -1.7175
17249TIP3   OH273237   5.057   4.140  12.342 -0.5559  0.3943 -0.1699
17249TIP3    H173238   5.044   4.111  12.251  0.9230  1.7403 -0.8358
17249TIP3    H273239   5.152   4.148  12.351 -0.6718 -0.1723  1.6492
17250TIP3   OH273240   5.925   2.910   5.793  0.0023  0.3753  0.6406
17250TIP3    H173241   5.836   2.875   5.805 -0.4434  1.1233 -0.3445
17250TIP3    H273242   5.944   2.955   5.875 -1.0944  1.4196  0.3369
17251TIP3   OH273243   0.744   6.471   0.267  0.6714  0.2926  0.4752
17251TIP3    H173244   0.771   6.460   0.176  1.1668  0.5297  0.5923
17251TIP3    H273245   0.678   6.541   0.264 -0.7146 -1.0012  0.0507
17252TIP3   OH273246   0.928   5.312   5.696  0.3535 -0.0386  0.2630
17252TIP3    H173247   0.849   5.347   5.736  0.5071  1.1522 -0.4459
17252TIP3    H273248   0.999   5.361   5.736  0.4894  1.4270 -1.6590
17253TIP3   OH273249   2.738   1.636  12.150 -0.0323  0.3525 -0.4617
17253TIP3    H173250   2.703   1.549  12.171 -0.1577  1.0298  2.4518
17253TIP3    H273251   2.662   1.687  12.125 -0.6649  0.7984  2.2099
17254TIP3   OH273252   5.516   3.549  12.622  0.2199  0.0111  0.2046
17254TIP3    H173253   5.442   3.577  12.676  0.0092  1.6372 -0.8854
17254TIP3    H273254   5.560   3.630  12.598  1.0664 -0.7783 -0.9711
17255TIP3   OH273255   2.566   2.910   5.841 -0.1118  0.3079  0.1133
17255TIP3    H173256   2.606   2.823   5.844 -1.4097 -0.3776 -1.7562
17255TIP3    H273257   2.531   2.922   5.930 -0.2031 -1.2086  0.3075
17256TIP3   OH273258   0.572   1.422   1.864 -0.2175  0.0777 -0.2415
17256TIP3    H173259   0.507   1.400   1.797 -0.2171 -1.1253  0.1415
17256TIP3    H273260   0.535   1.390   1.946 -0.2417  1.6018  0.3581
17257TIP3   OH273261   1.637   1.591   0.019  0.4090 -0.5044  0.1852
17257TIP3    H173262   1.664   1.643  -0.058 -0.1808  1.8048  1.4804
17257TIP3    H273263   1.688   1.629   0.091 -1.4325 -0.4886  1.4973
17258TIP3   OH273264   0.271   2.094   0.329 -0.1069  0.1262  0.4307
17258TIP3    H173265   0.357   2.086   0.369  0.1950  0.4617 -0.1423
17258TIP3    H273266   0.235   2.175   0.365  0.0397  0.2698  0.2534
17259TIP3   OH273267   3.931   4.176  16.770 -0.2380 -0.4668  0.0455
17259TIP3    H173268   3.843   4.192  16.736  0.3784  0.3968 -1.1941
17259TIP3    H273269   3.982   4.252  16.740  0.7158 -0.4989  1.5259
17260TIP3   OH273270   3.689   2.943   2.470  0.0518  0.1488  0.0384
17260TIP3    H173271   3.672   2.976   2.381  0.2267  2.0248  0.6820
17260TIP3    H273272   3.774   2.900   2.463 -1.2860 -2.3640 -1.3811
17261TIP3   OH273273   5.084   5.703  15.272 -0.0143 -0.8363 -0.3314
17261TIP3    H173274   5.027   5.780  15.282 -2.7443 -3.0455  1.9707
17261TIP3    H273275   5.141   5.707  15.349 -1.1798 -1.8620  0.6183
17262TIP3   OH273276   5.269   5.027   2.907 -0.1605 -0.3571 -0.4891
17262TIP3    H173277   5.210   4.958   2.876 -0.8984  0.4284 -0.8634
17262TIP3    H273278   5.267   5.019   3.002 -0.9556 -0.2604 -0.4959
17263TIP3   OH273279   4.672   6.677  13.821  0.2327 -0.1416  0.1277
17263TIP3    H173280   4.615   6.741  13.778  1.3237 -0.6220 -2.1139
17263TIP3    H273281   4.615   6.633  13.884 -1.1016  1.4597  0.0932
17264TIP3   OH273282   0.509   5.845  14.047  0.2255 -0.2317  0.1418
17264TIP3    H173283   0.435   5.905  14.044 -0.0541 -0.6142 -0.8366
17264TIP3    H273284   0.575   5.886  13.991  0.9146  0.2979  1.3122
17265TIP3   OH273285   1.591   0.001  13.244 -0.2818 -0.0253 -1.0852
17265TIP3    H173286   1.572  -0.090  13.269 -1.8322  0.7864  0.7705
17265TIP3    H273287   1.507   0.036  13.215  0.3065  0.8355 -1.7653
17266TIP3   OH273288   5.508   0.262   1.595  0.4469  0.2201  0.0953
17266TIP3    H173289   5.499   0.354   1.571  1.5747  0.6652  1.2962
17266TIP3    H273290   5.512   0.216   1.512 -0.2812  1.2429 -0.5207
17267TIP3   OH273291   3.361   0.613  14.498  0.2018 -1.2387  0.2437
17267TIP3    H173292   3.288   0.638  14.555  0.9465  2.2119 -0.2462
17267TIP3    H273293   3.323   0.547  14.440 -2.0413 -0.8390  1.1865
17268TIP3   OH273294   6.718   2.427   2.910 -0.9575 -0.4233  0.1335
17268TIP3    H173295   6.639   2.447   2.961  0.1061  1.4421  1.0961
17268TIP3    H273296   6.784   2.487   2.944  0.1497 -0.0704 -2.5551
17269TIP3   OH273297   0.368   3.922   2.746  0.0091  0.5088  0.0384
17269TIP3    H173298   0.327   3.959   2.668 -1.4958  2.3001  1.6196
17269TIP3    H273299   0.404   3.838   2.717 -1.4336  0.6594 -2.3048
17270TIP3   OH273300   0.759   4.421   4.741  0.4428  0.3657  0.2048
17270TIP3    H173301   0.758   4.327   4.757  0.8627  0.1480 -0.9622
17270TIP3    H273302   0.805   4.458   4.816 -0.9024 -0.2194  1.3325
17271TIP3   OH273303   3.790   3.016  12.116  0.0580  0.3665  0.2725
17271TIP3    H173304   3.805   2.929  12.079 -0.9917  0.8676 -1.3737
17271TIP3    H273305   3.849   3.021  12.191  0.7501 -1.4406 -0.1421
17272TIP3   OH273306   1.986   6.379   4.587  0.8313 -0.0760 -0.2823
17272TIP3    H173307   1.961   6.341   4.503 -1.0407  0.6412 -0.0826
17272TIP3    H273308   2.065   6.429   4.568  0.3235  0.2316 -1.6717
17273TIP3   OH273309   5.285   6.772   4.525  0.0834 -0.3412  0.2178
17273TIP3    H173310   5.269   6.865   4.506  0.5384 -0.1736  0.6325
17273TIP3    H273311   5.260   6.762   4.617 -0.9598 -0.8707 -0.1239
17274TIP3   OH273312   5.445   4.704  16.900  0.4598  0.1027 -0.1204
17274TIP3    H173313   5.422   4.790  16.935 -1.5055  0.9579 -3.2927
17274TIP3    H273314   5.519   4.721  16.842  0.6753 -0.4919 -0.0186
17275TIP3   OH273315   3.868   6.277   6.492 -0.5358  0.3729 -0.3944
17275TIP3    H173316   3.803   6.212   6.518 -1.2773  0.0874 -2.8669
17275TIP3    H273317   3.836   6.359   6.530  0.3387 -0.6148  2.6235
17276TIP3   OH273318   0.425   2.636  16.554 -0.3051  0.1143  0.3720
17276TIP3    H173319   0.445   2.632  16.648 -0.7724 -0.9052  0.4275
17276TIP3    H273320   0.498   2.592  16.512  0.2110  1.1068  0.1986
17277TIP3   OH273321   6.242   5.495  12.354  0.7821 -0.6151  0.3779
17277TIP3    H173322   6.265   5.572  12.302 -2.5297  1.1864  1.4329
17277TIP3    H273323   6.260   5.521  12.444 -0.7206 -0.8950  0.7732
17278TIP3   OH273324   2.623   6.068   0.066 -0.5855  0.0311  0.1759
17278TIP3    H173325   2.642   5.985   0.109  0.7237  0.4082  0.3693
17278TIP3    H273326   2.618   6.046  -0.027  4.9433  0.4414 -0.4297
17279TIP3   OH273327   4.855   3.456   5.370  0.1115 -0.2106  0.5295
17279TIP3    H173328   4.851   3.531   5.311  0.4058 -2.0628 -1.9326
17279TIP3    H273329   4.780   3.466   5.428 -1.6604  0.3326 -1.8040
17280TIP3   OH273330   2.428   0.766   1.800 -0.3194  0.4472 -0.0394
17280TIP3    H173331   2.473   0.739   1.880  1.6463 -0.2276 -1.3418
17280TIP3    H273332   2.356   0.821   1.830  0.2397 -0.0167  2.2016
17281TIP3   OH273333   4.680   2.548  13.110 -0.0331 -0.3952 -0.2256
17281TIP3    H173334   4.636   2.599  13.178 -1.0296 -0.5768 -0.7249
17281TIP3    H273335   4.610   2.518  13.053  0.9478  1.3846 -2.4640
17282TIP3   OH273336   3.668   3.208   2.832 -0.8797  0.0226  0.0681
17282TIP3    H173337   3.587   3.182   2.876 -1.2842 -0.2637 -0.8257
17282TIP3    H273338   3.724   3.130   2.837 -1.2400 -0.2853 -0.6450
17283TIP3   OH273339   0.133   2.185   1.464 -0.2509  0.3059  0.2199
17283TIP3    H173340   0.206   2.194   1.403 -1.0100  0.6673 -0.6411
17283TIP3    H273341   0.112   2.092   1.462 -0.2816  0.3185 -0.0826
17284TIP3   OH273342   0.227   3.589  12.427 -0.1913  0.3327 -0.4765
17284TIP3    H173343   0.136   3.570  12.447 -0.3860  1.3566 -0.3165
17284TIP3    H273344   0.277   3.537  12.490 -0.6888  0.2935 -0.1155
17285TIP3   OH273345   2.063   5.628  11.483  0.2662 -0.4044 -0.3551
17285TIP3    H173346   1.998   5.681  11.437 -0.4274  0.7391  1.8679
17285TIP3    H273347   2.026   5.540  11.482 -1.0213  0.1158  0.3280
17286TIP3   OH273348   5.606   4.580   5.866 -0.4397  0.2077  0.3847
17286TIP3    H173349   5.625   4.637   5.791  0.3835 -0.1379  0.3225
17286TIP3    H273350   5.662   4.614   5.936  0.8586 -1.1498  0.0515
17287TIP3   OH273351   3.694   5.511  13.137  0.0265  0.0411  0.2379
17287TIP3    H173352   3.660   5.522  13.225  2.2638  1.2013  1.0032
17287TIP3    H273353   3.650   5.579  13.085  0.4878  0.9451  1.0123
17288TIP3   OH273354   5.210   0.739  13.131 -0.2869  0.0953 -0.8491
17288TIP3    H173355   5.207   0.721  13.225  1.3794 -1.0854 -0.9963
17288TIP3    H273356   5.175   0.828  13.122  0.9533  0.7992  1.0578
17289TIP3   OH273357   2.352   4.846   2.586  0.6043  0.1102 -0.4807
17289TIP3    H173358   2.275   4.852   2.642  0.6370  0.2304 -0.4483
17289TIP3    H273359   2.359   4.931   2.544  0.5466  0.0008 -0.7152
17290TIP3   OH273360   3.749   5.327  13.748 -0.0812 -0.3815  0.4362
17290TIP3    H173361   3.759   5.362  13.659 -0.0941  1.7110  1.2335
17290TIP3    H273362   3.751   5.232  13.737 -2.3941 -0.1892 -2.0529
17291TIP3   OH273363   6.072   4.615   3.153 -0.3678  0.2555 -0.1889
17291TIP3    H173364   6.102   4.696   3.113 -0.6984 -0.1753 -1.3441
17291TIP3    H273365   6.128   4.547   3.114  0.6792  0.0520  1.6236
17292TIP3   OH273366   4.796   5.049   2.083  0.1250 -0.6082  0.1485
17292TIP3    H173367   4.891   5.042   2.088  0.2126  0.0904 -0.4269
17292TIP3    H273368   4.765   5.011   2.165  0.9131 -0.5339  0.4896
17293TIP3   OH273369   0.629   4.370  15.136 -0.6317 -0.6351  0.1345
17293TIP3    H173370   0.692   4.422  15.086 -1.9561  0.7187 -0.1807
17293TIP3    H273371   0.593   4.308  15.072 -0.3940 -0.7022  0.0642
17294TIP3   OH273372   5.357   3.959  16.832  0.0447  0.7200 -0.0285
17294TIP3    H173373   5.390   4.004  16.754  2.0481  1.0270  0.9803
17294TIP3    H273374   5.333   4.029  16.892  1.3112  0.4962  0.7699
17295TIP3   OH273375   1.926   4.210   6.086 -0.0569  0.5486  0.4717
17295TIP3    H173376   1.831   4.208   6.103 -0.2060  1.7236 -0.1150
17295TIP3    H273377   1.958   4.125   6.114 -1.1983  0.3726  1.2783
17296TIP3   OH273378   1.418   2.340  10.898 -0.9560  0.5102 -0.8717
17296TIP3    H173379   1.434   2.261  10.846  0.6922  0.0580  0.2429
17296TIP3    H273380   1.328   2.330  10.930 -0.0913 -1.9998  0.9742
17297TIP3   OH273381   2.090   1.881  13.094 -0.1354  0.1116 -0.0367
17297TIP3    H173382   2.042   1.844  13.020 -2.2252 -0.5186  1.6080
17297TIP3    H273383   2.066   1.973  13.096 -0.0975  0.1232 -0.1255
17298TIP3   OH273384   4.675   4.387   5.789 -0.0128 -0.3668  0.1866
17298TIP3    H173385   4.690   4.434   5.706 -0.7736  0.1977  0.3610
17298TIP3    H273386   4.613   4.443   5.837  0.4028 -0.7082  1.1241
17299TIP3   OH273387   2.768   2.283  16.417  0.8495  0.2134  0.0148
17299TIP3    H173388   2.852   2.239  16.403  1.3861  1.5657 -1.1858
17299TIP3    H273389   2.790   2.376  16.420 -0.7941  0.6977 -1.9318
17300TIP3   OH273390   3.883   4.599  13.828  0.0209  0.1009  0.1412
17300TIP3    H173391   3.868   4.522  13.882 -1.9947 -1.1736 -2.1576
17300TIP3    H273392   3.827   4.586  13.751  1.9138  2.4247 -1.6976
17301TIP3   OH273393   4.595   3.341  11.259  0.1980  0.1967 -0.0916
17301TIP3    H173394   4.595   3.255  11.216  0.1672 -0.1410  0.5661
17301TIP3    H273395   4.622   3.402  11.191  4.2092 -0.8575  0.4286
17302TIP3   OH273396   3.351   3.150   1.755 -0.3292 -0.1772  0.6365
17302TIP3    H173397   3.305   3.066   1.749 -0.3441 -0.2228  1.3919
17302TIP3    H273398   3.439   3.127   1.785 -0.5653  0.1541  1.5848
17303TIP3   OH273399   1.394   2.685   1.326  0.2764 -0.5149  0.1999
17303TIP3    H173400   1.321   2.647   1.376  0.8111 -2.4563 -0.4664
17303TIP3    H273401   1.406   2.626   1.252  0.7074  1.3314 -1.2460
17304TIP3   OH273402   5.844   6.243  12.638  0.1879 -0.0865 -0.3061
17304TIP3    H173403   5.905   6.312  12.611 -2.7557  2.3835 -0.9721
17304TIP3    H273404   5.826   6.263  12.730  0.9251 -1.2358  0.0895
17305TIP3   OH273405   0.408   0.249  13.585 -0.0731 -0.3612 -0.6550
17305TIP3    H173406   0.413   0.248  13.489  0.3624 -0.4212 -0.6321
17305TIP3    H273407   0.497   0.271  13.613 -0.5471  1.1379 -0.2980
17306TIP3   OH273408   6.816   5.974   5.027  0.5211 -0.1804 -0.1724
17306TIP3    H173409   6.727   5.962   4.993  0.5927 -2.6063  0.3480
17306TIP3    H273410   6.804   5.978   5.122  0.9516 -0.2395 -0.1152
17307TIP3   OH273411   1.774   3.374   0.851  0.0673 -0.2506  0.1592
17307TIP3    H173412   1.703   3.437   0.861  0.3311 -0.0690  0.8971
17307TIP3    H273413   1.736   3.290   0.876  0.1678 -0.1200  0.7565
17308TIP3   OH273414   0.173   3.707  16.023 -0.1505  0.6494  0.1646
17308TIP3    H173415   0.096   3.680  15.973  0.2922  0.4240 -0.4041
17308TIP3    H273416   0.229   3.751  15.959  0.4472  0.3041  0.4480
17309TIP3   OH273417   0.586   4.677  14.488 -0.7085 -0.0479  0.3228
17309TIP3    H173418   0.599   4.672  14.582  0.1726  0.6287  0.2393
17309TIP3    H273419   0.572   4.586  14.461  1.7249 -0.5767  0.7284
17310TIP3   OH273420   0.707   0.225   6.786  0.1781 -0.2166  0.2660
17310TIP3    H173421   0.666   0.263   6.708 -0.9092  0.2208  1.0262
17310TIP3    H273422   0.662   0.141   6.797 -2.4054  1.3447  2.5413
17311TIP3   OH273423   5.100   0.971  14.019  0.0222 -0.2296 -0.1818
17311TIP3    H173424   5.095   0.885  14.061 -1.0616 -1.1754 -2.1776
17311TIP3    H273425   5.046   1.028  14.074  0.3435 -0.9204  0.8768
17312TIP3   OH273426   5.444   5.652   0.276  0.0997 -0.4035 -0.0141
17312TIP3    H173427   5.393   5.582   0.317  0.4590 -0.5955  0.1099
17312TIP3    H273428   5.485   5.698   0.350  1.0934 -1.0149 -0.1776
17313TIP3   OH273429   5.913   5.776   5.544 -0.1638 -0.0658 -0.2847
17313TIP3    H173430   5.990   5.726   5.570  0.6281  0.8819 -0.7437
17313TIP3    H273431   5.949   5.853   5.499 -1.3114  1.2145  0.9424
17314TIP3   OH273432   1.022   2.731   3.708 -0.0856  0.4449 -0.0712
17314TIP3    H173433   1.056   2.688   3.787 -0.5764 -1.5486 -0.9048
17314TIP3    H273434   1.097   2.735   3.649  0.4453  2.5260  0.7078
17315TIP3   OH273435   6.105   0.106  13.793 -0.5182 -0.9462 -0.5105
17315TIP3    H173436   6.152   0.086  13.712 -0.3879  0.5110 -0.8065
17315TIP3    H273437   6.121   0.199  13.808 -0.5948 -1.1826  1.1619
17316TIP3   OH273438   0.957   3.510  13.713  0.1466 -0.4196 -0.3508
17316TIP3    H173439   0.910   3.520  13.796  2.1848 -2.2762  1.0971
17316TIP3    H273440   0.888   3.514  13.646 -1.7484 -0.5446  1.5234
17317TIP3   OH273441   5.799   0.814  13.829 -0.1165 -0.9831 -0.2650
17317TIP3    H173442   5.802   0.897  13.781  0.3132 -0.4818  0.6111
17317TIP3    H273443   5.710   0.783  13.816 -0.7557  0.3974  0.6649
17318TIP3   OH273444   5.275   0.192  13.443 -0.2775 -0.1348 -0.0055
17318TIP3    H173445   5.266   0.140  13.523 -0.5281 -0.1875 -0.0656
17318TIP3    H273446   5.354   0.158  13.401  0.9775  1.2484  1.2177
17319TIP3   OH273447   0.474   0.033  15.989  0.2105 -0.6602 -0.6521
17319TIP3    H173448   0.447  -0.036  15.929 -1.5886 -1.1255  0.6555
17319TIP3    H273449   0.461  -0.004  16.076  0.8675  0.7157  0.0459
17320TIP3   OH273450   2.679   1.077   5.841  0.0105  0.0340  0.1705
17320TIP3    H173451   2.592   1.105   5.868 -1.2967 -1.9435 -1.8206
17320TIP3    H273452   2.704   1.012   5.906  0.0605  0.6853  0.8084
17321TIP3   OH273453   1.775   2.041   3.971  0.2068 -0.4123 -0.1098
17321TIP3    H173454   1.699   1.982   3.970 -0.7154  0.7740 -1.5719
17321TIP3    H273455   1.843   1.991   3.925 -0.8205 -0.0630 -2.0873
17322TIP3   OH273456   5.232   4.592  12.960 -0.0984  0.0640 -0.3904
17322TIP3    H173457   5.189   4.641  13.030 -2.4752 -1.0740 -1.0023
17322TIP3    H273458   5.245   4.504  12.997  1.4518  0.3065 -0.3256
17323TIP3   OH273459   1.704   6.487   4.661 -0.2410  0.4226 -0.3067
17323TIP3    H173460   1.641   6.481   4.733  1.4758 -0.3726  1.2098
17323TIP3    H273461   1.702   6.400   4.620 -0.6089  0.6043 -0.6706
17324TIP3   OH273462   5.663   1.157   5.596 -0.4066  0.1071 -0.3048
17324TIP3    H173463   5.581   1.171   5.644 -1.0133 -3.0497 -0.2959
17324TIP3    H273464   5.731   1.159   5.663 -0.8921 -0.8990  0.2327
17325TIP3   OH273465   3.212   0.812   1.094 -0.3288  0.3637 -0.1685
17325TIP3    H173466   3.141   0.845   1.038  0.7387 -1.1980 -2.5148
17325TIP3    H273467   3.257   0.891   1.124 -1.2698  1.2599 -1.0601
17326TIP3   OH273468   1.159   0.840   2.716 -0.3456 -0.0231 -0.2813
17326TIP3    H173469   1.172   0.758   2.669 -2.4071  0.2580 -1.4079
17326TIP3    H273470   1.095   0.819   2.784  0.5934  0.2062  0.6851
17327TIP3   OH273471   6.349   4.663  13.260 -0.5211 -0.8959  0.2886
17327TIP3    H173472   6.307   4.590  13.307  0.7464 -2.1543 -0.5264
17327TIP3    H273473   6.399   4.621  13.190  0.1177  0.7769 -0.2657
17328TIP3   OH273474   0.869   3.986  15.617  0.0947 -0.0773  0.1248
17328TIP3    H173475   0.867   3.901  15.572 -2.7617  0.8096 -1.5843
17328TIP3    H273476   0.950   4.027  15.587  1.0210 -1.7906  0.2165
17329TIP3   OH273477   0.475   1.415   4.575  0.5607 -0.2401 -0.0977
17329TIP3    H173478   0.422   1.474   4.628 -0.5969  0.6118 -2.1142
17329TIP3    H273479   0.426   1.333   4.573  0.8822 -0.4469  0.6056
17330TIP3   OH273480   1.874   1.116  16.295 -0.2322 -0.3044  0.3085
17330TIP3    H173481   1.813   1.044  16.279  0.8642 -1.5586  1.6203
17330TIP3    H273482   1.855   1.143  16.385 -0.6522  1.0934 -0.1801
17331TIP3   OH273483   0.300   6.586  11.193 -0.8557 -0.0892  0.0649
17331TIP3    H173484   0.216   6.607  11.153 -0.2824  0.2152 -0.9929
17331TIP3    H273485   0.308   6.647  11.266 -0.3995  1.6366 -1.3875
17332TIP3   OH273486   2.761   6.117   5.281 -0.6501 -0.3149 -0.0097
17332TIP3    H173487   2.674   6.116   5.242  0.4888 -1.3615 -2.6441
17332TIP3    H273488   2.769   6.204   5.321 -2.7649 -0.1159  0.0088
17333TIP3   OH273489   3.408   2.170   3.087 -0.7987 -0.1578  0.2123
17333TIP3    H173490   3.366   2.174   3.001 -0.1971 -3.6926 -0.2876
17333TIP3    H273491   3.352   2.114   3.140  1.0019 -1.4074  0.8444
17334TIP3   OH273492   5.001   2.504   2.790 -0.0166  0.1336  0.2051
17334TIP3    H173493   5.047   2.586   2.768 -1.2356  1.6220  2.9432
17334TIP3    H273494   5.070   2.438   2.794  1.1038  1.1813 -1.1725
17335TIP3   OH273495   5.319   0.837   4.845 -0.1470 -0.3372  0.2957
17335TIP3    H173496   5.246   0.899   4.841  0.2679  0.0822 -0.9510
17335TIP3    H273497   5.296   0.768   4.784 -0.1422 -0.9187  0.9458
17336TIP3   OH273498   0.541   2.848  15.607 -0.0839  0.0815  0.2247
17336TIP3    H173499   0.594   2.925  15.586 -1.4116  1.2401  1.0716
17336TIP3    H273500   0.584   2.809  15.683 -1.3722  1.9927  1.9885
17337TIP3   OH273501   0.678   6.456  12.720  0.1214  0.4261  0.3715
17337TIP3    H173502   0.704   6.367  12.742 -0.7018 -0.3318 -1.5695
17337TIP3    H273503   0.760   6.505  12.714  0.6638 -0.4821  0.2882
17338TIP3   OH273504   4.208   3.766  16.492  0.2041  0.1873  0.3364
17338TIP3    H173505   4.298   3.761  16.460 -0.1814 -0.7927 -0.6354
17338TIP3    H273506   4.165   3.688  16.456 -1.0540  0.6941  0.7053
17339TIP3   OH273507   6.211   2.919  17.140 -0.6648 -0.0865  0.3155
17339TIP3    H173508   6.210   2.855  17.211 -2.1495 -0.3753  0.0536
17339TIP3    H273509   6.213   3.003  17.185 -1.8241 -0.2582  0.7388
17340TIP3   OH273510   4.564   0.577  17.238 -0.0516 -0.2435 -0.4226
17340TIP3    H173511   4.613   0.659  17.234  0.8266 -0.7652 -0.5102
17340TIP3    H273512   4.529   0.566  17.150  0.6811 -0.4698 -0.6935
17341TIP3   OH273513   4.296   1.997  14.928 -0.5695  0.4234  0.0276
17341TIP3    H173514   4.305   1.911  14.969 -0.2040  1.2306  1.7129
17341TIP3    H273515   4.334   1.986  14.841  0.9417 -0.7128  0.7967
17342TIP3   OH273516   1.297   0.098   0.014 -0.5592  0.6373 -0.3377
17342TIP3    H173517   1.380   0.088   0.060 -1.9206  1.7014  2.5189
17342TIP3    H273518   1.289   0.193   0.001 -1.7136  0.6202  0.1983
17343TIP3   OH273519   1.994   2.931   4.718  0.6588 -0.0121 -0.3562
17343TIP3    H173520   1.933   2.860   4.734  2.0345 -0.8134  1.5357
17343TIP3    H273521   2.052   2.898   4.650  0.0049  0.1341 -0.9945
17344TIP3   OH273522   4.079   5.447  15.357 -0.4713 -0.0515  0.0342
17344TIP3    H173523   4.013   5.388  15.321 -0.2216  0.4786 -1.3188
17344TIP3    H273524   4.162   5.402  15.342 -0.3675  0.1664 -0.0549
17345TIP3   OH273525   2.409   5.299   0.927 -0.3217  0.5176 -0.0828
17345TIP3    H173526   2.433   5.374   0.872  1.9730 -0.3387 -0.2867
17345TIP3    H273527   2.371   5.339   1.006 -0.4826  1.8450 -0.8130
17346TIP3   OH273528   4.534   6.359  11.430 -0.0546 -0.2543 -0.7946
17346TIP3    H173529   4.618   6.361  11.383  0.2915 -0.1460 -0.1872
17346TIP3    H273530   4.558   6.333  11.519 -0.8037 -1.3264 -0.8966
17347TIP3   OH273531   5.934   1.096   6.418 -0.0950  0.1398  0.1712
17347TIP3    H173532   5.976   1.181   6.408 -1.3263  0.9458  1.5713
17347TIP3    H273533   5.850   1.105   6.373 -0.3299 -0.2394  0.5213
17348TIP3   OH273534   4.446   5.084   3.481 -0.5644  0.0548  0.1150
17348TIP3    H173535   4.443   5.178   3.464 -0.8589  0.2240  1.0590
17348TIP3    H273536   4.355   5.061   3.501 -0.5868 -0.5349 -0.6846
17349TIP3   OH273537   2.978   6.193   1.029 -0.4344 -0.1483  0.3690
17349TIP3    H173538   2.995   6.180   0.936 -0.3688 -4.3147  0.8635
17349TIP3    H273539   2.883   6.189   1.038 -0.3926 -0.8240  0.5786
17350TIP3   OH273540   5.362   0.221  11.805 -0.1212 -0.0459  0.6178
17350TIP3    H173541   5.303   0.218  11.729  0.4779 -1.1446  0.1916
17350TIP3    H273542   5.438   0.270  11.774  0.4643 -1.1700  0.2632
17351TIP3   OH273543   6.136   2.146   3.174 -0.1883  0.0948 -0.4379
17351TIP3    H173544   6.216   2.193   3.196 -0.2509 -0.1816  0.4088
17351TIP3    H273545   6.075   2.215   3.146 -0.0584  0.4548  0.1399
17352TIP3   OH273546   5.590   1.739   5.492 -0.8024 -0.7023 -0.1560
17352TIP3    H173547   5.615   1.659   5.538 -1.6494 -1.9402 -1.7729
17352TIP3    H273548   5.497   1.750   5.513 -1.3328 -1.5801 -1.9480
17353TIP3   OH273549   6.208   6.496  13.625 -0.5389 -0.1975  0.1689
17353TIP3    H173550   6.188   6.432  13.557 -1.3497 -0.4741  0.6659
17353TIP3    H273551   6.287   6.461  13.668 -1.3652 -1.2115  0.8818
17354TIP3   OH273552   3.615   0.566   1.581 -0.1693 -0.0922  0.4882
17354TIP3    H173553   3.692   0.532   1.626 -0.2375 -1.3112 -0.2935
17354TIP3    H273554   3.568   0.616   1.648 -1.0842 -3.1876  2.2705
17355TIP3   OH273555   0.421   3.241   1.529  0.6277  0.9809 -0.2358
17355TIP3    H173556   0.425   3.293   1.449  0.4722 -1.5677 -1.9719
17355TIP3    H273557   0.372   3.295   1.591  2.3065  3.7380 -1.2599
17356TIP3   OH273558   5.443   2.604  15.219 -0.4718  0.3785  0.2238
17356TIP3    H173559   5.405   2.521  15.247 -2.0139  0.8206 -0.4771
17356TIP3    H273560   5.384   2.635  15.149  0.3418  1.8205  0.1523
17357TIP3   OH273561   3.312   0.773   0.306 -0.5131 -0.4491  0.7073
17357TIP3    H173562   3.276   0.862   0.313 -3.4856 -1.7402  2.8152
17357TIP3    H273563   3.399   0.780   0.345 -0.8081  1.4851  1.0913
17358TIP3   OH273564   2.599   0.626   6.355 -0.1601 -0.5220  0.4324
17358TIP3    H173565   2.597   0.708   6.307  1.9584 -0.6048  0.1924
17358TIP3    H273566   2.558   0.562   6.295  0.7126 -0.2278 -0.4834
17359TIP3   OH273567   5.113   3.651   4.497 -0.6462 -0.0109 -0.7268
17359TIP3    H173568   5.194   3.602   4.481 -0.3246  0.6147 -0.9977
17359TIP3    H273569   5.137   3.743   4.487 -1.1609  0.2338  0.2011
17360TIP3   OH273570   4.713   1.698  11.953 -0.0744 -0.0554 -0.6812
17360TIP3    H173571   4.644   1.631  11.946  1.2650 -1.6152  0.5469
17360TIP3    H273572   4.697   1.739  12.037 -0.4703  0.7112 -1.1262
17361TIP3   OH273573   2.938   5.406   5.314  0.2689 -0.1692 -0.2004
17361TIP3    H173574   2.989   5.440   5.240  0.1898  0.2777 -0.0518
17361TIP3    H273575   2.979   5.323   5.335  0.3782 -0.2329 -0.6610
17362TIP3   OH273576   3.943   4.566   3.054  0.6117 -0.2134 -0.5090
17362TIP3    H173577   3.982   4.569   3.141 -0.7142  1.3539  0.0575
17362TIP3    H273578   4.018   4.567   2.994  1.5001  1.2299  0.5758
17363TIP3   OH273579   2.100   0.730   2.251  0.2454 -0.1670  0.6749
17363TIP3    H173580   2.171   0.794   2.247 -0.6430  0.8726  1.4822
17363TIP3    H273581   2.142   0.650   2.284  1.3806 -0.0504 -0.4685
17364TIP3   OH273582   2.394   5.028  13.917 -0.2437 -0.1097  0.2452
17364TIP3    H173583   2.467   4.969  13.896 -0.5269 -0.4087  0.0936
17364TIP3    H273584   2.428   5.084  13.986  0.1239 -0.2702  0.1962
17365TIP3   OH273585   1.484   5.774  16.665 -0.1057 -0.1191  0.2374
17365TIP3    H173586   1.418   5.768  16.595 -0.3117 -1.2360  0.5097
17365TIP3    H273587   1.437   5.749  16.744  0.8808 -1.9652  0.2717
17366TIP3   OH273588   2.075   3.195   1.687  0.0841 -0.3025 -0.6070
17366TIP3    H173589   2.045   3.132   1.621 -1.7474 -0.6041  0.4931
17366TIP3    H273590   2.082   3.278   1.639 -1.1876 -0.5278 -1.2024
17367TIP3   OH273591   3.456   2.290  12.585  0.2531  0.8962 -0.8280
17367TIP3    H173592   3.526   2.336  12.630 -0.2627  0.5525  0.3561
17367TIP3    H273593   3.477   2.299  12.492  2.9958 -0.9607 -0.4550
17368TIP3   OH273594   5.808   5.056  15.123 -0.1823  0.7369 -0.0317
17368TIP3    H173595   5.811   5.152  15.127  0.0722  0.6957  0.6354
17368TIP3    H273596   5.899   5.028  15.127 -0.0614  0.5590 -2.6925
17369TIP3   OH273597   1.217   6.492   0.958  0.1936  0.1130 -0.1571
17369TIP3    H173598   1.306   6.464   0.938  0.6761  1.3295  0.2369
17369TIP3    H273599   1.161   6.431   0.910  1.2400 -0.4794 -0.6385
17370TIP3   OH273600   2.077   1.593  13.171  0.0343 -0.4332  1.3873
17370TIP3    H173601   2.071   1.688  13.159  2.1190 -0.3801  0.4606
17370TIP3    H273602   2.073   1.581  13.266  0.0119  0.5981  1.5312
17371TIP3   OH273603   6.659   3.194   3.845  0.1050 -0.5737 -0.1928
17371TIP3    H173604   6.610   3.254   3.789  0.0176 -1.7126 -1.3617
17371TIP3    H273605   6.659   3.236   3.931 -0.3110  0.8907 -0.8926
17372TIP3   OH273606   5.653   0.593  13.195  0.1301  0.9004 -0.1998
17372TIP3    H173607   5.669   0.566  13.286 -2.3419 -0.2900 -0.0890
17372TIP3    H273608   5.626   0.685  13.202 -0.0010  0.8280  0.2584
17373TIP3   OH273609   4.471   5.658  15.280 -0.7386 -0.3715  0.3248
17373TIP3    H173610   4.484   5.564  15.263 -1.6152 -0.7161  1.4839
17373TIP3    H273611   4.553   5.687  15.319  0.1757 -0.2515 -1.6339
17374TIP3   OH273612   3.267   2.760   1.479  0.0319 -0.0115  0.7358
17374TIP3    H173613   3.252   2.698   1.408 -0.1210  0.4737  0.3373
17374TIP3    H273614   3.219   2.724   1.553 -3.0023  1.4000 -0.4525
17375TIP3   OH273615   1.803   3.333   3.099  0.0199 -0.8023  0.2474
17375TIP3    H173616   1.715   3.328   3.137  0.1240 -0.4598  0.5348
17375TIP3    H273617   1.792   3.388   3.021  0.0697 -0.3828  0.5390
17376TIP3   OH273618   2.758   4.609   4.273 -0.3921 -0.2684 -0.0547
17376TIP3    H173619   2.781   4.636   4.362 -0.2740 -0.0867 -0.1398
17376TIP3    H273620   2.765   4.689   4.221  1.6393 -0.8004 -0.6309
17377TIP3   OH273621   3.645   3.678   6.093  0.6333  0.3395  0.2588
17377TIP3    H173622   3.704   3.616   6.136  0.1330 -1.2462 -1.2777
17377TIP3    H273623   3.702   3.749   6.063  1.8052 -1.1791 -1.2207
17378TIP3   OH273624   3.560   1.244  14.719  0.4460  0.0141 -0.0820
17378TIP3    H173625   3.601   1.311  14.664 -0.8533  0.3473 -0.6610
17378TIP3    H273626   3.566   1.164  14.668  0.1624  0.1133 -0.2725
17379TIP3   OH273627   6.735   1.440   3.820  0.0790  1.1395 -0.0479
17379TIP3    H173628   6.826   1.467   3.818  0.5543 -0.4357 -0.9672
17379TIP3    H273629   6.686   1.516   3.789  1.1618  1.6759 -0.4571
17380TIP3   OH273630   4.494   0.907   5.657  0.3778  0.1158 -0.2783
17380TIP3    H173631   4.567   0.966   5.640 -1.0451  1.2199 -2.8522
17380TIP3    H273632   4.424   0.964   5.691  0.5297 -0.8610  1.7686
17381TIP3   OH273633   3.262   2.739  14.202  0.6956  0.0401  0.5239
17381TIP3    H173634   3.271   2.831  14.225 -0.8217  0.5932 -0.9846
17381TIP3    H273635   3.169   2.728  14.182  0.2861 -2.4793  3.3802
17382TIP3   OH273636   6.233   2.796  11.511 -0.3145  0.5787 -0.5030
17382TIP3    H173637   6.149   2.753  11.526 -1.5588  2.7868 -0.9174
17382TIP3    H273638   6.249   2.845  11.592  1.4568 -1.1983  0.2598
17383TIP3   OH273639   5.513   2.667  16.375 -0.6090  0.0450 -0.1935
17383TIP3    H173640   5.536   2.747  16.327  1.2305 -1.0198 -1.1365
17383TIP3    H273641   5.577   2.602  16.345 -1.7776 -1.6549  0.9242
17384TIP3   OH273642   1.597   0.101   2.024  0.2951 -0.3047  0.2744
17384TIP3    H173643   1.662   0.034   2.047  0.3279 -0.4656 -0.2622
17384TIP3    H273644   1.634   0.144   1.946  0.8445  1.1462  1.3157
17385TIP3   OH273645   4.176   4.463   0.913 -0.1288  0.0229  0.2214
17385TIP3    H173646   4.109   4.460   0.844 -0.3063 -3.1031  0.4723
17385TIP3    H273647   4.218   4.548   0.901 -1.0828  0.1221 -2.8618
17386TIP3   OH273648   5.058   6.346   6.139 -0.5117  0.0427  0.2624
17386TIP3    H173649   5.148   6.363   6.110  0.0380 -0.1410  1.7799
17386TIP3    H273650   5.008   6.421   6.108  0.1627  0.1415 -0.6099
17387TIP3   OH273651   5.307   0.971   1.581 -0.0959  0.5803 -0.6739
17387TIP3    H173652   5.289   1.040   1.644 -2.5596  0.2053 -0.9333
17387TIP3    H273653   5.222   0.950   1.542  0.8365 -1.5391 -1.6887
17388TIP3   OH273654   6.150   3.575   3.719 -0.4353 -0.4933  0.2278
17388TIP3    H173655   6.118   3.561   3.630  1.1491  3.2872 -1.0357
17388TIP3    H273656   6.235   3.532   3.721  0.7335  1.6606 -1.0097
17389TIP3   OH273657   1.836   3.958  14.444 -0.5291  0.3317 -0.4379
17389TIP3    H173658   1.894   3.928  14.374 -1.9756 -1.1835 -1.0094
17389TIP3    H273659   1.748   3.935  14.414 -1.3056  1.1132  1.1680
17390TIP3   OH273660   6.263   3.507  17.096 -0.1225 -0.1711 -0.0430
17390TIP3    H173661   6.260   3.478  17.004  0.0448 -1.1046  0.2403
17390TIP3    H273662   6.352   3.540  17.108 -0.4614  0.9470 -0.5079
17391TIP3   OH273663   6.437   6.049   2.344 -0.1939 -0.2321 -0.3518
17391TIP3    H173664   6.398   5.982   2.289 -0.2133 -0.3675 -0.1754
17391TIP3    H273665   6.494   6.099   2.286  0.8925 -1.2680 -0.1959
17392TIP3   OH273666   3.569   4.679   3.812  0.0777  0.1809  0.1397
17392TIP3    H173667   3.611   4.716   3.889 -1.4745 -0.6922  1.4247
17392TIP3    H273668   3.587   4.743   3.742  1.1169  1.1852  1.3024
17393TIP3   OH273669   6.320   5.831  12.960 -0.2220  0.1094  0.2464
17393TIP3    H173670   6.348   5.920  12.936 -0.1100  0.1151  0.3980
17393TIP3    H273671   6.394   5.776  12.937  1.5418  0.6000  4.3607
17394TIP3   OH273672   4.264   5.827   3.578 -0.0147  0.3515  0.1998
17394TIP3    H173673   4.284   5.736   3.596  0.2876  0.1046 -1.3496
17394TIP3    H273674   4.349   5.872   3.580  0.1609  0.1443 -1.5297
17395TIP3   OH273675   0.508   1.908   5.328  0.4648  0.5161  0.2351
17395TIP3    H173676   0.436   1.923   5.266  0.1886  2.5500  1.0130
17395TIP3    H273677   0.547   1.994   5.341  2.4380 -0.4027  0.5955
17396TIP3   OH273678   0.536   2.313   3.048  0.0208  0.3362  0.2936
17396TIP3    H173679   0.567   2.403   3.039 -1.7821  0.8980 -0.5342
17396TIP3    H273680   0.511   2.287   2.959  0.4507 -0.9584  0.5422
17397TIP3   OH273681   0.301   3.148   6.658  0.1030 -0.1216 -0.7705
17397TIP3    H173682   0.292   3.100   6.576  0.0787 -0.7183 -0.4228
17397TIP3    H273683   0.249   3.099   6.721 -0.2726  0.6040 -0.5076
17398TIP3   OH273684   4.784   1.468  11.788 -0.4620 -0.2210 -0.0428
17398TIP3    H173685   4.692   1.455  11.812 -0.1507  0.3794  1.5242
17398TIP3    H273686   4.800   1.560  11.804  1.0833 -0.8298  2.1469
17399TIP3   OH273687   6.380   0.158   4.063 -0.3237  0.5059  0.2438
17399TIP3    H173688   6.468   0.184   4.091 -0.5861  0.3910  1.1784
17399TIP3    H273689   6.347   0.103   4.134 -1.2269  0.7072 -0.0119
17400TIP3   OH273690   1.327   1.617  11.411 -0.1671  0.6255 -0.5871
17400TIP3    H173691   1.335   1.608  11.316  0.7765 -0.4107 -0.4207
17400TIP3    H273692   1.240   1.584  11.432  0.2711 -0.7264 -0.8977
17401TIP3   OH273693   4.919   6.425  10.518  0.4460 -0.0829 -0.2079
17401TIP3    H173694   4.906   6.497  10.456 -0.6915 -0.8468 -0.8692
17401TIP3    H273695   4.895   6.463  10.603  1.3170  0.7571 -0.3316
17402TIP3   OH273696   6.254   2.481  16.316 -0.2191  0.1446 -0.4306
17402TIP3    H173697   6.314   2.500  16.388 -1.0524  0.6496  0.1333
17402TIP3    H273698   6.294   2.523  16.240  1.0125 -0.9581 -0.4182
17403TIP3   OH273699   2.051   0.022  11.444  0.2057  0.6789  0.2780
17403TIP3    H173700   1.983  -0.035  11.409 -0.7763  0.9502  1.6658
17403TIP3    H273701   2.123   0.016  11.381 -1.2572  0.7177 -1.4286
17404TIP3   OH273702   6.561   0.525  17.203  0.6400 -0.2468 -0.1913
17404TIP3    H173703   6.614   0.584  17.257 -1.1506  0.9354  0.3243
17404TIP3    H273704   6.530   0.459  17.264 -1.3245  1.0488  0.2564
17405TIP3   OH273705   4.441   1.649  15.391 -0.5503 -0.2180 -0.9071
17405TIP3    H173706   4.475   1.673  15.477 -1.5128  0.5356 -0.7381
17405TIP3    H273707   4.384   1.721  15.366 -0.3219 -0.4551 -2.1644
17406TIP3   OH273708   1.521   4.253   1.349 -0.0955  0.0665 -0.4429
17406TIP3    H173709   1.426   4.239   1.347 -0.4438  2.1687  0.1980
17406TIP3    H273710   1.553   4.208   1.272 -1.3957 -2.1857  0.2741
17407TIP3   OH273711   1.522   3.323   6.296  0.3069 -0.0016  0.4784
17407TIP3    H173712   1.601   3.326   6.242 -1.2411 -1.7562 -1.9973
17407TIP3    H273713   1.536   3.249   6.355 -0.1753 -1.5027 -1.2134
17408TIP3   OH273714   2.503   5.308  11.200  0.3465 -0.3586  0.0034
17408TIP3    H173715   2.524   5.326  11.292 -1.0798  1.0730  0.0705
17408TIP3    H273716   2.503   5.213  11.193 -0.2632 -0.4891  1.6505
17409TIP3   OH273717   0.036   0.965  14.855  0.1676  0.3128 -0.1191
17409TIP3    H173718  -0.000   1.040  14.808  0.0671 -0.8578 -1.9358
17409TIP3    H273719  -0.041   0.912  14.878  0.4840 -0.6942 -1.3903
17410TIP3   OH273720   4.352   0.348  15.163  0.1395  0.2300 -0.6573
17410TIP3    H173721   4.324   0.320  15.076 -2.3475  0.3811  0.0351
17410TIP3    H273722   4.341   0.269  15.218 -2.1066  1.1313  0.2762
17411TIP3   OH273723   0.471   3.532  11.922  0.6760  0.0991 -0.3884
17411TIP3    H173724   0.537   3.583  11.969  0.3560  1.9587 -1.9091
17411TIP3    H273725   0.511   3.514  11.836  0.6933 -2.0465  0.0253
17412TIP3   OH273726   6.175   3.638   0.033  0.2647 -0.2331  0.0759
17412TIP3    H173727   6.177   3.607  -0.058  0.7628  0.7159 -0.2402
17412TIP3    H273728   6.196   3.731   0.027  2.0969 -0.5356  1.3116
17413TIP3   OH273729   5.051   3.222  10.060 -0.4637 -0.3336 -0.2351
17413TIP3    H173730   5.110   3.295  10.078 -0.4950 -0.3039 -0.2540
17413TIP3    H273731   5.109   3.153  10.027 -0.4035 -0.4015  0.0146
17414TIP3   OH273732   4.108   3.978   4.372  0.1365  0.2468 -0.2112
17414TIP3    H173733   4.056   3.905   4.405 -0.9391  0.1783 -1.9666
17414TIP3    H273734   4.047   4.052   4.368  0.8546  0.8733  0.2173
17415TIP3   OH273735   0.827   6.225  16.410 -0.0127  0.1909 -0.3053
17415TIP3    H173736   0.794   6.262  16.492  0.0008  0.9169 -0.6178
17415TIP3    H273737   0.803   6.290  16.344  2.0004  0.7177 -0.5456
17416TIP3   OH273738   6.244   3.677   5.394 -0.4132  0.2473  0.0742
17416TIP3    H173739   6.211   3.727   5.469 -0.1157 -1.1641  1.1588
17416TIP3    H273740   6.180   3.693   5.325 -2.1307 -0.5920  1.4490
17417TIP3   OH273741   1.739   4.761  14.726  0.2602  0.1338 -0.3171
17417TIP3    H173742   1.797   4.711  14.669  2.2624  2.8490 -0.7584
17417TIP3    H273743   1.687   4.815  14.667 -0.7830 -0.2525  0.2266
17418TIP3   OH273744   3.697   6.130   3.941 -0.1040 -0.4812  0.1946
17418TIP3    H173745   3.704   6.207   3.884  1.5288 -2.3293 -2.2140
17418TIP3    H273746   3.767   6.140   4.004 -1.5434  1.2832  1.5705
17419TIP3   OH273747   4.876   0.601  11.678 -0.4930 -0.6376  0.3092
17419TIP3    H173748   4.824   0.564  11.606  0.5099  1.0467 -1.3252
17419TIP3    H273749   4.820   0.668  11.716 -0.5893 -0.7447  0.3570
17420TIP3   OH273750   4.283   1.923   5.589 -0.0825 -0.0711  0.0656
17420TIP3    H173751   4.199   1.904   5.548 -0.2375  0.2636  0.2233
17420TIP3    H273752   4.340   1.947   5.516 -0.1246 -0.3011 -0.0417
17421TIP3   OH273753   1.291   4.826  11.955  0.0502 -0.2685  0.0408
17421TIP3    H173754   1.282   4.828  12.050 -0.5292 -1.5314  0.0180
17421TIP3    H273755   1.248   4.746  11.928 -2.3730  1.5174 -1.5852
17422TIP3   OH273756   6.132   3.260   0.586 -0.2132  0.3699 -0.1516
17422TIP3    H173757   6.042   3.242   0.613  0.1743 -0.2216  0.7694
17422TIP3    H273758   6.185   3.209   0.646  0.6664 -1.2616 -2.2478
17423TIP3   OH273759   5.016   6.712   4.010 -0.4108 -0.4356 -0.0185
17423TIP3    H173760   5.089   6.715   3.948 -1.0010  0.4982 -0.6844
17423TIP3    H273761   4.963   6.638   3.980 -2.1051  1.6119 -2.2788
17424TIP3   OH273762   4.096   4.499  14.527  0.1236 -0.3130  0.1366
17424TIP3    H173763   4.158   4.570  14.542 -0.9689  0.8852 -0.9428
17424TIP3    H273764   4.040   4.499  14.605  0.4696 -0.3416  0.3830
17425TIP3   OH273765   6.112   5.522  15.524  0.3563  0.2045  0.4768
17425TIP3    H173766   6.054   5.559  15.457  0.9547 -0.1917 -0.2736
17425TIP3    H273767   6.179   5.589  15.537  1.1433 -0.3794 -0.4980
17426TIP3   OH273768   3.610   1.967   2.816  0.6622  0.0701 -0.2747
17426TIP3    H173769   3.531   1.988   2.767  0.8129  1.8570  0.2281
17426TIP3    H273770   3.635   2.048   2.860  2.2809 -0.6888  0.2902
17427TIP3   OH273771   1.743   1.065  13.015 -0.3995  0.6995 -0.8253
17427TIP3    H173772   1.838   1.063  13.001  0.1276 -1.9497  2.4117
17427TIP3    H273773   1.706   1.086  12.929  3.0830  1.3873 -2.2316
17428TIP3   OH273774   4.611   4.385  13.615 -0.3825 -0.2839 -0.2536
17428TIP3    H173775   4.648   4.469  13.589 -0.6400  0.6061  2.1355
17428TIP3    H273776   4.681   4.322  13.600 -0.8418 -0.0448 -3.9953
17429TIP3   OH273777   0.839   4.506  14.987 -0.7109 -0.2652  0.1616
17429TIP3    H173778   0.848   4.580  15.046 -2.1686 -1.2176  1.6258
17429TIP3    H273779   0.900   4.440  15.022 -0.0022 -0.0513 -0.6606
17430TIP3   OH273780   6.253   3.649  10.730  0.2486 -0.3595 -0.4137
17430TIP3    H173781   6.237   3.654  10.636 -0.4495 -1.5137 -0.3589
17430TIP3    H273782   6.166   3.655  10.770  0.3590 -1.9386  0.0738
17431TIP3   OH273783   6.687   1.909   0.791 -0.0633 -0.2196  0.1249
17431TIP3    H173784   6.730   1.829   0.760  1.2263  0.6652 -0.4008
17431TIP3    H273785   6.742   1.940   0.862 -1.5902 -0.7956  1.5879
17432TIP3   OH273786   4.605   2.932   3.597 -0.9456  0.2183 -0.2619
17432TIP3    H173787   4.514   2.907   3.581 -0.8054  1.1842 -2.7044
17432TIP3    H273788   4.649   2.916   3.514  0.9126  0.7268  0.6091
17433TIP3   OH273789   2.050   0.764   1.639 -0.8100 -0.1692  0.8118
17433TIP3    H173790   2.036   0.728   1.726  0.5997 -1.3148  0.5713
17433TIP3    H273791   2.003   0.704   1.581 -1.3068  0.3019  0.7164
17434TIP3   OH273792   1.243   5.475   5.256  0.0361 -0.0159  0.3391
17434TIP3    H173793   1.253   5.447   5.347  1.1862  0.6447  0.4294
17434TIP3    H273794   1.149   5.479   5.242 -0.1552  0.8858  1.8203
17435TIP3   OH273795   4.130   0.219   5.306 -0.2829 -0.0012  0.1415
17435TIP3    H173796   4.042   0.222   5.344  0.1185  0.4130  1.0651
17435TIP3    H273797   4.182   0.171   5.371  0.1756 -0.2528 -0.4038
17436TIP3   OH273798   1.021   2.022   4.670 -0.2003  0.6594  0.0249
17436TIP3    H173799   1.081   1.947   4.675 -0.8825  0.1548  0.7883
17436TIP3    H273800   1.009   2.037   4.576  0.2691  0.0651 -0.1309
17437TIP3   OH273801   4.885   1.446  13.171 -0.0478  0.1477 -0.7288
17437TIP3    H173802   4.820   1.376  13.165  0.4403 -0.2722 -1.1747
17437TIP3    H273803   4.966   1.407  13.137  0.5744  0.4898  0.3344
17438TIP3   OH273804   1.802   0.161  13.443  0.2147 -0.1737 -0.3350
17438TIP3    H173805   1.739   0.105  13.398 -1.3425  0.9167  0.4484
17438TIP3    H273806   1.818   0.234  13.382  2.8785 -1.8357 -1.7102
17439TIP3   OH273807   5.396   6.031  13.515 -0.2514  0.1505 -0.2848
17439TIP3    H173808   5.403   5.939  13.541  1.0861  0.0873 -0.8615
17439TIP3    H273809   5.319   6.034  13.457 -1.8716 -0.1216  1.7889
17440TIP3   OH273810   3.293   6.440   3.481  0.5291  0.0930  0.2451
17440TIP3    H173811   3.383   6.467   3.464  0.6125  0.2898  0.9804
17440TIP3    H273812   3.242   6.480   3.411  0.8208  1.1926  0.6477
17441TIP3   OH273813   4.323   4.877   4.763 -0.3692  0.4122 -0.4732
17441TIP3    H173814   4.321   4.958   4.815 -0.2383 -0.0334  0.2279
17441TIP3    H273815   4.230   4.855   4.750 -0.4201  1.0364 -1.2452
17442TIP3   OH273816   5.078   1.654   5.361  0.7573  0.0754  0.2891
17442TIP3    H173817   5.069   1.644   5.267 -0.6512  1.0219  0.3006
17442TIP3    H273818   5.088   1.749   5.374  2.5736 -0.1940  0.9736
17443TIP3   OH273819   6.350   5.214  11.029 -0.8119 -0.1457 -1.0253
17443TIP3    H173820   6.281   5.260  11.076 -1.2955  0.3422 -2.2012
17443TIP3    H273821   6.316   5.125  11.019  0.2147 -0.8718  1.4343
17444TIP3   OH273822   2.661   3.149  14.121 -0.0071 -0.2112 -0.4611
17444TIP3    H173823   2.671   3.097  14.041  3.2434  0.1406 -0.3102
17444TIP3    H273824   2.676   3.086  14.192  0.2800  0.1732 -0.1820
17445TIP3   OH273825   3.444   1.678   1.355  0.1377  0.3492 -0.4558
17445TIP3    H173826   3.513   1.736   1.323 -1.1343  1.1474 -1.7831
17445TIP3    H273827   3.437   1.700   1.448  1.0337  0.9143 -0.5084
17446TIP3   OH273828   5.027   1.251   4.063 -0.1259  0.2640  0.1200
17446TIP3    H173829   4.963   1.232   3.994 -0.9937  0.2251  0.9332
17446TIP3    H273830   5.101   1.194   4.043  0.1435  1.1384 -1.4946
17447TIP3   OH273831   3.790   0.005  11.359  0.2260  0.5064  0.0040
17447TIP3    H173832   3.731   0.067  11.400 -0.3679 -0.8824  1.3146
17447TIP3    H273833   3.858   0.059  11.318 -0.5218  2.0099  0.7209
17448TIP3   OH273834   5.234   6.473   4.502 -0.0690 -0.0381  0.0591
17448TIP3    H173835   5.299   6.541   4.484  0.1887 -0.0571  0.9069
17448TIP3    H273836   5.151   6.511   4.473  0.0375  0.7330  0.7428
17449TIP3   OH273837   1.459   3.752   5.106  0.0316 -0.1460 -0.1503
17449TIP3    H173838   1.502   3.668   5.089  0.8008 -0.2008  1.9784
17449TIP3    H273839   1.458   3.795   5.020  0.4112 -1.9595 -1.0909
17450TIP3   OH273840   1.880   6.245  15.059  0.2189 -0.1529  0.1984
17450TIP3    H173841   1.891   6.299  14.981  0.6098  0.6544  0.8068
17450TIP3    H273842   1.839   6.164  15.027  0.8010 -0.0183 -0.9083
17451TIP3   OH273843   2.710   6.502  16.586 -0.1400  0.2082  0.0002
17451TIP3    H173844   2.724   6.500  16.680  0.9788 -2.0110 -0.1995
17451TIP3    H273845   2.614   6.500  16.576 -0.2426 -0.3813  1.0556
17452TIP3   OH273846   0.097   4.735   4.896  0.0254 -0.0531  0.1711
17452TIP3    H173847   0.059   4.655   4.860  1.0917 -0.2639 -0.5194
17452TIP3    H273848   0.143   4.706   4.975  1.1496 -0.2896 -0.5506
17453TIP3   OH273849   1.557   3.974   0.893  0.2539 -0.4801 -0.2309
17453TIP3    H173850   1.518   3.895   0.855  0.1579 -0.2820 -0.5483
17453TIP3    H273851   1.532   3.971   0.985  1.4327 -1.5557  0.0748
17454TIP3   OH273852   0.605   3.682   3.922  0.3395 -0.4911  0.5007
17454TIP3    H173853   0.581   3.774   3.934  2.5201  0.1128  0.5786
17454TIP3    H273854   0.652   3.680   3.839 -0.8125 -1.7856 -0.1350
17455TIP3   OH273855   2.582   6.791  14.947 -0.1749 -0.0788 -0.2218
17455TIP3    H173856   2.592   6.710  14.896  2.2049  0.4950 -0.6883
17455TIP3    H273857   2.623   6.773  15.031 -0.4752  0.3429  0.0207
17456TIP3   OH273858   1.289   1.413   3.340 -0.1082 -0.0049 -0.5641
17456TIP3    H173859   1.349   1.376   3.404  1.7443 -0.8116 -2.6919
17456TIP3    H273860   1.337   1.485   3.300 -1.3888  0.7550 -0.7650
17457TIP3   OH273861   5.460   5.646  17.287 -0.1133  0.0426  0.0885
17457TIP3    H173862   5.425   5.558  17.274  1.2003 -0.5209  0.3047
17457TIP3    H273863   5.463   5.655  17.383  0.7721 -0.0947  0.0737
17458TIP3   OH273864   2.805   1.321  14.251  0.1124  0.2675 -0.2036
17458TIP3    H173865   2.867   1.392  14.232  1.5752 -0.3393  2.1281
17458TIP3    H273866   2.806   1.266  14.172  2.1929  0.5201 -0.3773
17459TIP3   OH273867   5.236   2.660  13.307 -0.3044 -0.4852 -0.3683
17459TIP3    H173868   5.149   2.646  13.346  0.2033  0.6577  1.2424
17459TIP3    H273869   5.270   2.737  13.353  0.5134  0.6518 -2.8153
17460TIP3   OH273870   0.222   5.583  13.024 -0.0332 -0.3558  0.1929
17460TIP3    H173871   0.142   5.630  13.048 -1.0246 -1.0586 -1.6260
17460TIP3    H273872   0.254   5.546  13.106 -1.5881 -0.0721  0.9458
17461TIP3   OH273873   4.656   1.161  11.818 -0.3052 -0.3001  0.3312
17461TIP3    H173874   4.670   1.178  11.911  2.6053  0.8808 -0.2865
17461TIP3    H273875   4.588   1.224  11.793 -0.6233 -0.1643  1.4982
17462TIP3   OH273876   5.864   0.431  15.474  0.4004  0.0860 -0.3749
17462TIP3    H173877   5.836   0.342  15.492 -0.2774  0.1908 -0.8934
17462TIP3    H273878   5.921   0.454  15.547  0.2866 -0.6417 -0.0613
17463TIP3   OH273879   6.118   5.534  11.804  0.0454 -0.4436 -0.4842
17463TIP3    H173880   6.101   5.468  11.737  2.0061 -0.0504 -1.4022
17463TIP3    H273881   6.153   5.485  11.878 -1.4133 -0.7845  0.0064
17464TIP3   OH273882   0.383   1.769   5.053  0.1140  0.4872 -0.3165
17464TIP3    H173883   0.344   1.834   5.112  0.7004 -1.1068  1.9167
17464TIP3    H273884   0.446   1.818   5.001 -0.9432  2.0784 -0.1246
17465TIP3   OH273885   3.285   2.472   6.298  0.3452  0.4302 -0.2266
17465TIP3    H173886   3.363   2.424   6.326  1.7102  1.8512 -1.4955
17465TIP3    H273887   3.234   2.484   6.379  2.1699  0.7696  0.9103
17466TIP3   OH273888   2.299   4.338  13.695 -0.0734  0.1539 -0.1270
17466TIP3    H173889   2.344   4.257  13.670 -0.8709  0.2522 -1.9515
17466TIP3    H273890   2.363   4.407  13.679 -0.4090  0.1666 -1.5212
17467TIP3   OH273891   5.116   4.531   4.080 -0.4818  0.5159  0.0001
17467TIP3    H173892   5.043   4.470   4.092  1.0026 -1.3477 -0.1664
17467TIP3    H273893   5.075   4.613   4.055 -2.5859 -0.2242  0.8822
17468TIP3   OH273894   4.430   1.710   6.422  0.2228  0.2455 -0.5562
17468TIP3    H173895   4.420   1.651   6.347  2.6932 -0.0988 -0.6672
17468TIP3    H273896   4.385   1.665   6.494 -1.3053  0.1135 -1.5640
17469TIP3   OH273897   3.337   3.835  16.935  0.3178 -0.2656 -0.7487
17469TIP3    H173898   3.242   3.835  16.946  0.2267 -0.2172 -1.5421
17469TIP3    H273899   3.370   3.791  17.014 -0.4640 -2.0641 -1.3947
17470TIP3   OH273900   2.344   6.616   2.864 -0.3050  0.5409  0.6646
17470TIP3    H173901   2.251   6.600   2.882  0.0047 -2.5812 -0.3556
17470TIP3    H273902   2.353   6.604   2.770  1.1969  0.5332  0.7971
17471TIP3   OH273903   1.313   5.653   2.444 -0.2444 -0.2399  0.5877
17471TIP3    H173904   1.221   5.664   2.419 -0.2595 -1.0908  0.2486
17471TIP3    H273905   1.358   5.728   2.406 -0.5562 -0.5999 -0.4939
17472TIP3   OH273906   5.589   6.676   2.060  0.1866 -0.2434  0.0908
17472TIP3    H173907   5.499   6.646   2.073 -0.0362  0.7918  1.0227
17472TIP3    H273908   5.580   6.770   2.043  1.0134 -0.3401 -0.9152
17473TIP3   OH273909   1.706   3.178  16.727 -0.5104 -0.2412  0.1667
17473TIP3    H173910   1.786   3.182  16.675 -1.0312 -2.5888 -0.8825
17473TIP3    H273911   1.646   3.240  16.685 -0.4841 -1.1807 -1.2939
17474TIP3   OH273912   5.266   1.243  11.080 -0.1032  0.0222 -0.5874
17474TIP3    H173913   5.293   1.293  11.003  0.5664 -0.2686 -0.5487
17474TIP3    H273914   5.263   1.152  11.050 -1.0209  0.0437 -0.5809
17475TIP3   OH273915   5.557   3.801  12.421 -0.8709 -0.2159 -0.3002
17475TIP3    H173916   5.582   3.837  12.507  0.8082 -1.0818 -0.3927
17475TIP3    H273917   5.638   3.763  12.387 -1.8424 -1.1041 -1.6769
17476TIP3   OH273918   2.046   5.040  14.453  0.2335  0.1375 -0.0824
17476TIP3    H173919   1.954   5.024  14.475 -0.3278  1.5580 -1.2402
17476TIP3    H273920   2.048   5.132  14.427  1.6308 -0.3586 -1.8281
17477TIP3   OH273921   6.317   3.130  11.916  0.0981  0.6466 -0.2454
17477TIP3    H173922   6.278   3.151  12.001 -0.3222 -0.7390 -0.0870
17477TIP3    H273923   6.408   3.107  11.935  0.6574  2.5448 -0.4562
17478TIP3   OH273924   6.153   3.994  17.063  0.8261 -0.2547  0.3834
17478TIP3    H173925   6.128   3.988  17.155 -0.1434 -0.7172  0.0997
17478TIP3    H273926   6.241   3.956  17.059  0.7850 -0.4307  1.0810
17479TIP3   OH273927   4.352   4.760   1.033  0.2220  1.0791 -0.1561
17479TIP3    H173928   4.357   4.855   1.044 -1.0031  0.9214  1.9147
17479TIP3    H273929   4.409   4.724   1.101 -1.2644  0.2843  0.6983
17480TIP3   OH273930   4.921   1.368   4.751  0.4448  0.3938  0.4276
17480TIP3    H173931   4.859   1.298   4.730  0.8714  0.3732 -0.7750
17480TIP3    H273932   4.932   1.416   4.669  0.0514  1.9702  1.2808
17481TIP3   OH273933   3.513   2.516  14.615 -0.1870 -0.6971 -0.1139
17481TIP3    H173934   3.510   2.577  14.541 -1.3870 -0.0635  0.4487
17481TIP3    H273935   3.563   2.563  14.682 -0.4015 -0.6625  0.0213
17482TIP3   OH273936   4.788   0.704  13.271 -1.2183 -0.1863 -0.1850
17482TIP3    H173937   4.800   0.669  13.359 -2.0077 -1.2689 -0.4967
17482TIP3    H273938   4.829   0.791  13.274  2.8994 -2.0076 -0.0122
17483TIP3   OH273939   5.235   2.070   6.250 -0.5605  0.3601 -0.1315
17483TIP3    H173940   5.245   2.137   6.182 -0.3018  1.7222  1.2107
17483TIP3    H273941   5.265   1.989   6.209 -2.3961  0.7367 -2.3058
17484TIP3   OH273942   6.225   3.856  13.384 -0.0343 -0.5113  0.4970
17484TIP3    H173943   6.289   3.823  13.447  0.0450 -2.4676 -0.5634
17484TIP3    H273944   6.275   3.914  13.327  0.6389 -1.3692  0.1969
17485TIP3   OH273945   5.253   3.815  17.096  0.0576 -0.3144 -0.0699
17485TIP3    H173946   5.263   3.846  17.006  0.9622 -1.0514 -0.2331
17485TIP3    H273947   5.299   3.731  17.098 -1.7517 -1.3311  0.5390
17486TIP3   OH273948   5.802   4.745   1.105 -0.5652  0.3743 -0.0943
17486TIP3    H173949   5.849   4.751   1.022  0.1962  1.4312  0.4007
17486TIP3    H273950   5.843   4.671   1.150  1.6662  2.1708  0.9427
17487TIP3   OH273951   4.762   6.547   1.181 -0.4744  0.2789 -0.4590
17487TIP3    H173952   4.726   6.536   1.093 -0.6089 -0.4087 -0.3182
17487TIP3    H273953   4.703   6.496   1.237  1.0503 -1.3118 -0.2908
17488TIP3   OH273954   2.062   4.170  16.901 -0.1599 -0.0286  0.7943
17488TIP3    H173955   2.142   4.217  16.881  0.0324  0.0666  1.7591
17488TIP3    H273956   2.020   4.221  16.970 -0.0771 -1.1175  1.6689
17489TIP3   OH273957   3.065   6.522   4.818 -0.1148  0.7480 -0.6707
17489TIP3    H173958   3.081   6.441   4.769  1.2534  1.0392 -0.7340
17489TIP3    H273959   3.009   6.495   4.891 -1.1705  0.0898 -1.7102
17490TIP3   OH273960   0.427   6.226  12.672 -0.0542  0.0566  0.2953
17490TIP3    H173961   0.494   6.292  12.690  0.5624 -0.1061 -1.3151
17490TIP3    H273962   0.430   6.214  12.577 -2.1872 -0.1525  0.2328
17491TIP3   OH273963   5.345   3.392  11.491 -0.1422 -1.1447 -0.0408
17491TIP3    H173964   5.357   3.381  11.397 -0.9496 -1.0718 -0.1620
17491TIP3    H273965   5.268   3.450  11.498  1.1313  0.5119  0.6388
17492TIP3   OH273966   5.694   3.609   3.212 -0.0060  0.3029 -0.1388
17492TIP3    H173967   5.674   3.562   3.293 -1.5165  0.3834 -0.4532
17492TIP3    H273968   5.618   3.665   3.197  1.5939  2.5737  0.0112
17493TIP3   OH273969   5.551   2.140   6.250 -0.5077 -0.3706  0.3301
17493TIP3    H173970   5.517   2.226   6.272  0.4093  1.0430 -3.3371
17493TIP3    H273971   5.500   2.113   6.173  0.4113 -2.3022  0.3548
17494TIP3   OH273972   3.265   3.757   3.037 -0.1580 -0.3755  0.3409
17494TIP3    H173973   3.323   3.818   3.082  1.1693 -1.5218  0.2091
17494TIP3    H273974   3.292   3.670   3.068 -0.1300 -1.0919 -1.6093
17495TIP3   OH273975   4.583   4.074   1.757  0.3661  0.1621 -0.0234
17495TIP3    H173976   4.633   4.016   1.698 -1.9570 -0.3511 -1.5361
17495TIP3    H273977   4.628   4.158   1.750  1.7270 -0.5680 -0.4362
17496TIP3   OH273978   1.298   4.600   5.433 -0.0945  0.6235 -0.4098
17496TIP3    H173979   1.368   4.646   5.388  0.2701 -0.2073 -0.7096
17496TIP3    H273980   1.340   4.522   5.470 -0.3218  1.4023  1.5838
17497TIP3   OH273981   0.651   3.201   5.204 -0.7411 -0.0765 -0.2093
17497TIP3    H173982   0.648   3.152   5.122  0.1187  0.9041 -0.8470
17497TIP3    H273983   0.589   3.272   5.192  0.6633  1.0939 -0.7140
17498TIP3   OH273984   6.691   4.956  15.009 -0.2189 -0.0646  0.2427
17498TIP3    H173985   6.679   4.990  15.098  2.1260  0.4677  0.4086
17498TIP3    H273986   6.690   5.034  14.953  0.0098 -0.2316  0.0060
17499TIP3   OH273987   6.807   5.668  12.747 -0.1138  0.3468  0.4667
17499TIP3    H173988   6.800   5.622  12.830 -1.2095  0.4865  0.4544
17499TIP3    H273989   6.722   5.710  12.735 -0.4397 -0.7494 -1.3445
17500TIP3   OH273990   5.811   2.573   0.462  0.3888  0.0968 -0.1404
17500TIP3    H173991   5.895   2.610   0.435  0.8614 -1.5166 -0.8866
17500TIP3    H273992   5.769   2.546   0.381 -0.3443 -0.1938  0.3322
17501TIP3   OH273993   0.741   6.017   3.931 -0.1310 -0.3071  0.7517
17501TIP3    H173994   0.646   6.007   3.937 -0.6303  3.9426  1.9192
17501TIP3    H273995   0.764   5.990   3.842 -2.7017  0.3133 -0.1210
17502TIP3   OH273996   0.689   3.775  10.905 -0.7344  0.9508 -0.1393
17502TIP3    H173997   0.641   3.692  10.910 -0.0749  0.6265  0.8292
17502TIP3    H273998   0.771   3.752  10.862  0.0058  0.8503  1.3165
17503TIP3   OH273999   4.983   4.978   0.581  0.3677  0.6518  0.4603
17503TIP3    H174000   4.929   5.057   0.573 -0.1448  0.2317 -0.2886
17503TIP3    H274001   4.966   4.947   0.670  1.3405  1.9361  1.0943
17504TIP3   OH274002   5.109   2.368  12.681 -0.3024  0.0079 -0.4102
17504TIP3    H174003   5.179   2.393  12.621  0.4925  1.8437  1.1866
17504TIP3    H274004   5.142   2.291  12.726 -0.2920 -0.5100 -1.2988
17505TIP3   OH274005   6.356   2.913  13.328  0.1131 -0.3228 -0.1645
17505TIP3    H174006   6.360   3.009  13.331 -2.4398 -0.1755 -0.3315
17505TIP3    H274007   6.432   2.888  13.275  0.0026  1.6985 -1.3362
17506TIP3   OH274008   3.789   2.678  16.649 -0.2160  0.1088  0.0432
17506TIP3    H174009   3.792   2.742  16.720  0.5901  0.3575 -0.2145
17506TIP3    H274010   3.870   2.692  16.601 -0.2026 -0.8701 -0.2213
17507TIP3   OH274011   1.235   3.275  17.012  0.7557  0.1866  0.0019
17507TIP3    H174012   1.222   3.351  16.955  1.2595 -0.1543 -0.5615
17507TIP3    H274013   1.154   3.271  17.064  0.1434  0.2749 -0.9287
17508TIP3   OH274014   4.133   2.275  13.829  0.4093 -0.3584  0.0955
17508TIP3    H174015   4.064   2.339  13.809 -1.2270 -1.1074  3.0406
17508TIP3    H274016   4.088   2.191  13.829  1.3834 -0.8978  1.7757
17509TIP3   OH274017   3.778   2.582   5.804 -0.0801 -0.0267  0.0597
17509TIP3    H174018   3.814   2.668   5.783  2.2796 -1.0125 -0.0677
17509TIP3    H274019   3.777   2.578   5.899  1.3074 -0.4350  0.0709
17510TIP3   OH274020   2.239   1.484   1.469  0.1566 -0.3277  0.1751
17510TIP3    H174021   2.156   1.443   1.493 -0.4872 -0.3513 -1.9469
17510TIP3    H274022   2.217   1.576   1.454  1.1878  0.4077  2.8389
17511TIP3   OH274023   6.315   4.672  16.299  0.0725 -0.7722  0.1667
17511TIP3    H174024   6.318   4.618  16.220  3.3177 -0.6250  0.1402
17511TIP3    H274025   6.296   4.760  16.267 -2.8128 -1.3881 -0.0002
17512TIP3   OH274026   3.717   5.115  14.141  0.3353 -1.4159  0.1290
17512TIP3    H174027   3.732   5.038  14.196  1.1469 -3.1476 -2.4412
17512TIP3    H274028   3.687   5.080  14.057  0.6479  1.0795 -1.0764
17513TIP3   OH274029   2.664   1.000   0.853  0.1524 -0.0910  0.8689
17513TIP3    H174030   2.741   0.950   0.878  0.5135 -0.6029 -1.1786
17513TIP3    H274031   2.682   1.029   0.764 -0.9821  1.8640  1.2470
17514TIP3   OH274032   1.791   5.822  11.487 -0.1103 -0.0589  0.3089
17514TIP3    H174033   1.735   5.841  11.563 -0.2932  0.9196 -0.0658
17514TIP3    H274034   1.759   5.738  11.455 -1.0425  0.2443  0.4102
17515TIP3   OH274035   1.009   5.766  14.126  0.7000  0.4354  0.0509
17515TIP3    H174036   1.012   5.830  14.055 -0.0205  1.4052  0.8858
17515TIP3    H274037   0.944   5.801  14.187  0.4302 -1.0065  0.6026
17516TIP3   OH274038   4.648   4.255   3.469  0.0851 -0.9552  0.0057
17516TIP3    H174039   4.618   4.345   3.455  0.8608 -0.7359 -0.2931
17516TIP3    H274040   4.743   4.262   3.475  0.1150 -1.6855  0.5475
17517TIP3   OH274041   6.616   5.269  10.758  0.5633  0.4201 -0.6288
17517TIP3    H174042   6.562   5.191  10.774  0.1606  0.4054 -2.0101
17517TIP3    H274043   6.706   5.235  10.751  0.9170  0.5652  2.6732
17518TIP3   OH274044   3.773   3.629   5.630 -0.6173  0.5809 -0.0666
17518TIP3    H174045   3.786   3.602   5.721 -2.2112 -2.7712 -0.7729
17518TIP3    H274046   3.679   3.644   5.623 -0.5207  0.6306 -1.2209
17519TIP3   OH274047   4.441   4.222  16.300  0.3372  0.3889 -0.4910
17519TIP3    H174048   4.412   4.165  16.372  0.3666 -0.1372 -0.8950
17519TIP3    H274049   4.506   4.169  16.253  1.9737  1.5565  0.4177
17520TIP3   OH274050   3.944   1.101   0.051 -0.2080 -0.7379 -0.0965
17520TIP3    H174051   4.018   1.159   0.034  0.0592 -1.4775 -1.6327
17520TIP3    H274052   3.898   1.097  -0.033 -0.8941 -1.7949  0.3191
17521TIP3   OH274053   3.140   6.427   0.588 -0.6578  0.2895  0.6941
17521TIP3    H174054   3.141   6.507   0.642  1.6757  2.3180 -2.1704
17521TIP3    H274055   3.096   6.453   0.507  0.5449 -1.1791 -0.4666
17522TIP3   OH274056   5.524   3.393   4.499  0.0761 -0.2626  0.3129
17522TIP3    H174057   5.528   3.487   4.515  3.4348 -0.8481  3.4058
17522TIP3    H274058   5.430   3.375   4.491 -0.7671  2.9993  1.8627
17523TIP3   OH274059   0.659   0.172   4.523 -0.0958 -0.2880 -0.5239
17523TIP3    H174060   0.638   0.079   4.532 -0.3730 -0.1924 -0.1738
17523TIP3    H274061   0.634   0.211   4.607 -1.3325  0.3611 -1.1799
17524TIP3   OH274062   2.610   3.095  11.131  0.1141  0.0931 -0.1771
17524TIP3    H174063   2.547   3.065  11.066 -1.8216  0.2837  1.5709
17524TIP3    H274064   2.647   3.175  11.094 -0.1732 -0.3854 -1.5163
17525TIP3   OH274065   4.535   4.322  12.308 -0.5414 -0.1451 -0.2609
17525TIP3    H174066   4.606   4.264  12.333  0.7527  0.6834 -1.9260
17525TIP3    H274067   4.460   4.263  12.294  1.1652 -1.6709 -3.4982
17526TIP3   OH274068   0.446   1.093  10.811  0.0021  0.6646  0.0588
17526TIP3    H174069   0.404   1.153  10.748  0.4912 -0.2622 -1.1717
17526TIP3    H274070   0.535   1.084  10.779 -0.2727 -1.2856 -0.1651
17527TIP3   OH274071   2.681   0.942  13.699  0.2130 -0.0361 -0.9116
17527TIP3    H174072   2.721   1.010  13.646 -0.4500 -1.1946 -2.9692
17527TIP3    H274073   2.592   0.973  13.716  0.8258  0.9322  0.6909
17528TIP3   OH274074   3.839   5.709   4.129 -0.0894 -0.1486 -0.0290
17528TIP3    H174075   3.794   5.638   4.174 -0.5767 -0.1818 -0.5511
17528TIP3    H274076   3.775   5.739   4.064  0.6358 -0.1655 -0.7475
17529TIP3   OH274077   4.814   2.835   2.690  0.4353  0.1443 -0.3008
17529TIP3    H174078   4.894   2.829   2.637  1.3654  0.0926  1.0792
17529TIP3    H274079   4.830   2.909   2.749  0.1561 -0.9182  1.1214
17530TIP3   OH274080   6.608   5.522  11.351 -0.2061 -0.1427 -0.2550
17530TIP3    H174081   6.603   5.571  11.433 -0.0907  2.1739 -1.5888
17530TIP3    H274082   6.518   5.522  11.318 -0.0595 -0.1714 -0.6559
17531TIP3   OH274083   6.345   2.398  16.711 -0.1968  0.6502 -0.1182
17531TIP3    H174084   6.301   2.422  16.792 -1.2184 -1.1162 -0.1339
17531TIP3    H274085   6.300   2.319  16.681  1.3615  0.2322 -1.4361
17532TIP3   OH274086   1.699   4.709  15.720  0.5449  0.1392  0.3155
17532TIP3    H174087   1.781   4.722  15.767 -0.8847  1.2719  2.5788
17532TIP3    H274088   1.672   4.620  15.742 -0.0761  0.6357  1.6032
17533TIP3   OH274089   4.122   6.677  13.136 -0.5914  0.2725  0.5627
17533TIP3    H174090   4.177   6.666  13.059 -1.9742  1.3334 -0.6138
17533TIP3    H274091   4.038   6.638  13.112 -0.7135 -0.3402  1.9239
17534TIP3   OH274092   3.462   6.610   5.918  0.2814  0.2309  0.1455
17534TIP3    H174093   3.461   6.700   5.950 -2.1571  0.6288 -0.9974
17534TIP3    H274094   3.543   6.573   5.955  0.8089  2.5675  1.4360
17535TIP3   OH274095   3.236   4.488  17.147  0.1522  0.5049  0.3682
17535TIP3    H174096   3.314   4.543  17.154  1.2398 -0.9680  0.1319
17535TIP3    H274097   3.181   4.532  17.082  1.2347  1.0368 -0.2050
17536TIP3   OH274098   0.254   5.521   3.493 -0.1989  0.0924  0.3165
17536TIP3    H174099   0.275   5.431   3.519 -0.1665 -0.0636 -0.2544
17536TIP3    H274100   0.164   5.516   3.462  0.3745 -0.0817 -1.3440
17537TIP3   OH274101   2.854   4.572   2.990  0.1246 -0.1463  0.1606
17537TIP3    H174102   2.825   4.635   2.924 -1.8513 -1.2273 -0.0410
17537TIP3    H274103   2.808   4.491   2.968 -1.2194 -0.3135  3.3052
17538TIP3   OH274104   6.329   1.367  13.514 -0.7385  0.4840  0.0018
17538TIP3    H174105   6.405   1.342  13.567 -0.3449  0.8908 -0.3710
17538TIP3    H274106   6.345   1.326  13.429 -0.7560  0.8758 -0.1901
17539TIP3   OH274107   5.020   0.268   3.271  0.1146 -0.0591  0.4677
17539TIP3    H174108   5.007   0.224   3.355 -1.2565  1.6942  1.1940
17539TIP3    H274109   5.048   0.198   3.212  1.3984 -1.2634  2.4418
17540TIP3   OH274110   5.133   3.993  12.078  0.3796 -0.0999  0.3537
17540TIP3    H174111   5.208   4.050  12.094 -1.1933  1.7207  1.4328
17540TIP3    H274112   5.076   4.044  12.020  0.4494 -1.8964 -1.3545
17541TIP3   OH274113   5.262   2.722  10.250  0.1101  0.0888  0.1224
17541TIP3    H174114   5.201   2.650  10.269  0.4719 -0.5297 -1.0380
17541TIP3    H274115   5.345   2.694  10.289  0.1392  0.0779  0.0538
17542TIP3   OH274116   2.177   4.590  16.700  0.6021  0.3968  0.5558
17542TIP3    H174117   2.238   4.662  16.718  0.5049  0.5433  0.2941
17542TIP3    H274118   2.117   4.625  16.635  0.1092  0.3206  0.9694
17543TIP3   OH274119   0.511   2.134   2.613 -0.1606 -0.0989 -0.0754
17543TIP3    H174120   0.446   2.192   2.654  1.0363  1.1842  0.0716
17543TIP3    H274121   0.592   2.151   2.661  0.2997 -1.6555 -0.2735
17544TIP3   OH274122   4.988   1.241   6.038  0.3117 -0.0964 -0.0478
17544TIP3    H174123   5.027   1.167   5.993 -0.8759 -0.7260 -0.0700
17544TIP3    H274124   4.911   1.263   5.986  0.5983  1.0889  0.0200
17545TIP3   OH274125   4.011   4.908   4.086  0.1478  0.0289 -0.1469
17545TIP3    H174126   4.097   4.949   4.097 -0.2006  0.9527 -0.8085
17545TIP3    H274127   4.020   4.856   4.006 -0.4045  1.4701 -1.1671
17546TIP3   OH274128   4.852   6.722   0.072 -0.1133  0.0333 -0.3949
17546TIP3    H174129   4.944   6.715   0.044 -0.4151 -0.6249 -1.2622
17546TIP3    H274130   4.803   6.687  -0.002 -1.0041 -0.8042  0.5825
17547TIP3   OH274131   3.740   2.210  12.963  0.0925  0.0647 -0.3354
17547TIP3    H174132   3.826   2.224  12.923  0.2411 -0.7987 -0.3288
17547TIP3    H274133   3.680   2.203  12.889 -0.0010  0.8314 -0.3371
17548TIP3   OH274134   6.770   0.680   1.192 -0.2744  0.4477  0.6739
17548TIP3    H174135   6.748   0.591   1.219 -0.1897  1.1292  3.2088
17548TIP3    H274136   6.862   0.691   1.218  0.9854 -0.0484 -3.3622
17549TIP3   OH274137   2.050   4.337   1.179 -0.5513 -0.0761  0.5156
17549TIP3    H174138   2.104   4.298   1.110 -1.0390  2.2030 -1.2610
17549TIP3    H274139   2.110   4.353   1.251 -0.1311 -2.9577  0.8434
17550TIP3   OH274140   3.588   5.007   4.826  0.0668  0.6879  0.0960
17550TIP3    H174141   3.526   4.995   4.898  0.4045 -1.1494  0.0855
17550TIP3    H274142   3.670   5.030   4.869  0.7660 -2.2883  0.4533
17551TIP3   OH274143   0.375   1.219  14.504 -0.2230 -0.1757  0.0916
17551TIP3    H174144   0.334   1.136  14.528 -1.3827  0.7875  1.4940
17551TIP3    H274145   0.302   1.276  14.480  0.6139  0.2462 -1.5670
17552TIP3   OH274146   5.934   1.046   2.717  0.1347  0.4191 -0.5139
17552TIP3    H174147   5.894   1.009   2.795 -0.5375 -0.3758 -1.2300
17552TIP3    H274148   5.975   1.128   2.747  1.9296 -1.0402  1.1349
17553TIP3   OH274149   5.290   4.024   2.764  0.1742  0.1073 -0.1410
17553TIP3    H174150   5.341   3.978   2.831  0.0599 -0.0321 -0.1489
17553TIP3    H274151   5.256   3.954   2.708 -1.2784  0.0810  0.7393
17554TIP3   OH274152   0.018   2.069  10.837  0.3792  0.3563  0.4227
17554TIP3    H174153   0.044   1.976  10.840 -2.6120 -0.4804  1.9661
17554TIP3    H274154   0.028   2.094  10.745 -0.7290 -2.0788 -0.3854
17555TIP3   OH274155   0.750   3.688   3.218  0.1300  0.2226 -0.0991
17555TIP3    H174156   0.696   3.767   3.213 -0.7020 -0.3974 -1.1421
17555TIP3    H274157   0.693   3.617   3.188  0.5008 -0.9782  1.8980
17556TIP3   OH274158   5.795   5.455  16.470  0.0763 -0.7433 -0.2479
17556TIP3    H174159   5.773   5.488  16.382  0.6321 -1.2075 -0.5682
17556TIP3    H274160   5.831   5.532  16.515 -1.4308 -0.1785  0.0194
17557TIP3   OH274161   2.846   4.875  16.285  0.4142 -0.6677  0.5225
17557TIP3    H174162   2.795   4.915  16.215 -0.2179  0.5101  1.6307
17557TIP3    H274163   2.781   4.844  16.348  1.0218 -0.1696  1.4052
17558TIP3   OH274164   5.311   6.603  12.052  0.2351 -0.3593 -0.2916
17558TIP3    H174165   5.320   6.512  12.079  0.2363 -0.8926 -2.0714
17558TIP3    H274166   5.220   6.625  12.074  0.8074 -0.1445  2.0029
17559TIP3   OH274167   3.184   1.346   5.256 -0.3617 -0.4777  0.3921
17559TIP3    H174168   3.135   1.294   5.320  0.2850 -0.8992  0.5504
17559TIP3    H274169   3.199   1.429   5.300 -1.2654 -0.2155  0.1988
17560TIP3   OH274170   2.873   1.586   6.149 -0.3278  0.4458 -0.0167
17560TIP3    H174171   2.939   1.648   6.116 -1.2226  2.5794  2.0885
17560TIP3    H274172   2.790   1.631   6.135 -1.0531 -0.5951  0.9307
17561TIP3   OH274173   3.435   0.829   3.487 -0.6898  0.5791 -0.3531
17561TIP3    H174174   3.491   0.753   3.471 -1.0779 -0.0028  0.9860
17561TIP3    H274175   3.369   0.825   3.417 -1.1222 -0.7192  0.1222
17562TIP3   OH274176   4.120   0.166  11.815 -0.3248  0.1388  0.3135
17562TIP3    H174177   4.198   0.114  11.799 -0.6970 -0.2507 -0.2423
17562TIP3    H274178   4.073   0.118  11.884 -0.5326 -0.1167 -0.0061
17563TIP3   OH274179   2.328   1.505  13.636  0.2588  0.1785 -0.0976
17563TIP3    H174180   2.335   1.601  13.634  0.8072  0.1745  0.8951
17563TIP3    H274181   2.408   1.474  13.594  0.0158  0.1563 -0.5436
17564TIP3   OH274182   1.189   0.754  15.795  0.2981 -0.7893 -0.1719
17564TIP3    H174183   1.155   0.843  15.788  2.1073 -0.1256 -0.8085
17564TIP3    H274184   1.254   0.758  15.865  1.6261 -1.1824 -1.3495
17565TIP3   OH274185   0.989   0.638   5.403 -0.4935 -0.3110 -0.0126
17565TIP3    H174186   1.014   0.717   5.354 -0.4512 -1.4873 -1.9443
17565TIP3    H274187   0.944   0.671   5.480 -0.7349  1.6064 -0.9379
17566TIP3   OH274188   5.896   2.787  15.145 -0.5503  0.0153 -0.2489
17566TIP3    H174189   5.969   2.757  15.200  0.0284  1.8535  0.0184
17566TIP3    H274190   5.934   2.857  15.091 -1.5716 -0.5388 -1.7136
17567TIP3   OH274191   5.793   2.852   1.984 -0.2696  0.5127  0.5981
17567TIP3    H174192   5.793   2.933   1.932  0.8374  0.8221  1.0651
17567TIP3    H274193   5.757   2.878   2.068 -1.4251  0.1579  0.2214
17568TIP3   OH274194   1.001   6.018   0.358 -0.5771  0.1062 -0.2134
17568TIP3    H174195   0.935   5.950   0.375  2.0430 -2.4825  0.0005
17568TIP3    H274196   1.005   6.024   0.263 -0.4518 -0.3968 -0.2402
17569TIP3   OH274197   4.392   0.523   2.088 -0.0365  0.1207 -0.4356
17569TIP3    H174198   4.412   0.545   1.997 -2.4445  0.5769 -0.8681
17569TIP3    H274199   4.302   0.553   2.101  0.2197 -0.1117  2.0427
17570TIP3   OH274200   3.190   6.103  13.349  0.2707  0.5038 -0.3801
17570TIP3    H174201   3.260   6.146  13.300  3.6588 -2.3836  1.7076
17570TIP3    H274202   3.206   6.127  13.440 -0.1339 -1.8906  0.3671
17571TIP3   OH274203   2.521   2.791  11.514 -0.6177 -0.0550  0.3734
17571TIP3    H174204   2.564   2.824  11.435 -0.9631 -0.3297  0.0696
17571TIP3    H274205   2.563   2.707  11.530 -1.3160 -0.5126 -0.1559
17572TIP3   OH274206   6.774   4.340  11.228  0.1886 -0.0526 -0.0912
17572TIP3    H174207   6.693   4.294  11.205  0.0785 -0.4882  1.1409
17572TIP3    H274208   6.801   4.382  11.146 -1.0604 -0.2341 -0.6147
17573TIP3   OH274209   3.788   0.971   6.188  0.1578 -0.5556 -0.0788
17573TIP3    H174210   3.698   0.999   6.202 -0.0921 -1.3177 -0.1615
17573TIP3    H274211   3.827   0.970   6.276  0.5114  1.1952 -0.2006
17574TIP3   OH274212   1.130   5.196   5.961 -0.0783  0.4714 -0.2960
17574TIP3    H174213   1.035   5.206   5.968 -0.2493  0.1357 -1.9437
17574TIP3    H274214   1.142   5.116   5.910  1.1032  0.1088  0.5284
17575TIP3   OH274215   3.542   5.214  13.378 -0.0684  0.0746 -0.0339
17575TIP3    H174216   3.500   5.255  13.453  3.0173  0.8709  1.3673
17575TIP3    H274217   3.528   5.274  13.305 -0.3537  0.8712  0.6817
17576TIP3   OH274218   1.194   5.127   4.547 -0.5844  0.3458 -0.0523
17576TIP3    H174219   1.260   5.191   4.574 -0.1836 -0.2736  0.4152
17576TIP3    H274220   1.111   5.164   4.578 -0.3664  0.6780  0.1374
17577TIP3   OH274221   4.497   4.108  11.407  0.7065 -0.1326  0.3387
17577TIP3    H174222   4.580   4.101  11.361 -0.1858  0.6109 -1.4020
17577TIP3    H274223   4.513   4.174  11.475  1.3862  0.4149 -0.3464
17578TIP3   OH274224   5.283   2.544  13.066  0.2313 -0.3305  0.3106
17578TIP3    H174225   5.287   2.590  13.150 -0.3298  0.8079 -0.2733
17578TIP3    H274226   5.218   2.476  13.078 -0.2981  0.2300  0.6138
17579TIP3   OH274227   6.644   2.831  15.548 -0.9423 -0.1761  0.2340
17579TIP3    H174228   6.634   2.924  15.569 -0.0876 -0.0637  0.1504
17579TIP3    H274229   6.676   2.830  15.458 -1.6740 -0.5797 -0.0265
17580TIP3   OH274230   4.847   1.656   3.274  0.4625  0.1368  0.5903
17580TIP3    H174231   4.809   1.699   3.198 -0.4033 -0.1288  0.8604
17580TIP3    H274232   4.937   1.636   3.249  0.6096  1.2894  0.1412
17581TIP3   OH274233   6.539   1.725   3.271 -0.4297 -0.2121  0.0626
17581TIP3    H174234   6.604   1.769   3.325  0.2715 -0.0724 -0.8871
17581TIP3    H274235   6.550   1.762   3.184 -0.1576 -1.9119 -0.6546
17582TIP3   OH274236   6.275   4.895   2.136  0.2084  0.2153 -0.2596
17582TIP3    H174237   6.330   4.818   2.119  0.2481  0.0744  0.4855
17582TIP3    H274238   6.321   4.943   2.204 -0.1794  0.5296 -0.2151
17583TIP3   OH274239   1.622   0.845   2.812 -0.5435  0.1372  0.1838
17583TIP3    H174240   1.569   0.925   2.804  2.1381  1.8627 -1.0012
17583TIP3    H274241   1.699   0.872   2.862  0.8560 -1.4510 -1.0778
17584TIP3   OH274242   0.703   5.382   0.746 -0.5161 -0.1401 -0.1874
17584TIP3    H174243   0.607   5.379   0.737 -0.6101  1.8297  0.0590
17584TIP3    H274244   0.718   5.412   0.836  0.3043  2.2368 -1.0938
17585TIP3   OH274245   3.014   4.338   5.520  0.2531  0.3372  0.8678
17585TIP3    H174246   2.974   4.354   5.606 -0.3098  0.8554  0.5202
17585TIP3    H274247   3.063   4.418   5.502  0.2852  0.2708  0.6660
17586TIP3   OH274248   5.761   5.323   0.034 -0.0673 -0.4328  0.2944
17586TIP3    H174249   5.734   5.247   0.085 -0.6659  1.3721  2.8264
17586TIP3    H274250   5.680   5.359  -0.001  0.1336 -0.5379 -0.2858
17587TIP3   OH274251   2.842   1.634  14.943  0.2278  0.1722  0.1483
17587TIP3    H174252   2.859   1.715  14.991  0.3688  0.3574 -0.2156
17587TIP3    H274253   2.929   1.601  14.920  0.1517  0.1803 -0.1443
17588TIP3   OH274254   3.864   2.622  10.819  0.2553  0.1368  0.3626
17588TIP3    H174255   3.847   2.548  10.760 -0.1575 -0.4424  1.2002
17588TIP3    H274256   3.783   2.673  10.816  0.3494  0.2783  0.1920
17589TIP3   OH274257   5.942   1.175  14.231 -0.1077  0.0943  0.0424
17589TIP3    H174258   5.919   1.090  14.194  1.8282 -1.2854  1.8962
17589TIP3    H274259   6.033   1.189  14.206  0.1176  0.7941  1.2028
17590TIP3   OH274260   0.506   0.604   3.650  0.2926  0.0209 -0.0377
17590TIP3    H174261   0.542   0.547   3.718  1.0136  1.6037  0.9536
17590TIP3    H274262   0.512   0.553   3.569  1.1448 -1.1926  0.7758
17591TIP3   OH274263   5.842   1.338   2.827  0.0889  0.7244  0.1865
17591TIP3    H174264   5.833   1.383   2.743  1.2259 -0.9689 -0.8638
17591TIP3    H274265   5.931   1.303   2.826  0.1672  0.8291  2.1735
17592TIP3   OH274266   4.454   4.527  13.237 -0.0925  0.1110 -0.0551
17592TIP3    H174267   4.545   4.498  13.245 -0.1492 -0.6889 -2.0752
17592TIP3    H274268   4.404   4.460  13.283  0.2711  0.0966  0.3234
17593TIP3   OH274269   5.427   5.369   1.202 -0.1628 -0.2612 -0.8817
17593TIP3    H174270   5.465   5.455   1.185  0.0799 -0.4853 -1.4936
17593TIP3    H274271   5.349   5.387   1.254 -0.7932  0.4351 -2.0466
17594TIP3   OH274272   3.954   6.560  10.544 -0.4484 -0.4826  0.0242
17594TIP3    H174273   3.984   6.560  10.635  0.4866 -1.5399 -0.2701
17594TIP3    H274274   3.999   6.635  10.505 -1.8432  0.7387  0.7371
17595TIP3   OH274275   2.360   2.138  10.771 -0.5134  0.1879  0.4026
17595TIP3    H174276   2.424   2.162  10.837  0.2650  0.7977 -0.5528
17595TIP3    H274277   2.276   2.139  10.817  0.2281 -1.3602  1.8433
17596TIP3   OH274278   2.413   2.207  17.220  0.3557 -0.1906  0.7790
17596TIP3    H174279   2.373   2.179  17.303  0.4676 -1.8034  0.2895
17596TIP3    H274280   2.415   2.129  17.166 -0.3705  1.0070 -1.0373
17597TIP3   OH274281   6.173   0.304  16.922  0.1316  0.5388  0.4253
17597TIP3    H174282   6.119   0.242  16.873  0.8629  0.1229  0.1302
17597TIP3    H274283   6.118   0.382  16.932 -0.9342 -0.3040  1.1555
17598TIP3   OH274284   4.833   2.578  10.814  0.8830  0.2081  0.1584
17598TIP3    H174285   4.831   2.544  10.725  1.6924  0.1520  0.1603
17598TIP3    H274286   4.755   2.633  10.820  0.2102 -0.7040 -0.2168
17599TIP3   OH274287   2.541   1.855   2.057  0.0707  0.4333 -0.0260
17599TIP3    H174288   2.470   1.798   2.084 -0.5432  0.7831 -0.8587
17599TIP3    H274289   2.503   1.943   2.058  0.2960  0.5549 -1.0793
17600TIP3   OH274290   1.691   6.432  11.602  0.4017 -0.2244  0.2669
17600TIP3    H174291   1.694   6.484  11.522  2.3932  1.2079  1.2304
17600TIP3    H274292   1.607   6.453  11.642 -0.0549  0.0246 -0.8061
17601TIP3   OH274293   5.981   1.315  16.777  0.4174  0.2570 -0.0834
17601TIP3    H174294   5.983   1.373  16.853 -1.0882  0.3287 -0.0722
17601TIP3    H274295   5.917   1.356  16.718 -1.8531 -2.1900  0.5955
17602TIP3   OH274296   5.445   1.755   5.080 -0.3078  0.0844 -0.0507
17602TIP3    H174297   5.465   1.689   5.014  0.6502  1.6731 -1.3825
17602TIP3    H274298   5.477   1.718   5.162 -0.2161 -1.3099 -0.7072
17603TIP3   OH274299   3.795   3.997   4.127 -0.0660  0.2825  0.2475
17603TIP3    H174300   3.734   4.042   4.185 -1.0522 -1.5531  0.6924
17603TIP3    H274301   3.806   4.056   4.053 -2.4092  0.6591  0.1621
17604TIP3   OH274302   3.036   5.549  11.922 -0.7889  0.1992 -0.4123
17604TIP3    H174303   2.976   5.583  11.989 -1.0301 -0.3458 -0.3442
17604TIP3    H274304   3.115   5.526  11.970 -0.8344  0.1363 -0.3660
17605TIP3   OH274305   3.819   4.134   0.208 -0.1438  0.1169  0.3131
17605TIP3    H174306   3.823   4.093   0.121  0.3099  0.1603  0.3098
17605TIP3    H274307   3.740   4.188   0.206  0.2129  0.6233 -0.2997
17606TIP3   OH274308   3.284   4.538  15.535  0.9854  0.4194  0.7049
17606TIP3    H174309   3.362   4.488  15.510  1.1246  0.3701  1.2415
17606TIP3    H274310   3.224   4.526  15.462  0.6608 -1.2907  1.2280
17607TIP3   OH274311   2.870   5.580  12.584 -0.3851 -0.0514  0.3204
17607TIP3    H174312   2.801   5.643  12.563  1.0911  0.9007 -1.9236
17607TIP3    H274313   2.929   5.626  12.643 -0.6596 -0.2181  0.7278
17608TIP3   OH274314   3.390   3.197   1.103 -0.1059 -0.2460  0.3183
17608TIP3    H174315   3.333   3.241   1.167  1.1905  0.7794  0.7982
17608TIP3    H274316   3.368   3.105   1.111 -1.9044  0.1538  0.2934
17609TIP3   OH274317   2.991   4.039  11.169 -0.3539 -0.1261 -0.8369
17609TIP3    H174318   3.018   4.114  11.117  0.6747  0.3664  0.3681
17609TIP3    H274319   3.018   3.962  11.118  1.2590  0.3464 -0.7252
17610TIP3   OH274320   4.482   3.907  16.483  0.5298 -0.6323 -0.6636
17610TIP3    H174321   4.447   3.887  16.570 -0.1737 -1.1026 -1.0470
17610TIP3    H274322   4.577   3.904  16.493  0.4911  1.0719  0.5035
17611TIP3   OH274323   1.566   5.425  14.531  0.2163  0.8272  0.0697
17611TIP3    H174324   1.524   5.453  14.613 -1.7426  1.2409 -1.0343
17611TIP3    H274325   1.498   5.375  14.486  1.2095  0.7819 -1.4113
17612TIP3   OH274326   1.045   5.058   5.703 -0.1281  0.4606  0.2165
17612TIP3    H174327   1.009   5.147   5.698 -0.4884  0.2061 -2.6682
17612TIP3    H274328   1.128   5.064   5.655  0.2384 -0.5951  0.7039
17613TIP3   OH274329   5.469   1.609  13.311  0.2289 -0.2612  0.3290
17613TIP3    H174330   5.502   1.671  13.376 -0.4399  0.4342  0.0147
17613TIP3    H274331   5.421   1.663  13.248  1.2085 -0.8665 -0.9841
17614TIP3   OH274332   5.938   4.354   2.094 -0.5065 -0.4590  0.0877
17614TIP3    H174333   5.930   4.286   2.027 -2.1645 -0.1626 -0.0296
17614TIP3    H274334   5.854   4.400   2.092 -0.6032 -0.4776  2.4091
17615TIP3   OH274335   1.826   1.255  14.649 -0.8372  0.3002  0.4993
17615TIP3    H174336   1.760   1.312  14.689 -0.5863  1.1279 -0.2308
17615TIP3    H274337   1.824   1.278  14.556  4.2395  4.2958  1.1388
17616TIP3   OH274338   3.014   6.186  12.924 -0.2980  0.0144 -0.1740
17616TIP3    H174339   2.992   6.263  12.872 -0.2256  0.7803  0.8940
17616TIP3    H274340   3.096   6.155  12.887 -0.4673  0.2965 -0.7891
17617TIP3   OH274341   3.863   0.916   2.322  0.4176 -0.3083 -0.4067
17617TIP3    H174342   3.785   0.962   2.291  0.4215 -0.2839 -0.3801
17617TIP3    H274343   3.925   0.921   2.250  0.4694 -0.1505 -0.3499
17618TIP3   OH274344   1.782   4.145  11.749  0.1134  0.3699 -0.1343
17618TIP3    H174345   1.849   4.163  11.815  1.2983  0.2316 -1.2846
17618TIP3    H274346   1.722   4.083  11.792  0.4578  0.8494  1.0566
17619TIP3   OH274347   2.720   3.643  13.572 -0.2066  0.4939  0.8510
17619TIP3    H174348   2.733   3.657  13.478 -4.2131  0.2222  0.1626
17619TIP3    H274349   2.746   3.725  13.612  1.7970  0.5301 -0.4595
17620TIP3   OH274350   0.537   6.541  11.977 -0.0966 -0.3972 -0.0974
17620TIP3    H174351   0.446   6.523  11.956  0.2781 -1.1601 -1.1064
17620TIP3    H274352   0.535   6.573  12.067 -1.2488 -1.4824  0.2764
17621TIP3   OH274353   0.481   2.881  13.631  0.1723  0.3782 -0.5641
17621TIP3    H174354   0.481   2.967  13.673 -0.4477 -1.0265  2.3946
17621TIP3    H274355   0.574   2.858  13.623  0.2521 -0.3020  2.1088
17622TIP3   OH274356   4.231   5.563   2.304  0.3371 -0.3413  0.2337
17622TIP3    H174357   4.232   5.536   2.212 -0.2917  1.1475 -0.2166
17622TIP3    H274358   4.322   5.581   2.325  0.3647  0.2168 -0.3671
17623TIP3   OH274359   6.782   1.671  11.896  0.2653  0.1571  0.4375
17623TIP3    H174360   6.760   1.579  11.910  0.3822  0.0273 -0.2276
17623TIP3    H274361   6.725   1.699  11.824 -0.0554  0.7149  0.9032
17624TIP3   OH274362   4.895   3.414  14.952  0.1627 -0.0427  0.8433
17624TIP3    H174363   4.878   3.320  14.963 -0.2079 -0.0260  0.4281
17624TIP3    H274364   4.967   3.433  15.013  0.3986 -0.6444  0.7554
17625TIP3   OH274365   1.521   1.736   6.007  0.3330 -0.1639  0.2984
17625TIP3    H174366   1.498   1.712   6.097  2.0842 -0.2115  0.7519
17625TIP3    H274367   1.508   1.830   6.003 -0.6041 -0.2842  0.3284
17626TIP3   OH274368   1.970   0.081   3.703 -0.9529 -0.0603  0.1117
17626TIP3    H174369   2.034   0.131   3.652 -0.5124 -1.3729 -0.6413
17626TIP3    H274370   2.022   0.037   3.770 -1.4750  1.2950  1.4279
17627TIP3   OH274371   3.696   1.425   4.425 -0.0967 -0.1799  0.1943
17627TIP3    H174372   3.787   1.451   4.440 -0.5081  2.4561 -1.3791
17627TIP3    H274373   3.701   1.363   4.352  0.3604  1.2589 -1.0510
17628TIP3   OH274374   0.847   2.485  15.480 -0.0507  0.0785  0.0523
17628TIP3    H174375   0.788   2.561  15.482  1.6587  1.4188  0.4695
17628TIP3    H274376   0.920   2.512  15.425  0.9879 -0.9551  0.8756
17629TIP3   OH274377   3.791   0.414  15.401 -0.2002  0.0030  0.4857
17629TIP3    H174378   3.827   0.453  15.321  1.8410  0.5699  1.6364
17629TIP3    H274379   3.831   0.328  15.406  0.1278  0.1932  1.1944
17630TIP3   OH274380   2.857   0.610  14.015 -0.0966  0.4735  0.0303
17630TIP3    H174381   2.901   0.562  13.944  0.5610  0.6565  0.3076
17630TIP3    H274382   2.835   0.695  13.976 -1.3142 -0.0745 -0.4808
17631TIP3   OH274383   2.148   4.784  13.178  0.5903  0.2272 -0.3908
17631TIP3    H174384   2.137   4.877  13.157  1.3316  0.4246  0.0731
17631TIP3    H274385   2.233   4.779  13.222  0.4754 -0.6457 -0.2517
17632TIP3   OH274386   5.576   2.528  14.728  0.3438  0.1756  0.2506
17632TIP3    H174387   5.516   2.453  14.728  1.4870 -0.7606  1.5432
17632TIP3    H274388   5.520   2.604  14.746 -0.8038 -0.3744 -0.8999
17633TIP3   OH274389   3.201   5.548   4.843  0.1068  0.4559  0.4914
17633TIP3    H174390   3.252   5.583   4.770 -2.0097  3.3718  0.3172
17633TIP3    H274391   3.136   5.491   4.803 -0.0863  0.8598  0.2323
17634TIP3   OH274392   1.929   5.021  12.749  0.6512 -0.1516 -0.1104
17634TIP3    H174393   1.864   5.084  12.717  0.7721 -0.1644 -0.3825
17634TIP3    H274394   1.928   5.032  12.844  1.1448  0.7350 -0.1992
17635TIP3   OH274395   0.237   3.283   1.087 -0.5820  0.0686  0.6568
17635TIP3    H174396   0.322   3.310   1.053 -1.2925  0.6724 -0.6935
17635TIP3    H274397   0.257   3.210   1.145  0.9263  0.6593  0.9122
17636TIP3   OH274398   5.791   3.938   5.283  0.1239  0.4830 -0.4081
17636TIP3    H174399   5.719   3.998   5.266  0.4330  1.0894  0.3494
17636TIP3    H274400   5.856   3.991   5.328 -0.0261 -0.6579  1.2194
17637TIP3   OH274401   6.286   3.921  15.752  0.2511  0.0128  0.0043
17637TIP3    H174402   6.354   3.862  15.785 -0.3553  0.3683  1.9307
17637TIP3    H274403   6.306   4.005  15.792 -2.6835 -0.4111  2.5157
17638TIP3   OH274404   3.079   1.064  16.059 -0.2215  0.3290 -0.2770
17638TIP3    H174405   3.060   1.029  16.146  0.0088  1.4287  0.2183
17638TIP3    H274406   3.101   1.156  16.074 -0.6922  0.6602 -1.5535
17639TIP3   OH274407   4.514   2.437  12.040  0.0314 -0.0718 -0.2941
17639TIP3    H174408   4.476   2.524  12.036  1.3226  0.8080  3.6527
17639TIP3    H274409   4.573   2.432  11.965 -2.3529  1.2263 -2.3115
17640TIP3   OH274410   0.361   0.223   4.720 -0.0361  0.5675  0.1246
17640TIP3    H174411   0.443   0.254   4.759 -0.0362  1.6085 -0.6763
17640TIP3    H274412   0.295   0.283   4.754 -0.0672  1.3528 -1.2649
17641TIP3   OH274413   2.490   5.177  13.492 -0.0743  0.3467  0.5976
17641TIP3    H174414   2.402   5.200  13.523 -0.7573 -2.1849  0.6258
17641TIP3    H274415   2.549   5.217  13.557 -1.1899  1.7864  0.7535
17642TIP3   OH274416   6.584   0.143   1.907  0.5758  0.0503  0.2022
17642TIP3    H174417   6.561   0.225   1.950 -0.1618 -0.3061  0.4968
17642TIP3    H274418   6.562   0.157   1.815 -1.9344 -0.6655  0.6505
17643TIP3   OH274419   3.475   4.800  11.593  0.5228  0.2175  0.5146
17643TIP3    H174420   3.381   4.807  11.575  0.8832 -0.3571 -1.7097
17643TIP3    H274421   3.517   4.805  11.507  2.6076  1.5027  1.5681
17644TIP3   OH274422   2.949   0.501  15.531 -0.0406  0.2807 -0.2387
17644TIP3    H174423   2.910   0.529  15.614 -1.2135  1.6494 -1.2243
17644TIP3    H274424   3.028   0.453  15.557 -0.4978  0.5061  1.6702
17645TIP3   OH274425   0.585   0.957   0.175  0.0242  0.1530 -0.0688
17645TIP3    H174426   0.524   0.982   0.105 -0.2285 -0.5657 -0.1117
17645TIP3    H274427   0.563   0.865   0.194  1.1616 -0.1425 -0.1525
17646TIP3   OH274428   3.770   0.017  12.195  0.0830  0.3539 -0.4250
17646TIP3    H174429   3.816   0.098  12.215 -1.5056  0.8925  1.2290
17646TIP3    H274430   3.680   0.032  12.224 -0.1718 -2.1176  0.2232
17647TIP3   OH274431   3.918   5.058   3.433  0.2599 -0.0123  0.2324
17647TIP3    H174432   3.977   5.117   3.479  0.9222 -0.7106  0.2957
17647TIP3    H274433   3.831   5.090   3.455  0.5646 -0.2892  1.9250
17648TIP3   OH274434   6.065   6.780  12.538  0.7958 -0.4429  0.5918
17648TIP3    H174435   6.021   6.703  12.573  0.4883 -0.8992 -0.7464
17648TIP3    H274436   6.152   6.778  12.577  1.1741 -2.0929 -0.2841
17649TIP3   OH274437   1.391   5.686   5.165  0.1918 -0.1197 -0.0948
17649TIP3    H174438   1.303   5.722   5.152  0.6178  0.1359 -2.3910
17649TIP3    H274439   1.376   5.602   5.208 -1.2330 -0.3855 -1.0528
17650TIP3   OH274440   0.407   1.839  15.480  0.5567  0.4322 -0.4569
17650TIP3    H174441   0.424   1.903  15.549 -0.7344 -0.1114  0.3889
17650TIP3    H274442   0.382   1.891  15.404 -1.1427  0.9405  0.4173
17651TIP3   OH274443   3.901   2.722  15.354  0.1568  0.2405  0.3721
17651TIP3    H174444   3.866   2.685  15.435 -0.4527 -0.9433 -0.4081
17651TIP3    H274445   3.879   2.815  15.357  1.0705  0.4020  2.0498
17652TIP3   OH274446   4.282   0.958  15.185 -0.3156  0.6101  0.3479
17652TIP3    H174447   4.369   0.979  15.150 -0.7074 -0.4291 -1.3074
17652TIP3    H274448   4.225   1.027  15.152 -0.0975  1.3749  1.5581
17653TIP3   OH274449   5.333   5.049   2.246 -0.4600 -0.4451 -0.0188
17653TIP3    H174450   5.423   5.049   2.216 -0.5786 -1.0675 -0.3802
17653TIP3    H274451   5.340   5.043   2.342 -0.1292 -0.7561 -0.0627
17654TIP3   OH274452   1.291   3.558   1.679 -0.0063 -0.5018 -0.0398
17654TIP3    H174453   1.225   3.531   1.743 -0.4738  0.1373 -0.2552
17654TIP3    H274454   1.323   3.475   1.644 -0.1113 -0.8448  0.6487
17655TIP3   OH274455   0.584   0.895  16.931 -0.5820 -0.3443  0.3852
17655TIP3    H174456   0.665   0.932  16.965 -0.4901 -0.2146  0.0247
17655TIP3    H274457   0.537   0.970  16.895 -1.5773 -0.1586  2.0126
17656TIP3   OH274458   2.242   4.106  10.436 -0.4118 -0.3096 -0.4115
17656TIP3    H174459   2.303   4.041  10.402  0.9011  0.4946  0.3899
17656TIP3    H274460   2.205   4.147  10.358 -0.8852 -1.6634 -0.9201
17657TIP3   OH274461   3.058   5.967   5.631 -0.2229 -0.0547 -0.3379
17657TIP3    H174462   3.118   6.010   5.570 -0.1381  0.0996 -0.1465
17657TIP3    H274463   3.043   5.881   5.592  0.9117 -0.4696  0.1126
17658TIP3   OH274464   0.737   2.844   0.397  0.1012 -0.0375 -0.9807
17658TIP3    H174465   0.720   2.751   0.410  1.7611 -0.1529  0.6342
17658TIP3    H274466   0.811   2.847   0.337  2.2889  0.1109  1.6415
17659TIP3   OH274467   0.005   4.893   2.083  0.1489 -0.4599 -0.5750
17659TIP3    H174468  -0.004   4.824   2.149  1.5287 -0.6560 -0.5897
17659TIP3    H274469   0.090   4.877   2.042  0.2324  0.9231 -0.9664
17660TIP3   OH274470   1.855   2.837  13.952  0.4235 -0.2676 -0.3128
17660TIP3    H174471   1.827   2.748  13.932 -0.4412  0.0767 -0.6701
17660TIP3    H274472   1.947   2.829  13.976  0.0283 -1.4370  0.9053
17661TIP3   OH274473   1.319   4.990   2.231 -0.3772  0.0231 -0.0279
17661TIP3    H174474   1.255   4.941   2.179  0.0575 -0.8165  0.2325
17661TIP3    H274475   1.403   4.951   2.209 -0.0247  0.6793  0.1534
17662TIP3   OH274476   5.600   2.672  14.381  0.6553  0.5791 -0.1845
17662TIP3    H174477   5.660   2.668  14.306 -0.4225  0.1836 -1.0315
17662TIP3    H274478   5.518   2.637  14.348  0.4900 -0.6701  1.5130
17663TIP3   OH274479   1.645   2.535  10.920  0.3272  0.4806 -0.1114
17663TIP3    H174480   1.566   2.497  10.958  0.8970 -0.1040  0.5235
17663TIP3    H274481   1.662   2.613  10.971  1.8892 -1.0674  1.8127
17664TIP3   OH274482   6.221   3.997  11.560 -0.5190  0.2229  1.0870
17664TIP3    H174483   6.251   3.996  11.469 -2.1970 -1.0991  0.5192
17664TIP3    H274484   6.177   4.082  11.569 -0.2634  0.3990  0.7023
17665TIP3   OH274485   5.617   2.035   4.610  0.2111 -0.5474 -0.0749
17665TIP3    H174486   5.643   1.971   4.543 -0.9537 -0.2748 -0.7908
17665TIP3    H274487   5.663   2.115   4.585  0.0802 -0.5494 -0.3215
17666TIP3   OH274488   1.552   4.544   0.756  0.2061 -0.2435 -0.1836
17666TIP3    H174489   1.550   4.492   0.837  2.6673  0.5460  0.4358
17666TIP3    H274490   1.567   4.634   0.786 -1.5930  0.4702 -1.3900
17667TIP3   OH274491   4.306   2.489  15.050 -0.1915 -0.0946  0.3733
17667TIP3    H174492   4.244   2.554  15.083 -0.7367 -0.0563 -0.7269
17667TIP3    H274493   4.271   2.405  15.078 -0.1250  0.0039  0.7525
17668TIP3   OH274494   2.543   3.003   5.119  0.6263 -0.1024 -0.3089
17668TIP3    H174495   2.606   3.071   5.139  0.1842  0.6082 -1.2976
17668TIP3    H274496   2.506   3.028   5.035 -0.9667 -0.5040  0.2514
17669TIP3   OH274497   1.957   5.617  15.643  0.1257  0.3677 -0.1767
17669TIP3    H174498   2.003   5.536  15.620  1.1167  1.5520 -2.4880
17669TIP3    H274499   1.864   5.594  15.634  0.3447 -0.9426  0.7298
17670TIP3   OH274500   4.759   1.338  11.548  0.0761  0.3682  0.1064
17670TIP3    H174501   4.767   1.413  11.606 -1.9375 -0.2457  1.2056
17670TIP3    H274502   4.676   1.297  11.571  0.0758 -0.9266 -1.9901
17671TIP3   OH274503   6.233   0.585   5.889  0.0044 -0.4685  0.8427
17671TIP3    H174504   6.162   0.535   5.929  1.0173 -1.9907  0.7951
17671TIP3    H274505   6.299   0.591   5.958  1.4874 -2.5443 -0.3308
17672TIP3   OH274506   4.281   1.916  16.267  0.3825 -0.4212  0.0651
17672TIP3    H174507   4.316   2.003  16.287  0.1824 -0.6809  1.5813
17672TIP3    H274508   4.204   1.908  16.323 -1.0660 -0.5952 -1.8699
17673TIP3   OH274509   2.491   2.843  12.718 -0.2402  0.0096 -0.2347
17673TIP3    H174510   2.505   2.831  12.624 -0.2875 -0.9034 -0.1253
17673TIP3    H274511   2.479   2.755  12.753  0.6635  0.2831  0.7845
17674TIP3   OH274512   5.695   2.812   3.163 -1.0016  0.2962 -0.1559
17674TIP3    H174513   5.602   2.807   3.183 -0.7434  2.1114  1.6546
17674TIP3    H274514   5.738   2.806   3.249  0.6348 -1.7566 -1.0493
17675TIP3   OH274515   2.221   3.253  14.471  0.0641  0.5131 -0.5349
17675TIP3    H174516   2.139   3.232  14.515 -0.8634  0.3374 -2.2895
17675TIP3    H274517   2.282   3.183  14.497 -0.5123  0.3126  0.2832
17676TIP3   OH274518   0.679   6.124  15.880  0.0223  0.1003  0.4086
17676TIP3    H174519   0.733   6.195  15.915  2.0967 -0.4318 -1.5861
17676TIP3    H274520   0.676   6.140  15.785 -1.8158 -0.9206  0.2617
17677TIP3   OH274521   1.138   4.049  13.688  0.1801 -0.2730 -0.1172
17677TIP3    H174522   1.062   4.098  13.721 -0.0259  1.6247 -3.2136
17677TIP3    H274523   1.206   4.062  13.754 -1.2551  0.5008  1.2426
17678TIP3   OH274524   5.652   4.082   1.838 -0.1770  0.7675  0.2173
17678TIP3    H174525   5.594   4.113   1.907 -1.2336  1.0477 -0.7882
17678TIP3    H274526   5.689   4.001   1.873 -0.6442  0.9437  1.1432
17679TIP3   OH274527   4.681   1.784   3.044 -0.8330  0.1991 -0.6997
17679TIP3    H174528   4.615   1.716   3.030  0.1006 -1.0475  0.8031
17679TIP3    H274529   4.730   1.788   2.962 -2.5547  0.9255 -1.7250
17680TIP3   OH274530   0.073   5.081  16.831  0.1193  0.3764 -0.6618
17680TIP3    H174531   0.063   5.148  16.898 -0.5276  0.0075 -0.3883
17680TIP3    H274532   0.104   5.004  16.878 -1.0663 -0.1088 -0.6627
17681TIP3   OH274533   6.328   2.219  14.864  0.2633  0.2025  0.6407
17681TIP3    H174534   6.303   2.250  14.777  0.0059 -0.5033  0.4599
17681TIP3    H274535   6.275   2.141  14.878  0.9834 -0.2210  1.0456
17682TIP3   OH274536   5.066   3.717   0.662 -0.3241  0.1358  0.2734
17682TIP3    H174537   5.105   3.715   0.574  1.0719 -0.4869  0.8903
17682TIP3    H274538   5.033   3.807   0.671  1.3948  0.8266 -0.0945
17683TIP3   OH274539   6.326   0.647   4.580 -0.4442  0.1060 -0.2355
17683TIP3    H174540   6.379   0.619   4.655 -0.4772 -2.7685 -1.2399
17683TIP3    H274541   6.271   0.718   4.615  0.8487  0.0781  1.9581
17684TIP3   OH274542   0.434   0.761  16.361 -0.1145 -0.3448 -0.5362
17684TIP3    H174543   0.413   0.800  16.446 -0.1464  1.0777 -1.1672
17684TIP3    H274544   0.520   0.722  16.373  0.6307  1.3386 -0.3103
17685TIP3   OH274545   1.153   1.660   3.582 -0.2237  0.7818  0.5585
17685TIP3    H174546   1.070   1.696   3.612 -1.6722 -1.3085 -0.7780
17685TIP3    H274547   1.189   1.727   3.524 -1.5801  1.2172  0.1953
17686TIP3   OH274548   0.387   1.577  14.789  0.1327 -0.1992  0.2653
17686TIP3    H174549   0.419   1.607  14.874 -0.6957  1.7248 -0.0662
17686TIP3    H274550   0.292   1.571  14.800  0.0093  0.1637 -0.5531
17687TIP3   OH274551   1.782   5.980  12.217 -0.0171  0.6551  0.6875
17687TIP3    H174552   1.783   5.922  12.293  1.5790 -0.1130  0.1148
17687TIP3    H274553   1.745   5.927  12.147  1.5192  0.2757  0.1416
17688TIP3   OH274554   2.542   3.400   3.658  0.6027 -0.5034 -0.1661
17688TIP3    H174555   2.621   3.444   3.627  1.3202 -1.5411  0.1480
17688TIP3    H274556   2.525   3.333   3.592  0.7755 -1.1693  0.4509
17689TIP3   OH274557   4.556   0.455  12.560 -0.0496 -0.6729  0.1534
17689TIP3    H174558   4.644   0.461  12.524  0.7241  0.5971  2.1981
17689TIP3    H274559   4.569   0.446  12.654 -2.1300  0.4306  0.5655
17690TIP3   OH274560   3.007   3.485   5.273 -0.2244 -0.1966  0.2213
17690TIP3    H174561   3.050   3.493   5.358  0.5153  0.1352 -0.1768
17690TIP3    H274562   2.966   3.570   5.259  0.9216  0.2693 -0.4203
17691TIP3   OH274563   3.177   2.691   5.774 -0.2607  0.8120  0.3137
17691TIP3    H174564   3.117   2.704   5.848 -0.1380  0.7582  0.4223
17691TIP3    H274565   3.248   2.638   5.810 -0.8740 -0.3555 -0.1796
17692TIP3   OH274566   1.144   1.341   1.063  0.0001 -0.4343 -0.0407
17692TIP3    H174567   1.217   1.293   1.104 -1.1603 -1.2885  1.0646
17692TIP3    H274568   1.114   1.400   1.131  0.2280  0.5588 -0.7977
17693TIP3   OH274569   0.929   2.308   4.714 -0.2840  0.0120 -0.3909
17693TIP3    H174570   0.897   2.328   4.626 -0.1814  0.7101 -0.2720
17693TIP3    H274571   0.866   2.245   4.748 -0.2363 -0.3776 -1.0244
17694TIP3   OH274572   3.469   2.009  16.425 -0.0894  0.4157  0.1866
17694TIP3    H174573   3.532   1.941  16.451 -0.3715 -1.2116 -3.1115
17694TIP3    H274574   3.512   2.055  16.353 -2.0967  0.1194 -1.2476
17695TIP3   OH274575   5.678   0.262   2.903  0.2793 -0.2772  0.9106
17695TIP3    H174576   5.730   0.185   2.879 -0.0752 -0.0330 -0.6746
17695TIP3    H274577   5.629   0.234   2.980 -1.6538 -2.4454 -1.0483
17696TIP3   OH274578   3.396   1.857   0.573 -0.2346 -0.3977  0.7743
17696TIP3    H174579   3.339   1.882   0.646  0.2109 -1.4457  1.5121
17696TIP3    H274580   3.412   1.938   0.526 -1.8527  0.0223  0.8951
17697TIP3   OH274581   4.103   5.721  10.487  0.4527  0.6920  0.5220
17697TIP3    H174582   4.073   5.807  10.460 -0.2049  0.0105 -0.9891
17697TIP3    H274583   4.031   5.685  10.538 -0.4879 -0.1151 -1.3409
17698TIP3   OH274584   0.282   2.535  17.282  0.1746 -0.0550  0.0100
17698TIP3    H174585   0.339   2.595  17.235 -0.9795  1.5157  0.5885
17698TIP3    H274586   0.219   2.505  17.216  0.4386 -0.2540 -0.1562
17699TIP3   OH274587   2.791   0.408   4.331  0.3164 -1.1712 -0.2361
17699TIP3    H174588   2.762   0.446   4.248 -1.2148 -2.6917 -0.4051
17699TIP3    H274589   2.808   0.484   4.387 -2.5869 -0.1933 -0.6055
17700TIP3   OH274590   3.278   6.081  14.484  0.1772 -0.0100 -0.2623
17700TIP3    H174591   3.324   6.003  14.515 -0.6950  0.0609  1.2297
17700TIP3    H274592   3.348   6.145  14.470  0.6077 -0.0933  1.4132
17701TIP3   OH274593   5.510   4.026  12.566  0.1232 -0.6318 -0.2712
17701TIP3    H174594   5.459   3.951  12.597  0.1719 -2.1904 -3.7305
17701TIP3    H274595   5.500   4.024  12.471  4.1552  0.8252 -0.8263
17702TIP3   OH274596   5.504   3.906   0.467  0.4217 -0.0778  0.1460
17702TIP3    H174597   5.537   3.869   0.385  0.2425 -1.6382  0.7623
17702TIP3    H274598   5.409   3.909   0.455  0.4306  0.1133  0.1232
17703TIP3   OH274599   1.378   3.029   3.663 -0.4420  0.4714  0.1622
17703TIP3    H174600   1.372   3.105   3.605  1.7605  1.5917  1.3306
17703TIP3    H274601   1.421   3.062   3.742 -1.1051 -1.5895  1.4387
17704TIP3   OH274602   1.353   2.900   0.125  0.4810 -0.0870  0.6689
17704TIP3    H174603   1.313   2.910   0.039 -0.3165 -2.4477  0.7241
17704TIP3    H274604   1.290   2.938   0.186  0.3515  0.2148  0.3440
17705TIP3   OH274605   4.736   0.576   6.420 -0.4943  0.0751 -0.2361
17705TIP3    H174606   4.737   0.672   6.412  1.6100 -0.0662 -2.2378
17705TIP3    H274607   4.823   0.549   6.390 -1.3847 -2.5277 -0.5694
17706TIP3   OH274608   1.459   6.348   5.131 -0.2168 -0.5188  0.3596
17706TIP3    H174609   1.398   6.307   5.071 -0.6048 -0.6241  0.8230
17706TIP3    H274610   1.418   6.339   5.217  0.9132 -1.4827  0.8101
17707TIP3   OH274611   3.873   4.249  16.392 -0.0962 -0.5108  0.5976
17707TIP3    H174612   3.936   4.284  16.329 -1.8122  0.4733 -0.6150
17707TIP3    H274613   3.917   4.174  16.431  1.3989 -0.5222 -1.0561
17708TIP3   OH274614   2.780   2.151  15.610 -0.0580 -0.0842 -0.2487
17708TIP3    H174615   2.777   2.072  15.663  1.1621  0.9631  1.4360
17708TIP3    H274616   2.872   2.162  15.588  0.1967  2.1857  1.6685
17709TIP3   OH274617   4.402   3.853   3.576  0.6590  0.3155 -0.6054
17709TIP3    H174618   4.310   3.879   3.579  0.5820 -0.1028  1.4234
17709TIP3    H274619   4.450   3.935   3.573  0.2647  0.5798  0.1627
17710TIP3   OH274620   1.717   0.783   0.342 -0.0039  0.0036  0.6373
17710TIP3    H174621   1.757   0.822   0.264  0.2107 -0.5123  0.4864
17710TIP3    H274622   1.679   0.857   0.389  0.3730  0.3904  0.3381
17711TIP3   OH274623   0.387   3.416  13.870 -0.2006  0.3740  0.4579
17711TIP3    H174624   0.441   3.484  13.911  0.4071  0.0211  0.2391
17711TIP3    H274625   0.316   3.464  13.827 -0.2666  0.8131  1.0483
17712TIP3   OH274626   4.847   2.712  16.151 -0.1279 -0.3092  0.0835
17712TIP3    H174627   4.823   2.782  16.091 -1.4126 -1.2640 -0.5409
17712TIP3    H274628   4.822   2.632  16.106 -1.1775 -1.0506  1.8932
17713TIP3   OH274629   3.819   0.393  13.288  0.3176  0.0712 -0.0896
17713TIP3    H174630   3.725   0.405  13.299  0.3551 -0.1358  0.4643
17713TIP3    H274631   3.826   0.337  13.210 -0.0889 -1.1907  0.7553
17714TIP3   OH274632   5.781   4.145   0.650  0.4001  0.2185  0.3472
17714TIP3    H174633   5.697   4.189   0.658  0.0018 -0.1627 -1.4508
17714TIP3    H274634   5.846   4.215   0.650 -0.0814  0.6668 -0.5013
17715TIP3   OH274635   2.982   6.647  13.498  0.0898 -0.0732  0.0165
17715TIP3    H174636   3.022   6.591  13.431  0.5864  0.3805 -0.0772
17715TIP3    H274637   2.997   6.602  13.580  2.1288  0.8011  0.1558
17716TIP3   OH274638   0.900   2.246  15.877 -0.0791 -0.6038  0.1995
17716TIP3    H174639   0.815   2.286  15.895 -1.3481 -3.2742  0.3833
17716TIP3    H274640   0.904   2.240  15.782 -0.1807 -0.5802  0.1934
17717TIP3   OH274641   6.627   1.045   5.995  0.1673 -0.1015 -0.6136
17717TIP3    H174642   6.695   1.019   6.057 -0.2983  0.3018  0.0875
17717TIP3    H274643   6.673   1.096   5.928  0.4241  1.0408  0.4050
17718TIP3   OH274644   3.010   5.542   0.053  0.0640 -0.6086 -0.5921
17718TIP3    H174645   3.002   5.626   0.099 -2.6326 -1.2208  0.1620
17718TIP3    H274646   3.028   5.479   0.122  0.1151 -0.9456 -0.9139
17719TIP3   OH274647   4.764   4.336  15.393 -0.5688 -0.2320  0.0585
17719TIP3    H174648   4.859   4.343  15.397 -0.5464 -1.0382  0.9819
17719TIP3    H274649   4.740   4.283  15.469 -1.7994  0.3775  0.1128
17720TIP3   OH274650   5.904   3.270   3.028 -0.2606  0.0719  0.6480
17720TIP3    H174651   5.882   3.179   3.048 -2.9351  0.6119  0.3876
17720TIP3    H274652   5.930   3.308   3.112 -1.3806 -0.3455  1.1874
17721TIP3   OH274653   5.209   2.866   4.384 -0.0551  0.1294 -0.1837
17721TIP3    H174654   5.162   2.816   4.450  0.5956 -0.2068  0.0342
17721TIP3    H274655   5.193   2.958   4.406  1.5734  0.0431  1.4882
17722TIP3   OH274656   0.317   1.709   6.622  0.1507  0.0696 -0.2767
17722TIP3    H174657   0.409   1.733   6.622 -0.1006  1.0636 -0.3941
17722TIP3    H274658   0.298   1.684   6.531 -0.1171  1.5404 -0.6300
17723TIP3   OH274659   1.662   4.733   3.873 -0.1187 -0.1418  0.1910
17723TIP3    H174660   1.689   4.779   3.953 -0.0687 -1.0743  0.7195
17723TIP3    H274661   1.696   4.644   3.884 -0.6116 -0.4341 -0.6100
17724TIP3   OH274662   4.571   0.479   4.862  0.8231  0.0208  0.2823
17724TIP3    H174663   4.492   0.476   4.915  0.1095  0.0545 -0.7694
17724TIP3    H274664   4.643   0.480   4.926  0.0209 -1.0597  1.2153
17725TIP3   OH274665   4.413   2.135   3.485  0.3110  0.0675 -0.1374
17725TIP3    H174666   4.380   2.050   3.514 -1.6620  0.4917 -1.0597
17725TIP3    H274667   4.376   2.197   3.548  1.6889  0.2775  0.4918
17726TIP3   OH274668   1.214   5.926   4.357  0.4296  0.4491 -0.6012
17726TIP3    H174669   1.281   5.884   4.302  1.0043 -0.6430  0.9036
17726TIP3    H274670   1.213   5.874   4.438 -2.1408  0.5529 -0.5274
17727TIP3   OH274671   3.448   1.905  12.126  0.2249 -0.5194  0.2490
17727TIP3    H174672   3.468   1.866  12.212  0.6501 -0.6848  0.0793
17727TIP3    H274673   3.380   1.970  12.145 -1.9060 -2.6684  0.2415
17728TIP3   OH274674   5.622   6.151  14.519 -0.2754 -0.0071 -0.2302
17728TIP3    H174675   5.546   6.093  14.527 -1.4308  1.0599 -3.0131
17728TIP3    H274676   5.592   6.235  14.553 -1.0493  0.9831 -3.2689
17729TIP3   OH274677   5.682   4.570   2.328  0.5053 -0.2659 -0.2106
17729TIP3    H174678   5.732   4.587   2.408 -0.1357 -0.4863  0.2409
17729TIP3    H274679   5.613   4.510   2.355 -0.5137  0.6850 -0.6431
17730TIP3   OH274680   1.432   5.025   2.671  0.3054  0.7405  0.1923
17730TIP3    H174681   1.403   5.107   2.712 -0.3523  0.5504  0.1151
17730TIP3    H274682   1.353   4.990   2.630  0.7200  0.3694 -0.2864
17731TIP3   OH274683   5.424   0.895   4.182  0.1859 -0.3592  0.3548
17731TIP3    H174684   5.481   0.958   4.226 -0.9407 -0.6944  2.3196
17731TIP3    H274685   5.437   0.813   4.229 -0.3636 -0.9514 -0.5004
17732TIP3   OH274686   5.944   5.285  14.396 -0.4612  0.6531  0.3057
17732TIP3    H174687   5.956   5.363  14.341 -0.3690  1.8375  1.9948
17732TIP3    H274688   6.033   5.251  14.408 -0.5759 -0.2164 -1.1048
17733TIP3   OH274689   5.287   2.665   0.830  0.0881 -0.0630  0.2039
17733TIP3    H174690   5.240   2.729   0.778 -0.5958 -0.9793 -0.3230
17733TIP3    H274691   5.219   2.621   0.881  0.4538 -0.8547  0.0231
17734TIP3   OH274692   6.205   4.365   0.770 -0.0031 -0.3360  0.6090
17734TIP3    H174693   6.219   4.459   0.782 -3.0166  0.4953 -1.7116
17734TIP3    H274694   6.205   4.329   0.859  2.2247  1.6450  1.4679
17735TIP3   OH274695   0.661   3.211  11.372 -0.3782 -0.2340 -0.1368
17735TIP3    H174696   0.656   3.193  11.278 -1.9796 -3.3572  0.4662
17735TIP3    H274697   0.740   3.164  11.401  1.1263  2.2033 -0.1814
17736TIP3   OH274698   0.755   1.664  16.595  0.3986 -0.1821  0.5919
17736TIP3    H174699   0.726   1.755  16.583 -0.5065 -0.7224 -1.5149
17736TIP3    H274700   0.678   1.620  16.632  0.5182 -0.3077  0.6906
17737TIP3   OH274701   5.641   2.076  15.264  0.7187  0.0715  0.8832
17737TIP3    H174702   5.618   2.168  15.246  0.6522 -0.1884 -0.4055
17737TIP3    H274703   5.655   2.038  15.177  3.4033 -0.4609  1.5262
17738TIP3   OH274704   3.946   3.728   4.664  0.0278  0.5625  0.0619
17738TIP3    H174705   3.907   3.774   4.590 -1.0921 -2.2293 -1.1194
17738TIP3    H274706   3.874   3.714   4.725  0.3680  0.3379  0.4172
17739TIP3   OH274707   5.047   5.827   0.872  0.4670 -0.4289  0.7450
17739TIP3    H174708   5.113   5.794   0.934  0.4377 -0.6143  0.6780
17739TIP3    H274709   5.044   5.761   0.803 -0.1612 -0.6807  1.0076
17740TIP3   OH274710   0.441   3.773  12.424  0.1524  0.3449  0.0629
17740TIP3    H174711   0.361   3.721  12.416 -0.5525  1.5452 -0.7875
17740TIP3    H274712   0.499   3.720  12.479 -1.1638 -0.5960  0.5518
17741TIP3   OH274713   1.085   0.062   0.885 -0.0912 -0.5369  0.3967
17741TIP3    H174714   1.084  -0.011   0.947  0.2406  0.3767  1.4760
17741TIP3    H274715   1.165   0.048   0.833  0.7651 -0.1069  1.5953
17742TIP3   OH274716   0.896   1.725   2.496 -0.0744  0.1741  0.3573
17742TIP3    H174717   0.865   1.790   2.560  0.6041 -0.3603  1.2430
17742TIP3    H274718   0.989   1.746   2.485 -0.3504  0.7357 -1.0378
17743TIP3   OH274719   0.285   0.431  11.841  0.0216  0.1716 -0.3191
17743TIP3    H174720   0.326   0.417  11.756 -1.7494  1.0454 -1.3357
17743TIP3    H274721   0.326   0.366  11.898  0.4667 -1.1243 -2.0734
17744TIP3   OH274722   2.028   4.686   4.645  0.8849 -0.4010  0.3651
17744TIP3    H174723   1.984   4.657   4.565  0.9859 -1.6830  0.7578
17744TIP3    H274724   2.070   4.769   4.621  0.2811 -0.3916 -0.6905
17745TIP3   OH274725   1.244   5.953  11.428  0.4144  0.3273  0.6821
17745TIP3    H174726   1.277   5.908  11.351  0.2683  1.1712  0.1147
17745TIP3    H274727   1.300   5.924  11.500  1.5704  0.7791 -0.0378
17746TIP3   OH274728   2.317   3.849  13.463 -0.3393 -0.1848  0.3717
17746TIP3    H174729   2.269   3.844  13.546  0.5377 -0.9346  0.8378
17746TIP3    H274730   2.370   3.928  13.471 -1.9374  0.9855 -0.3895
17747TIP3   OH274731   4.738   1.733   1.980 -0.4743  0.1517  0.1589
17747TIP3    H174732   4.763   1.712   2.071 -2.4888  0.3475  0.7739
17747TIP3    H274733   4.794   1.807   1.956  0.9542 -0.7025  0.8010
17748TIP3   OH274734   3.882   0.851   3.368  0.0534  0.4270 -0.3697
17748TIP3    H174735   3.925   0.770   3.395  0.5273 -0.1623 -2.8184
17748TIP3    H274736   3.937   0.920   3.406  0.5329 -0.3595  0.4035
17749TIP3   OH274737   3.928   6.542  16.778  0.0106 -0.1376  0.3237
17749TIP3    H174738   3.862   6.479  16.808 -0.9893 -0.1866 -1.8704
17749TIP3    H274739   3.889   6.628  16.799  0.1807 -0.1957  0.8907
17750TIP3   OH274740   2.975   0.186   1.453 -0.2102 -0.3804 -0.8094
17750TIP3    H174741   3.028   0.263   1.471  0.0375 -1.0012  1.2628
17750TIP3    H274742   3.031   0.130   1.400  0.2985  0.0617 -0.7393
17751TIP3   OH274743   1.153   2.955  14.076 -0.1963 -0.0255 -0.6376
17751TIP3    H174744   1.247   2.940  14.078 -0.0044  1.2963  1.7428
17751TIP3    H274745   1.142   3.047  14.101 -2.0952 -0.0772 -1.1748
17752TIP3   OH274746   5.327   2.938   1.365 -0.5741 -0.1801 -0.5347
17752TIP3    H174747   5.260   2.870   1.374  0.0777 -1.0603 -2.1589
17752TIP3    H274748   5.408   2.890   1.349  0.0692  0.9445 -0.6791
17753TIP3   OH274749   0.949   3.859   3.289  0.5026 -0.3013  0.7892
17753TIP3    H174750   0.900   3.787   3.250 -0.5093 -0.9371  3.1755
17753TIP3    H274751   0.891   3.895   3.356  1.4156  2.0444  0.4034
17754TIP3   OH274752   6.127   5.288  12.975  0.2376  0.4647 -0.5658
17754TIP3    H174753   6.095   5.199  12.960  1.5107 -0.2501  0.7965
17754TIP3    H274754   6.086   5.341  12.907 -2.6644 -0.6693  0.2155
17755TIP3   OH274755   3.117   6.789  17.113 -0.1954  0.6453 -1.2619
17755TIP3    H174756   3.062   6.856  17.072 -0.2315  0.9341 -0.7400
17755TIP3    H274757   3.175   6.837  17.171 -2.0285  0.0355  1.1795
17756TIP3   OH274758   1.604   2.970   0.459 -0.2147 -0.1349 -0.2737
17756TIP3    H174759   1.676   3.002   0.404  0.4314 -1.5298 -0.2585
17756TIP3    H274760   1.526   3.014   0.425  0.5413  0.8875 -0.7175
17757TIP3   OH274761   0.243   6.628  11.734 -0.4850  0.4736 -0.3555
17757TIP3    H174762   0.180   6.600  11.667 -1.3379  1.1570  0.1485
17757TIP3    H274763   0.314   6.564  11.729 -0.3361  0.7511 -2.2008
17758TIP3   OH274764   0.256   0.162   6.011 -0.3360 -0.2085  0.2611
17758TIP3    H174765   0.286   0.083   5.965 -1.3556  0.2987 -1.3350
17758TIP3    H274766   0.333   0.195   6.056 -0.0678 -2.5252  1.5650
17759TIP3   OH274767   1.446   1.124  13.802  0.0526  0.4010 -0.1290
17759TIP3    H174768   1.468   1.032  13.793  0.6097  0.5730 -0.4989
17759TIP3    H274769   1.393   1.144  13.725  1.3053  0.8037 -0.8980
17760TIP3   OH274770   6.366   6.468   1.519 -0.4042 -0.4217  0.3166
17760TIP3    H174771   6.318   6.524   1.458  3.0504  1.0634 -1.2267
17760TIP3    H274772   6.398   6.395   1.464  1.0619 -0.1306  0.7613
17761TIP3   OH274773   3.472   2.891   1.115  0.2703 -0.2777 -0.8663
17761TIP3    H174774   3.511   2.808   1.144  0.7344  0.3856  0.4684
17761TIP3    H274775   3.478   2.889   1.020  2.4790 -0.7202 -0.7389
17762TIP3   OH274776   0.120   5.745  14.435  0.1439 -0.1270  0.1162
17762TIP3    H174777   0.065   5.821  14.418 -1.6399 -1.5917 -0.8908
17762TIP3    H274778   0.140   5.710  14.348  1.9926 -0.0732  0.5180
17763TIP3   OH274779   3.103   4.263  14.753  0.4661 -0.4182  0.2713
17763TIP3    H174780   3.176   4.273  14.815  0.0566 -0.7789  0.8187
17763TIP3    H274781   3.042   4.332  14.778  0.2707 -0.6066  0.3121
17764TIP3   OH274782   5.952   1.288   3.670 -0.0143  0.6524 -0.1774
17764TIP3    H174783   6.003   1.323   3.742  0.0774  1.5486 -0.6687
17764TIP3    H274784   5.949   1.359   3.606 -0.6490  0.1006 -0.7708
17765TIP3   OH274785   0.916   6.186   5.432  0.4685  0.0186  0.0719
17765TIP3    H174786   0.987   6.150   5.379  0.2376 -2.0469  1.1386
17765TIP3    H274787   0.840   6.131   5.412 -0.5194  1.4210 -0.1084
17766TIP3   OH274788   1.476   6.205  10.873  0.7171  0.1293  0.1382
17766TIP3    H174789   1.409   6.157  10.923 -1.4925  1.4836 -1.4355
17766TIP3    H274790   1.495   6.148  10.799 -0.5466  0.8502 -0.7469
17767TIP3   OH274791   6.591   5.920  12.914 -0.2279  0.4067  0.2517
17767TIP3    H174792   6.565   5.859  12.845 -1.4599 -0.1274  1.1514
17767TIP3    H274793   6.638   5.990  12.868 -0.5271 -0.2237 -1.0517
17768TIP3   OH274794   1.774   1.309  12.387  0.1246  0.3493 -0.0928
17768TIP3    H174795   1.862   1.304  12.352 -0.1012  0.6001 -0.7032
17768TIP3    H274796   1.776   1.383  12.447  0.5567 -0.1863  0.5574
17769TIP3   OH274797   6.477   4.330  14.958 -0.3840  0.1279  0.3785
17769TIP3    H174798   6.493   4.355  15.049 -1.6846 -0.2324  0.7225
17769TIP3    H274799   6.446   4.410  14.917  3.4610  1.1984 -0.6421
17770TIP3   OH274800   4.990   4.814   3.544 -0.1601  0.3157  0.1962
17770TIP3    H174801   5.004   4.766   3.625  0.0414 -2.1395 -1.2525
17770TIP3    H274802   4.999   4.906   3.569  0.4136 -0.4155  2.8351
17771TIP3   OH274803   3.331   1.490  16.568  0.2990 -0.6731 -0.1048
17771TIP3    H174804   3.418   1.527  16.553 -0.2257  0.5331 -0.1471
17771TIP3    H274805   3.270   1.555  16.534 -0.6278 -1.6342 -0.3330
17772TIP3   OH274806   2.980   5.166   2.122  0.4575  0.1702 -0.1820
17772TIP3    H174807   2.950   5.165   2.031 -0.1264 -1.4652  0.0265
17772TIP3    H274808   2.927   5.234   2.164 -2.7793 -2.4122  0.0967
17773TIP3   OH274809   0.662   6.241   5.027  0.0305  0.2913  0.0547
17773TIP3    H174810   0.576   6.264   4.993 -0.5133 -0.6370  0.7729
17773TIP3    H274811   0.645   6.209   5.115  1.1326  0.2627  0.2643
17774TIP3   OH274812   0.955   5.826   5.844  0.3385  0.8346  0.3681
17774TIP3    H174813   0.889   5.887   5.876 -0.1890  0.9743 -0.9392
17774TIP3    H274814   1.039   5.870   5.861  0.1061  0.5801  2.1747
17775TIP3   OH274815   4.803   0.628  14.608  0.9616  0.0955  0.1628
17775TIP3    H174816   4.794   0.554  14.547  1.0551  0.2304 -0.0137
17775TIP3    H274817   4.713   0.655  14.626  0.9939  1.2778 -1.3945
17776TIP3   OH274818   3.260   2.501   5.969 -0.2683 -0.5501 -0.4489
17776TIP3    H174819   3.324   2.566   5.995 -2.6698  1.3123  1.0734
17776TIP3    H274820   3.294   2.418   6.001  0.0283  0.7996  2.8917
17777TIP3   OH274821   2.283   1.064  15.794 -0.1847  0.2106 -0.2390
17777TIP3    H174822   2.191   1.063  15.818 -0.1215 -0.1298 -0.0111
17777TIP3    H274823   2.317   1.146  15.831  0.6909 -1.8587  3.7755
17778TIP3   OH274824   5.353   5.774   2.374  0.1638 -0.0819  0.2440
17778TIP3    H174825   5.365   5.683   2.350 -0.8420  0.3319 -1.9694
17778TIP3    H274826   5.277   5.803   2.322  0.3741  1.9435  1.0144
17779TIP3   OH274827   6.795   4.611  12.911 -0.2874  0.3762 -0.4494
17779TIP3    H174828   6.819   4.645  12.824  1.2235 -1.2685 -0.7133
17779TIP3    H274829   6.853   4.658  12.971 -0.4837  0.6404 -0.4667
17780TIP3   OH274830   3.340   6.051   0.915  0.2254  0.2702  0.3123
17780TIP3    H174831   3.284   6.008   0.850 -0.1345  0.7909  0.2742
17780TIP3    H274832   3.427   6.015   0.899  0.6424  2.1560 -2.0991
17781TIP3   OH274833   1.633   1.752  15.818  0.8345 -0.0954  0.1272
17781TIP3    H174834   1.685   1.683  15.777  1.6956 -0.0157  1.0610
17781TIP3    H274835   1.697   1.804  15.868 -0.3006 -0.7944  2.3991
17782TIP3   OH274836   5.127   2.841  17.160  0.3710  0.1702 -0.0590
17782TIP3    H174837   5.046   2.795  17.141 -0.8910  0.9225  3.0628
17782TIP3    H274838   5.167   2.792  17.232  1.8381  0.7691 -0.4282
17783TIP3   OH274839   3.865   4.581   3.941 -0.6491 -0.1272 -0.2036
17783TIP3    H174840   3.803   4.595   4.013  1.3363 -0.2267  1.5672
17783TIP3    H274841   3.897   4.668   3.919  0.4834 -0.3253  0.6277
17784TIP3   OH274842   4.279   6.224   2.735 -0.3261  0.3638 -0.8546
17784TIP3    H174843   4.213   6.251   2.799  0.9715  1.7205 -0.0566
17784TIP3    H274844   4.233   6.164   2.677 -2.1541  0.9748 -0.0694
17785TIP3   OH274845   1.552   2.076  14.876 -0.5743 -0.2481 -0.4297
17785TIP3    H174846   1.631   2.114  14.915 -0.1314 -2.1568  0.6174
17785TIP3    H274847   1.480   2.115  14.924 -0.1290 -0.7348  0.6407
17786TIP3   OH274848   1.330   6.132   0.695  0.3772 -0.8084  0.3837
17786TIP3    H174849   1.420   6.161   0.715 -0.4565  2.6445 -0.5850
17786TIP3    H274850   1.332   6.111   0.602 -0.2631  0.9976 -0.0338
17787TIP3   OH274851   6.627   6.317   5.366 -0.1220 -0.2586  0.0429
17787TIP3    H174852   6.541   6.353   5.388 -0.8234 -0.9870 -1.3950
17787TIP3    H274853   6.645   6.253   5.435  0.4759  1.7538  1.8059
17788TIP3   OH274854   0.849   3.781   4.813 -0.3635  0.2296 -0.2023
17788TIP3    H174855   0.918   3.844   4.794  1.0045 -1.1145  0.2045
17788TIP3    H274856   0.861   3.760   4.906  0.0866 -1.6406 -0.6472
17789TIP3   OH274857   4.553   1.946  12.329  0.0882  0.4321 -0.0305
17789TIP3    H174858   4.629   2.001  12.348  0.9973 -0.2794 -1.4036
17789TIP3    H274859   4.478   2.004  12.337  1.0424  1.9845 -1.7587
17790TIP3   OH274860   6.573   5.819  12.664 -0.0483  0.0917 -0.0456
17790TIP3    H174861   6.501   5.763  12.632 -0.0969 -0.6503  1.3109
17790TIP3    H274862   6.566   5.899  12.612 -1.8197 -0.0002  0.0215
17791TIP3   OH274863   4.999   1.103  15.654  0.3599 -0.2975 -1.0820
17791TIP3    H174864   4.940   1.029  15.669  1.0163 -0.3342  1.6064
17791TIP3    H274865   4.958   1.175  15.702  0.4933  0.7295 -2.4719
17792TIP3   OH274866   5.602   3.793  13.279 -0.8546 -0.2112 -0.2984
17792TIP3    H174867   5.512   3.812  13.255 -0.8539 -0.9984 -0.9586
17792TIP3    H274868   5.595   3.750  13.365 -0.7412  4.0644  2.0009
17793TIP3   OH274869   1.545   4.592  14.274 -0.0633 -0.1265  0.3026
17793TIP3    H174870   1.639   4.577  14.275 -0.1071 -0.3577  1.7307
17793TIP3    H274871   1.533   4.667  14.216  0.7850 -1.4695 -1.6653
17794TIP3   OH274872   3.792   5.026   5.942  0.1003  1.1170 -0.2456
17794TIP3    H174873   3.808   5.097   5.879 -1.7501  2.0871  0.3153
17794TIP3    H274874   3.706   5.047   5.980  0.6660 -0.0600  1.7823
17795TIP3   OH274875   2.165   2.688   3.299 -0.2536 -0.5207 -0.1402
17795TIP3    H174876   2.247   2.641   3.289  0.3847  0.6459 -0.4023
17795TIP3    H274877   2.128   2.656   3.382  0.2657 -1.3287 -0.2227
17796TIP3   OH274878   0.629   0.450   5.492  0.1606  0.6392 -0.4747
17796TIP3    H174879   0.600   0.541   5.499  0.5251  0.5763  2.3200
17796TIP3    H274880   0.617   0.414   5.580  0.2287 -1.9644 -1.4849
17797TIP3   OH274881   3.873   0.068   4.127  0.3579  0.5063 -0.0261
17797TIP3    H174882   3.932   0.016   4.182  0.4779  1.6248  0.9117
17797TIP3    H274883   3.835   0.004   4.066 -0.5549 -0.9425  1.9954
17798TIP3   OH274884   3.074   3.207  13.488 -0.1910  0.7144 -0.1446
17798TIP3    H174885   3.003   3.247  13.438  0.1013  0.8645 -0.4377
17798TIP3    H274886   3.133   3.171  13.422 -0.3430 -0.0158  0.1144
17799TIP3   OH274887   2.520   4.778   5.851  0.0849  0.0847 -0.0944
17799TIP3    H174888   2.523   4.683   5.841 -0.5367 -0.0188  0.6635
17799TIP3    H274889   2.612   4.804   5.860  0.2192 -0.5081  0.2318
17800TIP3   OH274890   5.970   5.257  13.412  0.9341 -0.4160  0.7957
17800TIP3    H174891   5.958   5.173  13.369  2.6211 -0.6627  0.7788
17800TIP3    H274892   5.887   5.303  13.400  0.7188 -1.2660 -1.0000
17801TIP3   OH274893   3.386   0.773   0.809 -0.3445 -0.3357  0.7726
17801TIP3    H174894   3.371   0.857   0.767 -1.7885 -1.2892 -0.6466
17801TIP3    H274895   3.336   0.778   0.891 -1.0869 -0.1014  0.3129
17802TIP3   OH274896   5.598   2.071   2.679  0.2266 -0.1469  0.0982
17802TIP3    H174897   5.608   1.976   2.677  1.1845 -0.0740  1.1899
17802TIP3    H274898   5.603   2.095   2.772 -0.5356  0.9145 -0.1185
17803TIP3   OH274899   2.062   4.967   4.908 -0.0638 -0.3970  0.1145
17803TIP3    H174900   2.055   5.055   4.945 -0.3082 -0.2731 -0.2160
17803TIP3    H274901   2.008   4.912   4.965  1.4976 -0.6816  1.3611
17804TIP3   OH274902   6.049   5.145  16.485 -0.2946 -0.2627 -0.0705
17804TIP3    H174903   5.982   5.173  16.423 -0.9356 -0.7459  0.3894
17804TIP3    H274904   6.022   5.186  16.568 -0.3868 -0.9875  0.2556
17805TIP3   OH274905   5.837   3.589  16.037 -0.1649 -0.5469 -0.2118
17805TIP3    H174906   5.884   3.660  15.993 -0.6492 -0.3138 -0.3554
17805TIP3    H274907   5.816   3.528  15.966 -0.6395 -0.3409 -0.2463
17806TIP3   OH274908   1.826   4.227   1.285 -0.2729  0.4292  0.2023
17806TIP3    H174909   1.879   4.282   1.227  0.5798  1.0833  1.5820
17806TIP3    H274910   1.819   4.278   1.366  1.0513 -1.7637  1.7252
17807TIP3   OH274911   2.510   1.958  13.793  0.4464  0.3719  0.2625
17807TIP3    H174912   2.599   1.991  13.781  0.6543 -0.0874  0.4938
17807TIP3    H274913   2.519   1.890  13.861  0.0060 -0.0169 -0.0624
17808TIP3   OH274914   0.688   3.273  16.176 -0.1787 -0.6181 -0.0722
17808TIP3    H174915   0.777   3.303  16.194 -0.2756 -0.7522  0.6334
17808TIP3    H274916   0.640   3.353  16.155 -0.4169 -0.2725  1.7375
17809TIP3   OH274917   3.622   3.009  13.251  0.1154  0.0712 -0.1605
17809TIP3    H174918   3.566   3.065  13.306 -0.3093 -0.5545  0.0508
17809TIP3    H274919   3.563   2.976  13.183 -0.4661 -2.7487  1.6044
17810TIP3   OH274920   6.375   4.922  12.643  0.7151 -0.0948  0.0492
17810TIP3    H174921   6.322   4.888  12.571 -1.0824 -0.4823  1.5244
17810TIP3    H274922   6.312   4.963  12.702  1.6383 -3.0390  3.2541
17811TIP3   OH274923   4.902   6.138  10.458 -0.3454 -0.1143 -0.2939
17811TIP3    H174924   4.910   6.234  10.452  0.6322 -0.2571 -1.3704
17811TIP3    H274925   4.983   6.105  10.420 -1.1045 -1.3841 -0.8317
17812TIP3   OH274926   5.180   6.679  14.597  0.3807 -0.3771  0.0468
17812TIP3    H174927   5.204   6.697  14.688  1.1296  0.6435 -0.3413
17812TIP3    H274928   5.144   6.762  14.565  0.9388 -0.4778 -0.8452
17813TIP3   OH274929   0.123   3.188   0.869  0.3358  0.2349  0.4142
17813TIP3    H174930   0.157   3.201   0.958 -0.2139  0.4980  0.5897
17813TIP3    H274931   0.028   3.190   0.880  0.2716  1.0077 -0.2897
17814TIP3   OH274932   3.872   4.902  11.579 -0.3422  0.4590  0.1288
17814TIP3    H174933   3.861   4.853  11.661  0.3297  0.9452  0.5137
17814TIP3    H274934   3.868   4.994  11.606 -1.1838  0.6245 -0.5304
17815TIP3   OH274935   6.666   2.399  15.579  0.5158 -0.0548  0.0969
17815TIP3    H174936   6.619   2.408  15.662 -0.6338 -1.2840 -0.3998
17815TIP3    H274937   6.628   2.467  15.523  1.7729  1.2243  0.7885
17816TIP3   OH274938   6.094   1.290  17.203  0.2987 -0.5349 -0.5362
17816TIP3    H174939   6.164   1.330  17.254 -1.3382 -0.1061  1.4297
17816TIP3    H274940   6.136   1.264  17.121  2.2869  1.6755 -0.2887
17817TIP3   OH274941   5.670   0.124  12.974 -0.0730 -0.4712  0.1382
17817TIP3    H174942   5.636   0.213  12.985 -0.2776 -0.0889 -3.1050
17817TIP3    H274943   5.760   0.136  12.943  0.0026 -1.4255 -0.0314
17818TIP3   OH274944   0.535   1.168   1.601 -0.1995 -0.4701  0.0860
17818TIP3    H174945   0.510   1.076   1.595  1.5772 -1.1104  1.9333
17818TIP3    H274946   0.630   1.166   1.610 -0.2027  1.5230  0.6507
17819TIP3   OH274947   0.523   2.912  11.446  0.2856 -0.2161 -0.0757
17819TIP3    H174948   0.488   2.991  11.406 -0.3973 -0.2494  0.4592
17819TIP3    H274949   0.537   2.852  11.373 -0.0320  0.0745 -0.3733
17820TIP3   OH274950   1.955   3.897  15.735 -0.1755 -0.0099 -0.6988
17820TIP3    H174951   1.879   3.935  15.779 -0.7338 -0.1603 -1.5291
17820TIP3    H274952   2.030   3.936  15.780 -0.7413  0.5567 -0.2311
17821TIP3   OH274953   0.787   5.856   0.362  0.0378 -0.0303 -0.3143
17821TIP3    H174954   0.852   5.788   0.342 -0.9060 -0.9232 -0.3971
17821TIP3    H274955   0.704   5.820   0.330 -0.5699  0.9161  0.1695
17822TIP3   OH274956   3.220   3.059   5.375  0.2109 -0.4382  0.1645
17822TIP3    H174957   3.193   2.981   5.424 -1.4984 -0.7957 -1.3004
17822TIP3    H274958   3.156   3.126   5.399  0.7725  0.0750  0.2347
17823TIP3   OH274959   5.911   4.100  10.748 -0.2346  0.4281  0.0708
17823TIP3    H174960   5.936   4.188  10.721  0.7312  0.4356  0.9603
17823TIP3    H274961   5.920   4.101  10.843 -1.2310 -0.3225  0.1747
17824TIP3   OH274962   6.654   4.509   2.933  0.3468  0.5003  0.1035
17824TIP3    H174963   6.659   4.600   2.903  1.2673  0.2555 -0.5174
17824TIP3    H274964   6.738   4.470   2.907  0.0918 -0.4436  0.6438
17825TIP3   OH274965   3.537   4.910  16.257  0.6775 -0.0477  0.2814
17825TIP3    H174966   3.584   4.955  16.327  1.4426  0.2102 -0.3796
17825TIP3    H274967   3.549   4.967  16.181 -1.2578  0.3310  0.2487
17826TIP3   OH274968   1.814   6.217  15.335 -0.1132  0.4192 -0.4801
17826TIP3    H174969   1.822   6.201  15.241 -2.5550  1.8374 -0.9898
17826TIP3    H274970   1.872   6.291  15.352  0.0649  0.3856 -0.9438
17827TIP3   OH274971   6.590   5.920  16.416 -0.2725 -0.3982 -0.9440
17827TIP3    H174972   6.559   5.911  16.506 -1.6665 -0.2712 -1.3896
17827TIP3    H274973   6.630   5.836  16.396 -0.0021 -0.4450 -0.2157
17828TIP3   OH274974   1.584   1.231  14.893  0.0444 -0.1584  0.1907
17828TIP3    H174975   1.559   1.141  14.875  0.7331 -0.4095  0.4453
17828TIP3    H274976   1.531   1.284  14.834  0.0201 -0.7612 -0.3242
17829TIP3   OH274977   3.715   1.842   5.902 -0.8094  0.1435 -0.6530
17829TIP3    H174978   3.650   1.806   5.963 -3.1827  1.6462 -2.2359
17829TIP3    H274979   3.773   1.895   5.958 -1.8556  0.0387  0.5619
17830TIP3   OH274980   6.117   4.522  13.605  0.7604  0.1088 -0.2190
17830TIP3    H174981   6.180   4.566  13.662  2.8676 -1.2893 -1.3662
17830TIP3    H274982   6.162   4.515  13.521  0.3049 -3.6156 -0.2390
17831TIP3   OH274983   2.201   1.727   1.283  0.4403 -0.0468 -0.5089
17831TIP3    H174984   2.228   1.729   1.191 -0.2432 -0.7055 -0.7308
17831TIP3    H274985   2.191   1.819   1.307 -2.1176  0.0929 -1.9120
17832TIP3   OH274986   0.787   5.954  13.915 -0.0171  0.5614  0.0037
17832TIP3    H174987   0.808   6.030  13.970  1.1558 -0.0192  0.3704
17832TIP3    H274988   0.857   5.952  13.849 -0.0310 -0.2105  0.0078
17833TIP3   OH274989   2.165   5.027  14.048 -0.6292  0.4536 -0.1517
17833TIP3    H174990   2.247   4.999  14.008 -1.2459 -1.2342 -0.2831
17833TIP3    H274991   2.153   4.968  14.123 -2.8886 -0.9251 -1.5256
17834TIP3   OH274992   3.804   5.364  14.137 -0.0887 -0.0793  0.2296
17834TIP3    H174993   3.891   5.381  14.172  0.4998 -1.3197 -0.5799
17834TIP3    H274994   3.792   5.270  14.148 -0.3166 -0.3319 -1.9004
17835TIP3   OH274995   2.638   6.538  13.828 -0.2672  0.1645 -0.1163
17835TIP3    H174996   2.709   6.601  13.818  0.7924 -0.7576  1.2778
17835TIP3    H274997   2.606   6.523  13.739  1.8266  0.0142 -0.8772
17836TIP3   OH274998   6.017   2.678  10.915 -0.0154  0.2747  0.4840
17836TIP3    H174999   5.999   2.677  10.821 -1.1365  0.7761  0.6782
17836TIP3    H275000   6.026   2.585  10.938 -1.2772  0.0544  0.1524
17837TIP3   OH275001   1.963   0.043  12.764 -0.0330 -0.0516 -0.1983
17837TIP3    H175002   1.926   0.022  12.678  1.4235 -2.6722 -0.2401
17837TIP3    H275003   1.889   0.037  12.824 -0.7134  0.0829 -1.0055
17838TIP3   OH275004   5.322   1.026   1.221  0.8151 -0.9001  0.3865
17838TIP3    H175005   5.405   1.024   1.173 -0.0573  0.5077 -1.2387
17838TIP3    H275006   5.266   1.083   1.170 -0.3027  0.3444  2.8991
17839TIP3   OH275007   6.183   1.464  14.574 -0.5414  0.6756  0.3623
17839TIP3    H175008   6.252   1.401  14.550 -1.4535 -0.7343  1.3852
17839TIP3    H275009   6.149   1.496  14.491 -0.6018 -0.7871 -0.1844
17840TIP3   OH275010   3.399   6.626  13.220 -0.4658 -0.4567  0.2886
17840TIP3    H175011   3.327   6.631  13.157  0.2484  1.6467 -0.4066
17840TIP3    H275012   3.412   6.532  13.234 -1.8398 -0.9158 -1.3082
17841TIP3   OH275013   6.380   1.706  10.258 -0.4564 -0.3667  0.0038
17841TIP3    H175014   6.302   1.652  10.273  0.0428 -0.8011  1.1317
17841TIP3    H275015   6.447   1.643  10.232 -0.0641 -0.1970  0.6034
17842TIP3   OH275016   0.900   6.270  11.961 -0.2568 -0.0982  0.0266
17842TIP3    H175017   0.946   6.198  12.003  0.9296  0.1850 -0.7756
17842TIP3    H275018   0.904   6.341  12.025  2.0333  0.5119 -0.7334
17843TIP3   OH275019   1.697   0.982  15.564  0.6244  0.2883 -0.0125
17843TIP3    H175020   1.636   0.978  15.637  1.9333 -0.2668  1.0742
17843TIP3    H275021   1.644   1.010  15.489 -1.0839 -0.8073  0.7606
17844TIP3   OH275022   4.793   0.271   6.456  0.2215  0.3170  0.3038
17844TIP3    H175023   4.704   0.245   6.482 -0.7572  0.2779 -2.8227
17844TIP3    H275024   4.795   0.366   6.470 -1.2343  0.7254 -1.9428
17845TIP3   OH275025   0.516   4.222   1.771  0.1634 -0.5017 -0.1413
17845TIP3    H175026   0.548   4.306   1.739 -0.0316 -1.0462 -1.8400
17845TIP3    H275027   0.448   4.245   1.835 -1.5452  0.6841 -2.2860
17846TIP3   OH275028   6.325   2.239   1.005  0.0042 -0.2433  0.1037
17846TIP3    H175029   6.272   2.319   0.996 -0.6333 -0.7329 -0.5636
17846TIP3    H275030   6.266   2.176   1.047  0.7342 -0.1545  1.2987
17847TIP3   OH275031   0.736   1.315  15.583  0.5748 -0.5872 -0.3541
17847TIP3    H175032   0.699   1.383  15.639  0.1933 -0.7109 -0.4515
17847TIP3    H275033   0.710   1.233  15.626 -0.4649 -0.6962 -1.1764
17848TIP3   OH275034   5.452   1.966   1.925 -0.6717  0.0248  0.0167
17848TIP3    H175035   5.479   2.011   2.005 -1.7545 -0.3168  0.5905
17848TIP3    H275036   5.357   1.957   1.933 -0.5406 -1.9559 -0.2790
17849TIP3   OH275037   6.627   4.345   0.255 -0.0208 -0.2815 -0.0263
17849TIP3    H175038   6.542   4.356   0.213 -0.3228 -1.3662  0.2780
17849TIP3    H275039   6.609   4.291   0.331  1.2529 -2.2673 -1.0924
17850TIP3   OH275040   0.451   0.059   0.674  0.3495 -0.2468  0.4629
17850TIP3    H175041   0.417   0.005   0.746 -0.3811  1.3486  1.3345
17850TIP3    H275042   0.377   0.066   0.614 -0.4707  2.0655  1.6895
17851TIP3   OH275043   0.512   0.001  11.184  0.1536  0.6440 -0.2194
17851TIP3    H175044   0.488  -0.046  11.105 -2.2247  1.8403 -0.2506
17851TIP3    H275045   0.443  -0.019  11.247  2.2935 -0.7277  1.7716
17852TIP3   OH275046   5.399   4.499   4.725 -0.0696  0.2125  0.1035
17852TIP3    H175047   5.367   4.449   4.799 -0.5743  0.2209 -0.1085
17852TIP3    H275048   5.327   4.557   4.701  0.1912  0.4155 -0.2142
17853TIP3   OH275049   3.931   2.724   1.148 -0.2686 -0.5861  0.2913
17853TIP3    H175050   3.982   2.645   1.131  1.0262  0.0086  1.3696
17853TIP3    H275051   3.969   2.761   1.227 -2.0512  0.1491  0.8268
17854TIP3   OH275052   1.578   0.515  14.343  0.0724  0.7567 -0.2465
17854TIP3    H175053   1.512   0.582  14.323  0.3105  1.8393  2.3834
17854TIP3    H275054   1.653   0.564  14.376  1.3676 -0.6266 -1.0887
17855TIP3   OH275055   1.449   3.976   4.165  0.0970 -0.0635 -0.4245
17855TIP3    H175056   1.378   3.938   4.216  0.8061 -1.5096 -0.4955
17855TIP3    H275057   1.476   4.052   4.216 -2.2985  1.2418 -1.0236
17856TIP3   OH275058   2.757   6.318  13.988 -0.5210 -0.2766  0.1312
17856TIP3    H175059   2.740   6.230  13.955 -2.7114  0.5267 -0.9588
17856TIP3    H275060   2.726   6.376  13.919  5.0403  1.3936 -1.2257
17857TIP3   OH275061   0.276   5.429   0.910  0.2499 -0.1102 -0.1977
17857TIP3    H175062   0.202   5.430   0.849 -1.6854  3.5946  2.0075
17857TIP3    H275063   0.237   5.408   0.995  2.3765 -1.9896  0.3372
17858TIP3   OH275064   3.271   0.959   2.609 -0.5879  0.4971 -0.0455
17858TIP3    H175065   3.221   1.023   2.558  0.8524  1.6949  0.0199
17858TIP3    H275066   3.339   0.929   2.549  0.2067  0.8060  0.6954
17859TIP3   OH275067   5.338   5.656   0.831  0.6538  0.0811  0.3402
17859TIP3    H175068   5.304   5.689   0.748  0.6622  0.3596  0.4503
17859TIP3    H275069   5.289   5.574   0.846  0.1730  0.3770  0.3988
17860TIP3   OH275070   1.972   2.008  13.394 -0.0570  0.6372  0.2238
17860TIP3    H175071   2.066   1.993  13.393 -0.3614 -1.5902 -1.8479
17860TIP3    H275072   1.958   2.078  13.330  0.2855  1.7827  1.3911
17861TIP3   OH275073   5.212   2.344   1.362 -0.3745  0.1837 -0.1935
17861TIP3    H175074   5.228   2.353   1.456  0.1981 -1.8516 -0.0582
17861TIP3    H275075   5.207   2.433   1.329 -1.4549  0.9418  1.9144
17862TIP3   OH275076   6.291   3.421   0.461  0.2312 -0.3682 -0.0686
17862TIP3    H175077   6.240   3.453   0.387 -1.0725  0.7474  1.2789
17862TIP3    H275078   6.228   3.369   0.512  1.1860 -1.3562  0.1048
17863TIP3   OH275079   1.768   5.336   5.956 -0.1421 -0.4792 -0.5915
17863TIP3    H175080   1.864   5.344   5.956  0.0822 -2.6923 -1.7025
17863TIP3    H275081   1.741   5.383   5.877  0.0240  0.2407 -0.2202
17864TIP3   OH275082   5.691   0.724   6.212  0.4639  0.7337 -0.0587
17864TIP3    H175083   5.662   0.649   6.265 -1.4873  0.4425 -1.4585
17864TIP3    H275084   5.659   0.800   6.260  0.3026  0.5500  0.1292
17865TIP3   OH275085   1.756   0.138  14.277  0.0120 -0.2984  0.6306
17865TIP3    H175086   1.682   0.198  14.267 -0.4313 -0.7171  1.3545
17865TIP3    H275087   1.771   0.104  14.188 -1.1154 -0.7261  0.5883
17866TIP3   OH275088   1.252   1.765   1.176  0.0608  0.8135 -0.1754
17866TIP3    H175089   1.167   1.732   1.208  0.3611  0.3862  0.1876
17866TIP3    H275090   1.235   1.856   1.153 -0.4253  0.8209  0.1942
17867TIP3   OH275091   2.377   6.663   4.527 -0.1627 -0.1615  0.0466
17867TIP3    H175092   2.434   6.612   4.470 -0.6247 -1.3702  0.6509
17867TIP3    H275093   2.437   6.711   4.584  0.2696 -1.3133  0.5767
17868TIP3   OH275094   3.707   5.936  16.243 -0.1463 -0.4879 -0.0074
17868TIP3    H175095   3.651   5.879  16.190 -0.4050 -0.1317 -0.1204
17868TIP3    H275096   3.723   5.885  16.323  0.1232 -0.9600 -0.3648
17869TIP3   OH275097   5.628   2.168  10.484 -0.3288  0.2473  0.4118
17869TIP3    H175098   5.544   2.189  10.444  0.3900  0.7543 -0.8561
17869TIP3    H275099   5.648   2.080  10.452  0.3738  0.7599 -0.5596
17870TIP3   OH275100   5.225   3.071   1.676 -0.4377 -0.4594  0.6103
17870TIP3    H175101   5.261   3.122   1.604  1.0834 -1.0236  0.9435
17870TIP3    H275102   5.227   3.131   1.751 -1.5722 -0.0237  0.2911
17871TIP3   OH275103   3.569   5.179   2.033  0.4836  0.3197 -0.4018
17871TIP3    H175104   3.475   5.164   2.041  0.3980  0.1382 -1.5526
17871TIP3    H275105   3.590   5.242   2.101 -0.5503  0.6665 -0.3949
17872TIP3   OH275106   5.289   2.826   0.353  0.0601 -0.3852  0.1882
17872TIP3    H175107   5.320   2.916   0.365  0.7187 -0.5804 -0.0355
17872TIP3    H275108   5.239   2.830   0.271 -0.4612 -0.0852  0.5162
17873TIP3   OH275109   0.234   1.150   0.580 -0.3914  0.0757  0.2877
17873TIP3    H175110   0.196   1.156   0.668  2.2678  0.3431  1.4616
17873TIP3    H275111   0.323   1.183   0.590 -0.1830  0.5151 -2.6212
17874TIP3   OH275112   0.352   0.818  12.493  0.0770 -0.6570 -0.1083
17874TIP3    H175113   0.362   0.912  12.477  1.4082 -0.3074  2.4953
17874TIP3    H275114   0.415   0.777  12.434 -1.8034 -0.0838 -2.6077
17875TIP3   OH275115   3.641   2.784  17.065 -0.0445 -0.1695 -0.0886
17875TIP3    H175116   3.550   2.797  17.091  0.0854 -0.3659  0.4917
17875TIP3    H275117   3.691   2.819  17.139  0.3510  0.1258 -0.4955
17876TIP3   OH275118   5.493   5.270   0.676 -0.2635 -0.4348 -0.2299
17876TIP3    H175119   5.561   5.221   0.631  0.2390  1.2116 -1.3345
17876TIP3    H275120   5.499   5.243   0.768  3.2745  1.1497  0.0903
17877TIP3   OH275121   5.743   2.527  16.912  0.1018 -0.4544 -0.7299
17877TIP3    H175122   5.692   2.545  16.832 -0.0573 -1.7188 -0.9259
17877TIP3    H275123   5.834   2.541  16.886 -0.1746  2.4181 -0.2120
17878TIP3   OH275124   6.695   3.457   1.111  0.5009  0.0787 -0.5967
17878TIP3    H175125   6.790   3.466   1.103  0.3713  0.9711 -1.1685
17878TIP3    H275126   6.681   3.364   1.126  1.2991 -0.4447 -3.0260
17879TIP3   OH275127   1.471   5.719  13.588  0.0969  0.1444 -0.0234
17879TIP3    H175128   1.434   5.640  13.628 -2.5579  1.5174  0.3594
17879TIP3    H275129   1.429   5.725  13.502  2.6895 -0.5514 -1.3821
17880TIP3   OH275130   3.557   3.722   3.422  0.1640 -0.0667 -0.4625
17880TIP3    H175131   3.601   3.793   3.468 -1.4000  0.9299 -0.4620
17880TIP3    H275132   3.546   3.654   3.488 -1.0934  0.9287  0.3896
17881TIP3   OH275133   5.459   3.355  11.993 -0.4200  0.0066 -0.2683
17881TIP3    H175134   5.383   3.356  12.050  0.1129  1.2592  0.4563
17881TIP3    H275135   5.424   3.339  11.906 -1.4655  0.1965  0.1132
17882TIP3   OH275136   3.472   2.931  13.037  0.1723  0.2619  0.1049
17882TIP3    H175137   3.485   3.012  12.986 -1.2459  0.6598  0.3449
17882TIP3    H275138   3.472   2.861  12.971  0.3482  0.5780 -0.2321
17883TIP3   OH275139   6.302   4.788  13.499  0.2762  0.5607 -0.4435
17883TIP3    H175140   6.320   4.770  13.406  3.2532  0.9444  0.0080
17883TIP3    H275141   6.382   4.763  13.544 -1.4800 -0.5301  2.1901
17884TIP3   OH275142   3.207   0.504   2.270  0.1364 -0.0962 -0.3985
17884TIP3    H175143   3.281   0.551   2.307  0.0851 -0.2494 -0.0993
17884TIP3    H275144   3.160   0.470   2.346  0.0597 -0.4540 -0.6055
17885TIP3   OH275145   6.491   6.556   5.488 -0.2305 -0.3643  0.2126
17885TIP3    H175146   6.427   6.628   5.493  2.2578  2.0480 -1.4001
17885TIP3    H275147   6.552   6.573   5.560  1.4756  0.2920 -1.3493
17886TIP3   OH275148   1.366   4.466  16.493 -0.1212  0.3617  0.3189
17886TIP3    H175149   1.397   4.446  16.581  0.2366  1.5244  0.4722
17886TIP3    H275150   1.333   4.556  16.499 -2.3433 -0.3849 -0.1540
17887TIP3   OH275151   4.812   1.811  12.534 -0.0781  0.0931  0.2249
17887TIP3    H175152   4.886   1.832  12.477 -0.4203  1.6659  0.3338
17887TIP3    H275153   4.846   1.743  12.592  0.4791 -1.0453 -1.3955
17888TIP3   OH275154   6.763   5.105  11.002 -0.2445  0.0697  0.1583
17888TIP3    H175155   6.822   5.149  10.941  0.6467  0.1916  1.0939
17888TIP3    H275156   6.756   5.016  10.969  3.7331 -1.1421  2.2617
17889TIP3   OH275157   4.894   5.707   2.275 -0.2529  0.0412 -0.3943
17889TIP3    H175158   4.856   5.782   2.322 -1.4067 -1.0753  0.4761
17889TIP3    H275159   4.886   5.634   2.335  1.7173 -0.6164 -0.8838
17890TIP3   OH275160   6.815   5.987  14.374  0.2587 -0.1776  0.0076
17890TIP3    H175161   6.848   6.074  14.394 -0.4023  0.1538 -0.3645
17890TIP3    H275162   6.724   6.000  14.350  0.1829 -0.9601 -0.1457
17891TIP3   OH275163   6.455   2.239  12.784 -0.5719 -0.4339  0.2595
17891TIP3    H175164   6.525   2.305  12.790  0.4317 -1.5218  0.7384
17891TIP3    H275165   6.498   2.163  12.745 -1.6173 -0.9595  0.1274
17892TIP3   OH275166   6.051   1.579   3.020 -0.2119 -0.5170  0.1974
17892TIP3    H175167   6.137   1.537   3.021  0.1421  0.1812 -0.1807
17892TIP3    H275168   6.048   1.626   2.936  0.1880  1.7742  1.4166
17893TIP3   OH275169   0.726   6.803   5.680 -0.3928 -0.3215  0.2726
17893TIP3    H175170   0.749   6.714   5.655 -0.7004 -0.8211  1.7519
17893TIP3    H275171   0.797   6.857   5.644  0.1328 -1.2258 -0.0647
17894TIP3   OH275172   2.449   0.508   4.884 -0.3986 -0.1061 -0.5255
17894TIP3    H175173   2.521   0.474   4.937 -0.5240  0.3487 -0.0708
17894TIP3    H275174   2.464   0.470   4.797  0.1230 -0.3926 -0.3108
17895TIP3   OH275175   1.634   3.785  16.301  0.4299 -0.1027  0.3867
17895TIP3    H175176   1.659   3.784  16.394 -2.1594 -0.5057  1.1235
17895TIP3    H275177   1.562   3.849  16.297  0.9941  0.4340 -1.4809
17896TIP3   OH275178   4.083   5.474  14.085 -0.2885 -0.1019  0.1636
17896TIP3    H175179   4.103   5.567  14.099  0.3447  0.1183 -2.0067
17896TIP3    H275180   4.098   5.433  14.170  1.4785  1.4358  0.6190
17897TIP3   OH275181   4.836   0.958  14.630 -0.5272  0.0789 -0.2407
17897TIP3    H175182   4.747   0.934  14.653 -0.6249  1.2673  0.6167
17897TIP3    H275183   4.839   1.053  14.637  1.4500 -0.1190  2.0665
17898TIP3   OH275184   2.511   0.342   2.016 -0.1782 -0.0665  0.3367
17898TIP3    H175185   2.449   0.277   2.049  0.3298 -0.5348  0.3687
17898TIP3    H275186   2.462   0.424   2.017  0.1843  0.1432  3.3445
17899TIP3   OH275187   6.141   5.261   1.141  0.4361 -0.1395 -0.1798
17899TIP3    H175188   6.127   5.207   1.063 -1.6978  0.3401 -0.1586
17899TIP3    H275189   6.135   5.199   1.214 -0.0977 -0.1932 -0.2643
17900TIP3   OH275190   1.209   1.092  17.105 -0.4687 -0.1753 -0.3595
17900TIP3    H175191   1.162   1.029  17.160 -2.1599  0.2085 -1.3263
17900TIP3    H275192   1.145   1.162  17.089  0.6710  0.6915 -1.1334
17901TIP3   OH275193   2.466   0.068  12.655 -0.4486 -0.2754  0.3563
17901TIP3    H175194   2.458   0.142  12.596  1.7274  0.8270  1.3785
17901TIP3    H275195   2.381   0.062  12.699 -0.5118  1.9153  0.5855
17902TIP3   OH275196   3.006   1.464   0.204  0.4349 -0.4504  0.1378
17902TIP3    H175197   3.053   1.409   0.267  0.0309 -0.6706  0.2509
17902TIP3    H275198   3.018   1.553   0.236  1.6826 -0.3980 -0.4296
17903TIP3   OH275199   1.927   1.874  16.129  0.1869  0.0031  0.8328
17903TIP3    H175200   1.939   1.793  16.079  1.5862  0.9604 -0.4090
17903TIP3    H275201   1.879   1.847  16.208 -2.0151 -1.5469 -0.9810
17904TIP3   OH275202   2.585   1.142  15.839  0.3570 -0.1520 -0.3243
17904TIP3    H175203   2.665   1.177  15.879  0.8354 -2.5600  0.9268
17904TIP3    H275204   2.616   1.074  15.779 -0.7645 -2.1632  1.2874
17905TIP3   OH275205   5.511   4.706  13.015 -0.3289  0.2299  0.1077
17905TIP3    H175206   5.489   4.635  13.075  1.4346  0.6911  1.3291
17905TIP3    H275207   5.427   4.729  12.974 -0.8404 -2.8686 -0.7166
17906TIP3   OH275208   1.057   3.307  17.226 -0.2969 -0.3158  0.2780
17906TIP3    H175209   1.100   3.296  17.311  0.5605  1.3115  0.0578
17906TIP3    H275210   0.988   3.372  17.242  0.5599  0.8005 -0.5072
17907TIP3   OH275211   4.716   5.672   2.831  0.2454 -0.1854 -0.3806
17907TIP3    H175212   4.811   5.664   2.835  0.0894 -1.9548  0.0415
17907TIP3    H275213   4.689   5.605   2.769 -0.7858 -0.1246 -0.0030
17908TIP3   OH275214   0.649   5.432  12.711 -0.4153  0.8551  0.1791
17908TIP3    H175215   0.609   5.514  12.740 -4.0288 -1.1496  1.1520
17908TIP3    H275216   0.579   5.385  12.665  0.4974 -3.1538  2.5936
17909TIP3   OH275217   6.417   1.583  14.308  0.0980  0.2759 -0.1576
17909TIP3    H175218   6.331   1.615  14.280  1.4363  3.0411 -1.3047
17909TIP3    H275219   6.470   1.581  14.229  1.5914  0.2697  0.8062
17910TIP3   OH275220   4.036   5.181  11.082 -0.0143  0.3335  0.3174
17910TIP3    H175221   4.024   5.189  10.987 -1.9632  0.3943  0.5541
17910TIP3    H275222   4.064   5.268  11.110 -1.3310  0.8585  0.0542
17911TIP3   OH275223   2.336   5.735  12.994  0.1200  0.0715 -0.2459
17911TIP3    H175224   2.248   5.700  12.978 -0.4177  1.0160  0.5805
17911TIP3    H275225   2.366   5.690  13.073  0.4581 -0.3921 -0.6370
17912TIP3   OH275226   0.736   2.536   2.706  0.4287 -0.4292  0.3849
17912TIP3    H175227   0.765   2.531   2.615 -1.1430  0.4880 -0.1789
17912TIP3    H275228   0.674   2.463   2.715  1.9451 -1.6372  1.2427
17913TIP3   OH275229   6.627   4.036   1.913 -0.6742 -0.6217  0.0987
17913TIP3    H175230   6.663   4.072   1.832 -2.1338 -1.1789 -0.8079
17913TIP3    H275231   6.603   3.946   1.891  1.9643 -1.8718  2.0652
17914TIP3   OH275232   5.421   4.608   6.719  0.7971 -0.0723 -0.4221
17914TIP3    H175233   5.455   4.631   6.632  1.7887  0.4225  0.0858
17914TIP3    H275234   5.357   4.539   6.702  1.2638 -0.2533 -1.5113
17915TIP3   OH275235   6.526   3.719   1.564  0.4702 -0.0351 -0.1868
17915TIP3    H175236   6.615   3.722   1.527  0.6434  1.2662  0.2932
17915TIP3    H275237   6.476   3.666   1.502  1.1425  0.7855 -1.4564
17916TIP3   OH275238   2.060   5.431   4.296 -0.3058  0.0676  0.1909
17916TIP3    H175239   2.013   5.350   4.279  1.0417 -1.0019  1.4224
17916TIP3    H275240   2.059   5.440   4.392 -1.7161  2.2777 -0.0034
17917TIP3   OH275241   2.153   3.443  15.728  0.2711 -0.4479 -0.1973
17917TIP3    H175242   2.092   3.514  15.748  1.0619  0.2215 -0.1592
17917TIP3    H275243   2.131   3.373  15.790 -0.4325 -0.1933 -0.1622
17918TIP3   OH275244   1.675   6.055   3.686  0.2978 -0.2201 -0.1972
17918TIP3    H175245   1.699   5.963   3.688  0.2734 -0.2175  0.2074
17918TIP3    H275246   1.587   6.056   3.647 -0.1776 -0.4722  0.8604
17919TIP3   OH275247   1.844   3.303  12.936  0.2769 -0.3684  0.1307
17919TIP3    H175248   1.926   3.310  12.887 -0.8037  0.7807 -1.5301
17919TIP3    H275249   1.793   3.237  12.890 -1.7512  2.4511 -1.8531
17920TIP3   OH275250   3.363   1.534   6.218  0.3909 -0.0229 -0.0802
17920TIP3    H175251   3.375   1.445   6.252  0.1243  0.4874  1.3484
17920TIP3    H275252   3.331   1.584   6.292  1.1383  1.4237 -0.7239
17921TIP3   OH275253   3.227   2.359   5.736  0.2894  0.0690 -0.9587
17921TIP3    H175254   3.238   2.377   5.829  1.9374  1.0093 -1.3282
17921TIP3    H275255   3.316   2.344   5.704 -0.3096 -0.6283 -2.3038
17922TIP3   OH275256   0.556   0.131   6.248 -0.6672 -0.1984 -0.8433
17922TIP3    H175257   0.537   0.049   6.202  1.2880 -0.7576 -0.6991
17922TIP3    H275258   0.534   0.112   6.339 -1.6295 -0.0816 -1.0497
17923TIP3   OH275259   1.565   0.316  17.180 -0.0141  0.1711  0.1415
17923TIP3    H175260   1.499   0.365  17.131 -1.9709  0.9551  3.3975
17923TIP3    H275261   1.601   0.380  17.241  2.4188 -0.7464 -0.2898
17924TIP3   OH275262   0.774   1.384   0.749 -0.0545 -0.0552  0.2432
17924TIP3    H175263   0.804   1.469   0.780  0.5833 -0.3741  0.5115
17924TIP3    H275264   0.715   1.353   0.818 -0.0511  0.0351  0.2859
17925TIP3   OH275265   2.870   5.457   3.081 -0.1648  0.6182 -0.4583
17925TIP3    H175266   2.918   5.376   3.100 -1.6652  0.1503  1.4584
17925TIP3    H275267   2.865   5.460   2.985  0.8832 -0.9579 -0.5854
17926TIP3   OH275268   0.214   5.715   0.949 -0.0640  0.3523 -0.1366
17926TIP3    H175269   0.197   5.721   1.043  0.7936  0.5903  0.0015
17926TIP3    H275270   0.220   5.622   0.930 -0.5428  0.2953 -0.0114
17927TIP3   OH275271   2.471   4.779   2.278 -0.1351 -0.1207 -0.0926
17927TIP3    H175272   2.445   4.843   2.344 -0.3482 -0.2670 -0.0313
17927TIP3    H275273   2.427   4.698   2.305  0.9278 -0.5455  0.3944
17928TIP3   OH275274   0.952   3.888   1.193 -0.1125 -0.0186  0.3443
17928TIP3    H175275   0.906   3.920   1.271 -0.7901 -0.5819  0.1738
17928TIP3    H275276   0.988   3.967   1.153 -0.2259  0.3345  0.9240
17929TIP3   OH275277   2.291   6.102   5.780 -0.4139  0.0712  0.1301
17929TIP3    H175278   2.209   6.132   5.742 -1.4040 -1.1646  1.2268
17929TIP3    H275279   2.351   6.096   5.706 -1.2405  1.1813 -0.6530
17930TIP3   OH275280   3.007   4.498  15.825  0.3919 -0.1430  0.1069
17930TIP3    H175281   3.013   4.576  15.770 -1.9076 -0.0005  0.0065
17930TIP3    H275282   2.945   4.441  15.779  0.6916 -1.2830  1.0739
17931TIP3   OH275283   2.547   5.766   0.954 -0.0130 -0.1740  0.6302
17931TIP3    H175284   2.568   5.709   1.029 -1.0834  0.9313  1.8017
17931TIP3    H275285   2.515   5.705   0.887 -0.0337 -1.0844  1.4425
17932TIP3   OH275286   0.159   1.154   5.594  0.4459  0.5378  0.2539
17932TIP3    H175287   0.213   1.152   5.673  1.3254 -1.6789 -0.3607
17932TIP3    H275288   0.220   1.177   5.523  0.3968 -0.9172 -0.2830
17933TIP3   OH275289   6.410   5.153   5.936  0.2913 -0.7390 -0.2234
17933TIP3    H175290   6.318   5.144   5.912  0.0794  1.0810 -0.2201
17933TIP3    H275291   6.445   5.064   5.933 -1.7932 -1.6265  1.1718
17934TIP3   OH275292   2.574   1.641  12.844  0.2004 -0.3920  0.1119
17934TIP3    H175293   2.506   1.671  12.904  1.0469  2.1194 -0.1235
17934TIP3    H275294   2.583   1.712  12.780  2.7395 -0.8419 -0.0929
17935TIP3   OH275295   5.531   5.761  14.764  0.2067  0.0984 -0.0932
17935TIP3    H175296   5.499   5.720  14.683 -1.1646  0.1776  0.3936
17935TIP3    H275297   5.598   5.701  14.796  1.0771  0.2910 -1.5147
17936TIP3   OH275298   0.489   5.419   1.381  0.2474  0.8063 -0.2732
17936TIP3    H175299   0.406   5.442   1.422 -0.0891  2.1397 -1.6311
17936TIP3    H275300   0.545   5.390   1.453 -2.5030 -3.6285  0.2330
17937TIP3   OH275301   2.283   1.172  10.586 -0.0501 -0.0069 -0.2755
17937TIP3    H175302   2.233   1.222  10.521  0.1772  0.1230 -0.3474
17937TIP3    H275303   2.273   1.081  10.559  1.6029  0.1843 -1.5743
17938TIP3   OH275304   4.801   0.331   3.541  0.5831 -0.4826  0.1517
17938TIP3    H175305   4.753   0.403   3.502  0.3656 -0.9358 -0.4282
17938TIP3    H275306   4.856   0.372   3.608 -0.2159  0.0939  0.4551
17939TIP3   OH275307   3.102   6.719   0.214 -0.4151 -1.0305  0.1935
17939TIP3    H175308   3.045   6.775   0.162  1.0310 -0.8095 -1.2061
17939TIP3    H275309   3.169   6.778   0.247  0.9139 -1.8393 -0.9916
17940TIP3   OH275310   5.888   2.557   2.020 -0.0944  0.2272 -0.2238
17940TIP3    H175311   5.912   2.547   1.928  2.7448 -0.4488  0.5470
17940TIP3    H275312   5.832   2.481   2.038  3.1435 -2.2710 -0.2445
17941TIP3   OH275313   3.161   0.358   2.499  0.4746 -0.1041  0.4357
17941TIP3    H175314   3.182   0.268   2.523 -0.7976 -0.5451 -0.0700
17941TIP3    H275315   3.230   0.411   2.540 -0.0312 -1.0903  2.6197
17942TIP3   OH275316   2.498   4.251  16.311  0.3960  0.3031 -0.4689
17942TIP3    H175317   2.583   4.268  16.350  0.7492  1.4597 -1.7412
17942TIP3    H275318   2.514   4.181  16.248  0.4709  0.7233 -0.9205
17943TIP3   OH275319   3.254   3.461  14.299 -0.3916  0.2041  0.0197
17943TIP3    H175320   3.196   3.397  14.258 -0.6690  0.2425  0.3565
17943TIP3    H275321   3.329   3.410  14.330 -0.4202  0.1024 -0.0785
17944TIP3   OH275322   5.911   2.003  15.881  0.2011  0.8765  0.0455
17944TIP3    H175323   5.901   2.067  15.952 -4.5684 -1.3267  1.5762
17944TIP3    H275324   5.845   2.027  15.817  0.3369 -0.8004 -0.7545
17945TIP3   OH275325   4.823   0.201   6.174  0.1274  0.2472 -0.3856
17945TIP3    H175326   4.844   0.222   6.265  3.1832  2.3019 -1.4858
17945TIP3    H275327   4.881   0.128   6.152  1.5444  1.6636 -1.4967
17946TIP3   OH275328   0.437   5.680   6.160  0.4524  0.0528 -0.5441
17946TIP3    H175329   0.479   5.648   6.239  1.0088  1.0210 -0.4495
17946TIP3    H275330   0.351   5.711   6.189 -0.0083 -1.1300 -0.6015
17947TIP3   OH275331   3.606   4.866   4.595 -0.4607  0.0937 -0.1385
17947TIP3    H175332   3.684   4.811   4.591  0.1685  0.9733 -0.2334
17947TIP3    H275333   3.607   4.901   4.684  0.1496  1.3783 -0.6414
17948TIP3   OH275334   4.874   4.922  15.525 -0.1141 -0.3511  0.3195
17948TIP3    H175335   4.925   4.998  15.554  0.6190 -0.5600 -0.4004
17948TIP3    H275336   4.789   4.957  15.501  0.5493  0.4083 -0.9737
17949TIP3   OH275337   2.233   2.451   6.370  0.3914  0.0107  0.0630
17949TIP3    H175338   2.276   2.501   6.439  0.5509 -1.4792  1.0549
17949TIP3    H275339   2.176   2.389   6.416  0.8831 -1.3567 -1.1109
17950TIP3   OH275340   1.471   3.929   0.141 -0.8069 -0.2572 -0.3867
17950TIP3    H175341   1.405   3.909   0.208  1.5787 -0.9437  1.8387
17950TIP3    H275342   1.491   4.022   0.154 -0.0138 -0.5029  0.1592
17951TIP3   OH275343   2.308   0.826  13.124  0.4240 -0.5993  0.2602
17951TIP3    H175344   2.221   0.845  13.159  0.3312 -2.5627  1.1800
17951TIP3    H275345   2.301   0.736  13.091  2.1984 -0.9312  0.7333
17952TIP3   OH275346   0.821   0.750  11.941 -0.0940 -1.0274 -0.1336
17952TIP3    H175347   0.742   0.804  11.945  0.0977 -0.7172 -0.4337
17952TIP3    H275348   0.833   0.732  11.847  2.6080  2.5794 -0.5984
17953TIP3   OH275349   5.596   0.290  14.245 -0.1927  0.1410 -0.0778
17953TIP3    H175350   5.624   0.380  14.262  2.1034 -0.9682  2.4304
17953TIP3    H275351   5.668   0.251  14.195 -1.0304 -0.3899 -0.8802
17954TIP3   OH275352   2.738   2.698  13.354 -0.4369 -0.1478  0.3591
17954TIP3    H175353   2.810   2.744  13.313 -1.9551  1.1460 -0.9178
17954TIP3    H275354   2.723   2.745  13.437  0.7931 -1.0200  1.0860
17955TIP3   OH275355   1.104   3.656  11.245  0.2954  0.1655  0.6893
17955TIP3    H175356   1.053   3.732  11.273 -2.2910 -1.0310 -0.6238
17955TIP3    H275357   1.136   3.679  11.157  0.7710  0.3083  0.8955
17956TIP3   OH275358   2.601   2.614   0.707 -0.8728 -0.2453  0.1156
17956TIP3    H175359   2.607   2.656   0.792  2.4221  2.6103 -1.4150
17956TIP3    H275360   2.522   2.650   0.667 -2.7317 -2.0051  2.0837
17957TIP3   OH275361   3.069   4.340   4.564 -0.3515  0.5372  0.3995
17957TIP3    H175362   2.978   4.366   4.547  0.2453  1.9158 -0.7475
17957TIP3    H275363   3.097   4.397   4.635  0.7039  2.5405 -1.5788
17958TIP3   OH275364   2.578   0.142   5.399  0.0211  0.0123  0.4270
17958TIP3    H175365   2.581   0.066   5.458  0.2956  0.6062  1.1874
17958TIP3    H275366   2.485   0.159   5.386 -0.0480 -1.1912 -0.7082
17959TIP3   OH275367   0.055   2.757   0.451 -0.8106 -0.1114 -0.1107
17959TIP3    H175368   0.113   2.693   0.410  0.2667  0.6321  0.2672
17959TIP3    H275369   0.060   2.738   0.544 -2.7108 -1.3282 -0.2089
17960TIP3   OH275370   4.431   3.346  11.978 -0.1334 -0.0745 -0.0055
17960TIP3    H175371   4.402   3.279  12.039 -0.7953  0.8095  0.6407
17960TIP3    H275372   4.369   3.418  11.988 -0.9324 -0.3674 -2.5299
17961TIP3   OH275373   3.439   3.906  14.249 -0.4544 -0.2682 -0.3079
17961TIP3    H175374   3.443   3.990  14.294  1.6395 -0.4371 -0.1419
17961TIP3    H275375   3.452   3.841  14.318 -0.8889 -0.6898 -0.6131
17962TIP3   OH275376   1.045   0.778   3.963 -0.2388  0.1871 -0.3726
17962TIP3    H175377   1.104   0.792   3.889 -0.6270 -0.0022 -0.7204
17962TIP3    H275378   0.963   0.749   3.923 -0.4278  0.0129  0.1376
17963TIP3   OH275379   4.809   5.706  12.620  0.4048  0.3824  1.2765
17963TIP3    H175380   4.881   5.676  12.564 -0.3567  2.6977 -1.0372
17963TIP3    H275381   4.796   5.634  12.682  4.7111 -0.0972  1.8004
17964TIP3   OH275382   1.786   5.204   1.029  0.1814  0.6491  0.2040
17964TIP3    H175383   1.717   5.186   0.965  1.0438  0.3262 -0.6446
17964TIP3    H275384   1.846   5.263   0.983  2.2536 -1.7278 -0.2553
17965TIP3   OH275385   3.884   3.151  13.922 -0.2619 -0.0728 -0.2761
17965TIP3    H175386   3.968   3.182  13.956 -1.4239 -0.0329  2.7246
17965TIP3    H275387   3.894   3.056  13.919 -0.3798 -0.1422  0.9718
17966TIP3   OH275388   2.827   3.626  11.047 -0.4637 -0.5991  0.4261
17966TIP3    H175389   2.762   3.689  11.016  3.0197  2.6509 -0.5277
17966TIP3    H275390   2.831   3.560  10.977  1.3603  2.2632 -2.2982
17967TIP3   OH275391   2.483   3.343  15.555  0.1202 -0.0880  0.1045
17967TIP3    H175392   2.576   3.319  15.547 -0.1904 -0.4589 -3.1743
17967TIP3    H275393   2.445   3.273  15.608  1.6111 -0.2099  1.0490
17968TIP3   OH275394   3.514   0.320  12.440 -0.1249  0.1681  0.0450
17968TIP3    H175395   3.443   0.268  12.403  1.1234 -0.9834 -0.7787
17968TIP3    H275396   3.476   0.407  12.453 -1.3031 -0.0798 -1.6224
17969TIP3   OH275397   0.594   3.636  17.170 -0.1075 -0.6586 -0.2812
17969TIP3    H175398   0.532   3.668  17.237 -0.4188  1.3118 -1.4587
17969TIP3    H275399   0.545   3.570  17.122 -0.7929 -0.2081 -0.2233
17970TIP3   OH275400   3.624   3.196   3.619 -0.3452  0.3056  0.3543
17970TIP3    H175401   3.537   3.203   3.658 -0.3898 -0.7865  0.4751
17970TIP3    H275402   3.673   3.142   3.682 -0.4160 -1.4882 -1.0993
17971TIP3   OH275403   5.132   4.051   0.864 -0.6761  0.4794  0.1724
17971TIP3    H175404   5.061   4.049   0.928 -0.7702  0.3275  0.0636
17971TIP3    H275405   5.088   4.047   0.779 -0.5061 -0.2582  0.1189
17972TIP3   OH275406   3.679   4.973  12.300  0.4172 -0.5262  0.0425
17972TIP3    H175407   3.695   5.064  12.324  0.2750 -0.9933  2.0452
17972TIP3    H275408   3.589   4.956  12.328  0.3246 -1.1697 -0.6428
17973TIP3   OH275409   6.201   3.418  11.734 -0.5633 -0.2434 -0.1497
17973TIP3    H175410   6.148   3.495  11.712 -2.6880 -1.6327 -0.0014
17973TIP3    H275411   6.137   3.348  11.749  1.3548 -2.2632 -1.0870
17974TIP3   OH275412   2.396   3.331   0.204  0.6887  0.8112 -0.2629
17974TIP3    H175413   2.314   3.346   0.250 -0.5738 -1.5417 -1.6273
17974TIP3    H275414   2.406   3.407   0.147 -1.2881  0.4833 -1.1006
17975TIP3   OH275415   1.285   2.677   1.667 -1.2007  0.2679  1.1562
17975TIP3    H175416   1.232   2.659   1.589 -0.7872  1.7491  0.5221
17975TIP3    H275417   1.265   2.604   1.726 -1.2347 -1.0817 -0.4630
17976TIP3   OH275418   6.067   2.261   5.483  0.7870  0.2780  0.0064
17976TIP3    H175419   6.116   2.332   5.524  0.3235  0.0344  1.0033
17976TIP3    H275420   6.093   2.264   5.391  2.1443  0.5956  0.3778
17977TIP3   OH275421   5.630   2.238  13.293  0.3176 -0.0431  0.3821
17977TIP3    H175422   5.608   2.250  13.201  1.2490  0.0285  0.1615
17977TIP3    H275423   5.563   2.287  13.341 -0.5575 -0.6443 -0.2349
17978TIP3   OH275424   1.321   3.314   0.933  0.2487  0.2640 -0.6806
17978TIP3    H175425   1.266   3.268   0.997  3.3199 -0.5513  1.4659
17978TIP3    H275426   1.284   3.290   0.848 -1.1299 -2.3497  0.6050
17979TIP3   OH275427   3.180   1.807  10.624 -0.7089 -0.0658 -0.0890
17979TIP3    H175428   3.138   1.759  10.552 -0.3773 -0.3416 -0.1006
17979TIP3    H275429   3.172   1.748  10.699 -2.9523  1.0891  0.6529
17980TIP3   OH275430   0.229   1.129  16.979  0.1219 -0.0650 -0.0352
17980TIP3    H175431   0.238   1.186  17.055 -0.3702 -0.1426  0.0778
17980TIP3    H275432   0.164   1.172  16.923 -0.3885 -0.6048  0.1387
17981TIP3   OH275433   5.749   3.863  10.960 -0.1799  0.0813  0.0573
17981TIP3    H175434   5.676   3.885  11.018  1.7258 -0.1553  2.6095
17981TIP3    H275435   5.764   3.770  10.976  0.2548 -0.0365 -0.9964
17982TIP3   OH275436   5.161   4.923   4.843  0.1297  0.3381  0.0241
17982TIP3    H175437   5.175   4.997   4.902 -0.7364 -0.8295  1.7271
17982TIP3    H275438   5.099   4.867   4.889 -0.3824 -0.7172 -1.9089
17983TIP3   OH275439   0.273   4.047   0.927  0.4100  0.6006  0.1539
17983TIP3    H175440   0.357   4.093   0.919 -0.8649  2.7970 -1.2890
17983TIP3    H275441   0.229   4.091   1.001  0.8416 -1.0983  1.4475
17984TIP3   OH275442   2.762   2.657  14.625  0.2838  0.4536 -0.4684
17984TIP3    H175443   2.727   2.666  14.537 -1.5797 -0.2828  0.1785
17984TIP3    H275444   2.829   2.589  14.617  0.3132  0.5877 -1.3653
17985TIP3   OH275445   6.386   4.495   2.414 -0.0320 -0.7559  0.4747
17985TIP3    H175446   6.422   4.580   2.436 -1.9242  0.3404 -0.4687
17985TIP3    H275447   6.447   4.459   2.350  0.9699 -0.2693  1.1444
17986TIP3   OH275448   5.126   5.880   2.218 -0.5559 -0.0832  0.5499
17986TIP3    H175449   5.064   5.811   2.197 -2.5553  1.4125  1.3494
17986TIP3    H275450   5.119   5.942   2.145  0.0199  0.0778  0.6269
17987TIP3   OH275451   4.593   5.006  14.175  0.1412 -0.6359  0.0689
17987TIP3    H175452   4.657   4.958  14.122  0.3081 -1.4966  1.0195
17987TIP3    H275453   4.580   4.950  14.252 -0.9973  0.0193  0.3603
17988TIP3   OH275454   3.678   3.372   0.376 -0.6168  0.0648  0.0270
17988TIP3    H175455   3.704   3.369   0.468  1.9661 -0.4380 -0.6874
17988TIP3    H275456   3.623   3.294   0.364 -0.6968 -0.0421  1.0550
17989TIP3   OH275457   3.220   2.008   4.127 -0.1503 -0.0458  0.0751
17989TIP3    H175458   3.304   1.995   4.171 -0.8520 -1.1038  1.1330
17989TIP3    H275459   3.169   1.930   4.149 -2.1549  1.5297  1.1667
17990TIP3   OH275460   1.403   1.287  11.285 -0.3868  0.7328  0.8786
17990TIP3    H175461   1.357   1.246  11.212  1.0397  1.4099 -0.4209
17990TIP3    H275462   1.382   1.380  11.277  3.1335  1.4339 -1.2314
17991TIP3   OH275463   6.235   2.052  15.275  0.3067  0.4853 -0.4500
17991TIP3    H175464   6.219   2.035  15.368 -0.7005 -0.5560 -0.8002
17991TIP3    H275465   6.326   2.080  15.271  0.2138  1.0139  0.9122
17992TIP3   OH275466   1.742   5.157  13.454  0.1568  0.2465  0.0661
17992TIP3    H175467   1.724   5.095  13.383 -0.9815  0.4392  0.1892
17992TIP3    H275468   1.799   5.108  13.514  0.9265 -0.0021 -0.8405
17993TIP3   OH275469   5.565   5.818   0.484  0.4067  0.2999  0.4583
17993TIP3    H175470   5.611   5.880   0.426  2.0479  2.2022  3.6297
17993TIP3    H275471   5.632   5.754   0.508 -0.3312 -0.6223  0.0569
17994TIP3   OH275472   3.930   3.287   3.040 -0.4537 -0.3656  0.8893
17994TIP3    H175473   3.905   3.238   3.118  3.4608 -2.9940  0.6530
17994TIP3    H275474   3.923   3.223   2.969 -1.2875  1.2226 -0.4909
17995TIP3   OH275475   4.804   3.100  13.408 -0.1607 -0.2373 -0.3009
17995TIP3    H175476   4.845   3.018  13.437 -1.2416 -1.1829 -1.3851
17995TIP3    H275477   4.790   3.149  13.489  1.4348 -0.6632  0.2705
17996TIP3   OH275478   1.665   3.044   3.173 -0.5380 -0.8877  0.0440
17996TIP3    H175479   1.619   3.017   3.094 -2.5278 -0.5230  1.0507
17996TIP3    H275480   1.706   2.964   3.206  1.9528 -0.6829 -2.3701
17997TIP3   OH275481   6.523   0.397   2.001  0.0100  0.1482  0.3544
17997TIP3    H175482   6.498   0.452   2.075 -0.5123  1.0941 -0.4995
17997TIP3    H275483   6.596   0.444   1.960 -0.8607  0.5805 -0.7621
17998TIP3   OH275484   2.120   2.741   4.495  0.2640  0.1923 -0.4627
17998TIP3    H175485   2.124   2.692   4.577  1.1872  0.5990 -0.2562
17998TIP3    H275486   2.035   2.718   4.457 -0.3946  0.3860  0.8505
17999TIP3   OH275487   1.581   4.246  16.466  0.0146 -0.0775 -0.2558
17999TIP3    H175488   1.674   4.239  16.486 -0.2089 -1.3813  0.3410
17999TIP3    H275489   1.538   4.260  16.550 -0.1785  2.4532 -0.7159
18000TIP3   OH275490   2.127   5.746   3.893  0.8287 -0.0528 -0.2977
18000TIP3    H175491   2.092   5.672   3.944  1.3857  0.0417  0.2280
18000TIP3    H275492   2.113   5.822   3.948  1.4707  0.0459 -0.2670
18001TIP3   OH275493   0.461   5.638   0.018 -0.2618  0.4952  0.4969
18001TIP3    H175494   0.380   5.677   0.051 -0.2165  0.1530  1.0117
18001TIP3    H275495   0.471   5.675  -0.070 -1.2598  0.1198  0.2171
18002TIP3   OH275496   4.126   5.690  11.582  0.1362  0.3538 -0.1433
18002TIP3    H175497   4.159   5.648  11.502  1.1833  1.3133 -0.2251
18002TIP3    H275498   4.046   5.735  11.554  0.6507  0.9175 -0.7150
18003TIP3   OH275499   0.673   1.930  16.476 -0.5493  0.0562  0.6394
18003TIP3    H175500   0.748   1.973  16.436  0.4043 -0.3603  1.9296
18003TIP3    H275501   0.605   1.931  16.409  1.1084 -0.9427 -1.0685
18004TIP3   OH275502   1.741   2.599   5.921  0.4526  0.5533  0.5015
18004TIP3    H175503   1.708   2.579   6.008 -2.4043  0.2038 -0.5925
18004TIP3    H275504   1.713   2.689   5.904  0.1000  0.2796 -0.4284
18005TIP3   OH275505   4.526   4.091   3.272  0.4742  0.0444  0.2279
18005TIP3    H175506   4.588   4.161   3.291  0.9916 -0.3508  0.0118
18005TIP3    H275507   4.561   4.015   3.318 -1.5554  0.5747  2.7637
18006TIP3   OH275508   6.098   5.790   5.313 -0.3785 -0.9383  0.1413
18006TIP3    H175509   6.088   5.713   5.256  2.8086 -0.5894 -0.9876
18006TIP3    H275510   6.189   5.785   5.344 -0.8391  1.1263  1.9520
18007TIP3   OH275511   5.330   3.114   0.478 -0.5661 -0.2493  0.0672
18007TIP3    H175512   5.291   3.195   0.511  0.6224 -0.2309  1.5123
18007TIP3    H275513   5.310   3.049   0.546 -1.0754 -1.0534 -0.8407
18008TIP3   OH275514   1.726   0.276  15.009  0.5827 -0.2764 -0.1460
18008TIP3    H175515   1.663   0.345  15.029  0.2823 -0.8795  1.0340
18008TIP3    H275516   1.811   0.317  15.021  0.4281  0.4264 -1.3468
18009TIP3   OH275517   3.877   2.350  16.545  0.0372  0.0609  0.3293
18009TIP3    H175518   3.866   2.258  16.520 -2.7731  0.1768  1.0044
18009TIP3    H275519   3.861   2.351  16.639 -2.0718  1.5152 -0.0034
18010TIP3   OH275520   0.241   2.664   1.693 -0.6861 -0.4903  0.3026
18010TIP3    H175521   0.202   2.664   1.781  0.0330 -1.2283  0.6251
18010TIP3    H275522   0.194   2.733   1.647 -0.0552  0.9159  1.7154
18011TIP3   OH275523   4.403   0.580   1.302 -0.1130 -0.4392 -0.3586
18011TIP3    H175524   4.374   0.585   1.211 -1.4352  0.4293  0.0881
18011TIP3    H275525   4.455   0.659   1.315  0.5636 -0.8539 -0.5157
18012TIP3   OH275526   2.958   5.857  14.082  0.3110  0.4298 -0.0871
18012TIP3    H175527   3.036   5.806  14.062 -1.2388 -2.2162  0.3902
18012TIP3    H275528   2.973   5.892  14.170  0.8017 -0.3800  0.1538
18013TIP3   OH275529   2.585   5.579  14.228  0.2338 -0.2590  0.5550
18013TIP3    H175530   2.590   5.653  14.288  1.9159 -0.9694  1.3231
18013TIP3    H275531   2.676   5.558  14.208 -0.2433 -1.6753 -0.1980
18014TIP3   OH275532   0.961   5.811  11.749 -0.4666  0.1289  0.6262
18014TIP3    H175533   0.957   5.850  11.662 -0.6276  0.8039  0.9390
18014TIP3    H275534   0.924   5.723  11.736 -0.7586  0.3256  0.0705
18015TIP3   OH275535   0.002   3.934  11.363  0.2853  0.3981  0.2728
18015TIP3    H175536   0.046   3.957  11.281 -0.1302  0.4148  0.0524
18015TIP3    H275537  -0.083   3.899  11.336 -0.1607  1.1131  0.7232
18016TIP3   OH275538   2.172   2.098  14.732 -0.0446 -0.4394  1.2464
18016TIP3    H175539   2.232   2.035  14.772  1.3591  0.2865  0.3184
18016TIP3    H275540   2.146   2.056  14.649  0.0861 -0.2515  1.1098
18017TIP3   OH275541   2.344   0.610   3.175 -0.3624  0.0847  0.7612
18017TIP3    H175542   2.259   0.651   3.191 -0.8158 -0.5858  0.0949
18017TIP3    H275543   2.388   0.671   3.116 -0.7556 -0.0237  0.3491
18018TIP3   OH275544   0.297   3.114   4.124 -0.0669  0.4363 -0.0252
18018TIP3    H175545   0.292   3.160   4.208 -0.2295 -0.7609  0.6165
18018TIP3    H275546   0.206   3.097   4.100  0.0360 -0.3976  0.1930
18019TIP3   OH275547   0.106   6.704   0.908 -0.0128 -0.1147  0.1123
18019TIP3    H175548   0.114   6.787   0.861  1.4194 -0.2901  0.0149
18019TIP3    H275549   0.015   6.677   0.893  0.2206  0.1525 -2.0456
18020TIP3   OH275550   6.027   2.382   0.668 -0.0443 -0.3772  0.0713
18020TIP3    H175551   5.937   2.415   0.670  0.2594  0.5548 -0.8949
18020TIP3    H275552   6.078   2.456   0.637  0.7055 -1.6543 -1.8416
18021TIP3   OH275553   2.647   6.438  15.348  0.5295  0.2178  0.4932
18021TIP3    H175554   2.687   6.351  15.348 -0.7713 -0.3909  1.0237
18021TIP3    H275555   2.616   6.450  15.438 -1.1287  0.3758 -0.0881
18022TIP3   OH275556   1.169   2.170  15.414 -0.5676 -0.3799 -0.6006
18022TIP3    H175557   1.228   2.181  15.488  0.8608 -0.2846 -1.7460
18022TIP3    H275558   1.165   2.076  15.399 -2.5313 -0.5810  0.9091
18023TIP3   OH275559   5.117   0.771   3.370 -0.4141  0.3101 -0.8216
18023TIP3    H175560   5.096   0.678   3.359  0.5975  0.1760 -1.6632
18023TIP3    H275561   5.209   0.778   3.345  0.1862  1.1356  1.4455
18024TIP3   OH275562   2.440   3.341  10.986 -0.6467 -0.1413 -0.0134
18024TIP3    H175563   2.418   3.334  11.079  0.2537 -0.7101  0.1605
18024TIP3    H275564   2.426   3.253  10.951 -3.1818  0.5798 -0.9254
18025TIP3   OH275565   2.565   5.668  11.212 -0.2013  0.6141 -0.6347
18025TIP3    H175566   2.481   5.648  11.254 -0.0786  1.8992  0.2570
18025TIP3    H275567   2.627   5.606  11.251 -0.8077 -0.6105 -1.5913
18026TIP3   OH275568   2.067   6.329   2.394 -0.1134 -0.4200 -0.7371
18026TIP3    H175569   2.022   6.271   2.454 -0.4188 -0.8767 -1.4062
18026TIP3    H275570   2.034   6.305   2.307 -1.1209  1.5191 -0.9266
18027TIP3   OH275571   5.352   3.020  13.290  0.0485  0.1386  0.3339
18027TIP3    H175572   5.354   2.961  13.365 -0.3277  0.2779  0.4552
18027TIP3    H275573   5.351   3.108  13.328 -1.4082  0.1901  0.1923
18028TIP3   OH275574   1.494   3.522   0.969 -0.2741 -0.0748 -0.4195
18028TIP3    H175575   1.543   3.497   1.047  0.3522 -0.4397 -0.9311
18028TIP3    H275576   1.449   3.442   0.942  0.0551 -0.1231 -0.8292
18029TIP3   OH275577   4.064   4.140  11.361 -0.0749  0.3765  0.6704
18029TIP3    H175578   4.003   4.201  11.403 -2.3400 -0.9244 -0.6234
18029TIP3    H275579   4.042   4.145  11.268  0.4348 -1.6028  0.4196
18030TIP3   OH275580   2.124   1.287  10.353 -0.1772  0.2099  0.1152
18030TIP3    H175581   2.128   1.355  10.285  0.2308 -1.4145 -1.5201
18030TIP3    H275582   2.039   1.246  10.342 -0.5371  0.6199  1.2888
18031TIP3   OH275583   2.973   6.354   0.085 -0.2149 -0.0207  0.3018
18031TIP3    H175584   3.035   6.419   0.053 -0.6427  0.3069  0.1418
18031TIP3    H275585   3.026   6.294   0.138  0.2869  0.0966 -0.0667
18032TIP3   OH275586   6.099   4.318  11.859  0.2261 -0.0291 -0.1493
18032TIP3    H175587   6.020   4.369  11.841  0.1197  0.4020  1.4130
18032TIP3    H275588   6.170   4.381  11.852  0.2615 -0.0439  0.0620
18033TIP3   OH275589   3.107   0.310   0.075  0.4236  0.1741 -0.4173
18033TIP3    H175590   3.175   0.329   0.139  0.1058  1.3139 -0.3924
18033TIP3    H275591   3.088   0.395   0.034 -0.7707 -0.1738 -0.6275
18034TIP3   OH275592   2.039   6.661   1.290  1.0713  0.3279 -0.2027
18034TIP3    H175593   2.133   6.648   1.290  0.9257 -0.7933  0.0294
18034TIP3    H275594   2.012   6.641   1.380  0.7060  1.3281 -0.0839
18035TIP3   OH275595   4.280   4.572  11.695  0.4610  0.1784  0.2899
18035TIP3    H175596   4.217   4.553  11.765  0.0931  1.5951  0.3633
18035TIP3    H275597   4.258   4.661  11.667  3.2812  1.2298  1.2203
18036TIP3   OH275598   4.455   1.622  12.790 -0.1990  0.3101 -0.1638
18036TIP3    H175599   4.420   1.536  12.768 -0.8834 -0.1310  2.4700
18036TIP3    H275600   4.546   1.605  12.815  0.4852  0.7662 -2.2155
18037TIP3   OH275601   6.236   1.902   0.160 -0.4774 -0.1807  0.9757
18037TIP3    H175602   6.316   1.912   0.107 -1.0646  1.4810  0.3610
18037TIP3    H275603   6.191   1.828   0.120  0.5501 -0.8720  1.0677
18038TIP3   OH275604   4.068   5.001  11.888 -0.1389 -0.1479  0.5156
18038TIP3    H175605   4.146   5.056  11.890 -0.2268  0.0595 -0.9819
18038TIP3    H275606   4.003   5.049  11.939 -0.3030  1.2975 -1.0260
18039TIP3   OH275607   5.912   0.199  14.504 -0.4722 -0.7298 -0.1522
18039TIP3    H175608   6.003   0.198  14.533 -0.3168  0.4963 -0.5393
18039TIP3    H275609   5.871   0.267  14.557 -0.5487  0.4531 -1.6758
18040TIP3   OH275610   3.117   6.225   3.111 -0.6495  0.2229 -0.3931
18040TIP3    H175611   3.071   6.233   3.028  1.7433 -1.0610 -1.8770
18040TIP3    H275612   3.201   6.269   3.097 -0.0808 -0.2873  1.2232
18041TIP3   OH275613   1.593   2.579   4.545  0.0356 -0.1981 -0.6184
18041TIP3    H175614   1.603   2.487   4.570  0.6353  0.0249 -0.0193
18041TIP3    H275615   1.536   2.577   4.468 -1.6481 -0.9194  0.6124
18042TIP3   OH275616   2.465   4.812   1.868 -0.1508 -0.1678  0.4221
18042TIP3    H175617   2.540   4.752   1.868 -0.0306 -0.0194  0.6854
18042TIP3    H275618   2.398   4.767   1.920 -0.2889 -0.3569  0.0759
18043TIP3   OH275619   3.797   5.513  14.999 -0.4622 -0.1692 -0.1084
18043TIP3    H175620   3.859   5.456  14.955 -0.6256  0.3875 -1.0773
18043TIP3    H275621   3.836   5.530  15.084 -0.4001 -1.6883  0.1756
18044TIP3   OH275622   4.768   5.480  12.769 -0.1664 -0.5334 -0.4023
18044TIP3    H175623   4.676   5.485  12.796 -0.1745 -0.3360 -0.4690
18044TIP3    H275624   4.790   5.387  12.775 -0.1824 -0.4969  0.2421
18045TIP3   OH275625   5.866   6.613   2.001 -0.1075 -0.7185 -0.2855
18045TIP3    H175626   5.789   6.605   2.056  0.3597  0.0953  0.4892
18045TIP3    H275627   5.891   6.705   2.006  1.3591 -1.1174  0.0786
18046TIP3   OH275628   1.747   4.351   4.430 -0.1746 -0.1563  0.3560
18046TIP3    H175629   1.824   4.343   4.486 -0.4643  1.8598  1.0858
18046TIP3    H275630   1.687   4.406   4.479 -0.7989  0.9315 -1.5483
18047TIP3   OH275631   5.380   3.977   0.802  0.2835 -0.0579 -0.3993
18047TIP3    H175632   5.297   3.985   0.848  0.9192  0.5141  0.6699
18047TIP3    H275633   5.434   4.048   0.837  1.5571 -1.0210 -0.3701
18048TIP3   OH275634   0.698   6.060  11.305 -0.4028 -0.4480  0.1642
18048TIP3    H175635   0.646   6.027  11.231  0.3760 -1.5849  0.1124
18048TIP3    H275636   0.726   5.982  11.351  2.7679  0.0211 -0.8409
18049TIP3   OH275637   4.648   3.722  16.977  0.1605 -0.2266  0.4399
18049TIP3    H175638   4.617   3.635  17.003 -1.5071 -0.0425 -0.8253
18049TIP3    H275639   4.669   3.712  16.884  0.4381  0.5956  0.4143
18050TIP3   OH275640   2.785   5.865   0.861  0.0990  0.2984 -0.3394
18050TIP3    H175641   2.766   5.946   0.815  2.0988  1.8280  1.4395
18050TIP3    H275642   2.701   5.841   0.902  0.0133  2.7135  0.9829
18051TIP3   OH275643   5.157   5.211  10.468  0.4846 -0.1771 -0.0298
18051TIP3    H175644   5.245   5.241  10.492  0.5104 -0.4739  0.2584
18051TIP3    H275645   5.113   5.289  10.434  0.8303 -0.0069 -0.0860
18052TIP3   OH275646   4.167   0.089   1.640  0.2920  0.1743  0.4374
18052TIP3    H175647   4.232   0.035   1.594 -1.5066 -1.3571 -0.3613
18052TIP3    H275648   4.162   0.169   1.587  0.1033 -0.5147 -0.5919
18053TIP3   OH275649   5.818   5.500   6.122 -0.0483  0.6647  0.3321
18053TIP3    H175650   5.901   5.521   6.079  1.0975  0.9316  2.5961
18053TIP3    H275651   5.832   5.414   6.162 -0.8390  0.7356  0.7760
18054TIP3   OH275652   6.137   0.727  12.185  0.1143  0.4458  0.1368
18054TIP3    H175653   6.108   0.643  12.223  0.0903  0.1611 -0.4975
18054TIP3    H275654   6.064   0.753  12.129  0.3112  0.6705 -0.0136
18055TIP3   OH275655   4.956   4.984  12.899  0.4338  0.0673  0.0200
18055TIP3    H175656   5.023   5.049  12.916 -1.1084  1.7073 -0.0252
18055TIP3    H275657   4.998   4.920  12.842  2.2924  0.4252  0.9631
18056TIP3   OH275658   5.306   1.185   4.859 -0.2402 -0.1415 -0.0686
18056TIP3    H175659   5.382   1.182   4.917 -1.5733 -0.4396  1.7097
18056TIP3    H275660   5.234   1.215   4.915 -1.9248 -2.0523 -1.1143
18057TIP3   OH275661   5.987   3.852  10.828 -0.1118  0.0997  0.4735
18057TIP3    H175662   5.985   3.943  10.800  0.9089 -0.1655 -0.5019
18057TIP3    H275663   5.899   3.835  10.862 -0.3016  1.4388  0.6602
18058TIP3   OH275664   5.667   0.839  15.553 -0.0448 -0.1721 -0.0434
18058TIP3    H175665   5.718   0.834  15.472  1.0247  0.0013  0.6195
18058TIP3    H275666   5.723   0.884  15.615 -1.8069  1.9130  0.0882
18059TIP3   OH275667   2.318   6.262   0.739  0.2111 -0.4708  0.1527
18059TIP3    H175668   2.255   6.191   0.732 -0.5220  0.0225  1.6454
18059TIP3    H275669   2.273   6.338   0.702  0.3509 -0.3712  0.1842
18060TIP3   OH275670   5.906   3.584  17.081 -0.5588  0.4642  0.0442
18060TIP3    H175671   5.948   3.504  17.049 -0.1046  0.6744  0.1019
18060TIP3    H275672   5.842   3.554  17.145 -0.0467  0.1788  0.4324
18061TIP3   OH275673   4.112   5.180  12.208 -0.3119 -0.1842  0.2983
18061TIP3    H175674   4.075   5.152  12.292 -1.4012 -3.0939 -1.0740
18061TIP3    H275675   4.036   5.207  12.157  0.3520  1.6369  0.2533
18062TIP3   OH275676   2.893   1.488   4.140 -0.0710 -0.1486 -0.2873
18062TIP3    H175677   2.838   1.560   4.108 -2.0772 -2.2079 -1.5868
18062TIP3    H275678   2.901   1.505   4.234 -1.2375  1.3087 -0.4230
18063TIP3   OH275679   2.858   0.934   4.464 -0.1820  0.1295  0.1088
18063TIP3    H175680   2.823   0.933   4.553  0.9598 -1.3787  0.5660
18063TIP3    H275681   2.953   0.936   4.475 -0.0387  0.5063 -1.0742
18064TIP3   OH275682   5.970   4.157  15.311 -0.3356 -0.8581  0.3108
18064TIP3    H175683   5.939   4.247  15.298  2.0144  0.2271  1.8843
18064TIP3    H275684   5.901   4.103  15.272 -1.1495  1.6393 -1.9360
18065TIP3   OH275685   0.074   4.842  13.027 -0.5014 -0.0344  0.4004
18065TIP3    H175686   0.004   4.880  12.975 -1.7253 -0.3432  1.7971
18065TIP3    H275687   0.097   4.909  13.091 -0.6291 -0.5286  0.9727
18066TIP3   OH275688   5.461   5.079  12.636 -0.0148  0.1655  0.6956
18066TIP3    H175689   5.449   5.166  12.674  2.1670 -0.3322  2.7013
18066TIP3    H275690   5.503   5.028  12.706  0.2917 -2.0155 -1.0025
18067TIP3   OH275691   6.518   3.587   0.214  0.0998  0.0838 -0.4859
18067TIP3    H175692   6.456   3.607   0.283 -0.1981 -2.1174 -0.0912
18067TIP3    H275693   6.567   3.669   0.201 -1.5655  1.2621  0.5172
18068TIP3   OH275694   5.120   1.883   2.208  0.0659 -0.1405  0.3082
18068TIP3    H175695   5.060   1.918   2.274 -1.3583  1.1326 -1.6194
18068TIP3    H275696   5.197   1.855   2.258 -2.4103 -2.5636  2.9154
18069TIP3   OH275697   6.169   6.160   3.376 -0.7473 -0.3356  0.3595
18069TIP3    H175698   6.126   6.237   3.414 -1.0584 -0.0280 -0.6031
18069TIP3    H275699   6.251   6.194   3.339 -1.3948 -0.2578 -1.0385
18070TIP3   OH275700   1.950   5.718  12.181  0.0509  0.5581  0.2965
18070TIP3    H175701   1.958   5.784  12.249 -0.4926  0.2113  0.7004
18070TIP3    H275702   2.040   5.688  12.165  0.1936  0.7256  0.7748
18071TIP3   OH275703   2.299   6.395   5.575  0.0042 -0.2501  0.3264
18071TIP3    H175704   2.217   6.435   5.602  0.6022  0.3646  1.2475
18071TIP3    H275705   2.286   6.374   5.483 -1.5705 -1.1285  0.7154
18072TIP3   OH275706   6.786   1.867   2.924  0.1829  0.5657 -0.5046
18072TIP3    H175707   6.707   1.914   2.951 -0.9292 -0.9791 -1.0300
18072TIP3    H275708   6.835   1.855   3.005 -1.1192 -0.2819  0.1884
18073TIP3   OH275709   1.965   6.596   3.992  0.2909 -0.5683 -0.3649
18073TIP3    H175710   2.052   6.634   3.981 -0.8296  1.6245 -1.9578
18073TIP3    H275711   1.949   6.550   3.910  0.2382 -1.6508  0.2376
18074TIP3   OH275712   0.495   1.811   4.497  0.0248  0.0518 -0.5530
18074TIP3    H175713   0.446   1.758   4.435 -1.7957 -0.2993  1.1507
18074TIP3    H275714   0.430   1.872   4.533  0.7445 -0.5899  1.9279
18075TIP3   OH275715   0.142   5.315   5.073 -0.3405 -0.0223  0.5829
18075TIP3    H175716   0.218   5.266   5.106 -0.2192 -0.9204 -0.9678
18075TIP3    H275717   0.148   5.401   5.115  2.7964  0.6978 -1.2430
18076TIP3   OH275718   2.650   4.481  13.119 -0.3166 -0.3623  0.3751
18076TIP3    H175719   2.698   4.501  13.200 -0.3542  1.0328  0.0693
18076TIP3    H275720   2.706   4.515  13.049 -0.5415 -1.0664 -0.1492
18077TIP3   OH275721   1.840   4.367   0.488  0.1132  0.0044  0.0697
18077TIP3    H175722   1.749   4.395   0.490 -0.3192 -1.2920 -0.4559
18077TIP3    H275723   1.885   4.423   0.551 -1.3961 -0.5737  1.6732
18078TIP3   OH275724   6.397   0.021  15.394 -0.1948 -0.7430 -0.8493
18078TIP3    H175725   6.318   0.025  15.341 -1.8843 -1.9397  1.4767
18078TIP3    H275726   6.435  -0.065  15.376 -0.7392 -1.1278 -0.1914
18079TIP3   OH275727   3.927   0.341  16.220 -0.1861  0.1305 -0.3418
18079TIP3    H175728   3.964   0.253  16.209  0.8367  0.3543  1.0928
18079TIP3    H275729   3.891   0.363  16.135 -1.3481 -2.0887 -0.4465
18080TIP3   OH275730   5.653   5.494   3.514 -0.4853 -0.1739  0.2432
18080TIP3    H175731   5.583   5.497   3.579 -2.2812 -0.8933 -1.5806
18080TIP3    H275732   5.654   5.582   3.475 -1.7371 -0.7138 -1.0674
18081TIP3   OH275733   5.252   5.502  14.860  0.1302  0.2707  0.0375
18081TIP3    H175734   5.220   5.571  14.918  1.0785  0.5369  0.2529
18081TIP3    H275735   5.212   5.422  14.894 -2.4067  0.9025 -1.2778
18082TIP3   OH275736   4.214   2.129  12.833 -0.4838  0.4538  0.0861
18082TIP3    H175737   4.139   2.071  12.840  0.4498 -0.8560 -0.5643
18082TIP3    H275738   4.288   2.070  12.817  0.9044  1.5738  2.1048
18083TIP3   OH275739   2.082   5.528   4.017 -0.3714  0.5163 -0.2545
18083TIP3    H175740   2.060   5.444   3.977 -0.3949  0.2272  0.3596
18083TIP3    H275741   2.097   5.507   4.109 -0.9433  1.2861  0.0131
18084TIP3   OH275742   3.448   2.673   5.621  0.1696 -0.5312  0.0161
18084TIP3    H175743   3.481   2.585   5.640 -2.1327 -1.4772 -0.1494
18084TIP3    H275744   3.390   2.693   5.695  0.9268  0.9990  0.2104
18085TIP3   OH275745   3.961   6.024   3.185 -0.4506  0.0983  0.0655
18085TIP3    H175746   4.054   6.030   3.163 -0.7134 -1.8853 -1.6806
18085TIP3    H275747   3.923   5.968   3.117 -2.6136 -0.5106  1.7137
18086TIP3   OH275748   0.983   6.818   3.656 -0.4566 -0.1469  0.3560
18086TIP3    H175749   1.026   6.802   3.572 -0.5471  0.1342  0.2567
18086TIP3    H275750   1.022   6.754   3.715  1.7479  1.5205  0.8154
18087TIP3   OH275751   1.985   2.887   5.250  0.6007  0.1539  0.4415
18087TIP3    H175752   1.988   2.835   5.331 -0.2295 -0.1333  0.2962
18087TIP3    H275753   2.074   2.883   5.215  0.8627 -0.0727  1.1239
18088TIP3   OH275754   3.941   4.374   5.208 -0.0857  0.3662  0.1571
18088TIP3    H175755   3.967   4.452   5.159 -0.3082 -0.0402 -0.6101
18088TIP3    H275756   3.995   4.376   5.287 -0.4453  1.5615  0.3787
18089TIP3   OH275757   1.323   4.036   3.187  0.0970  0.1826  0.0962
18089TIP3    H175758   1.417   4.021   3.202  0.4562  0.0255 -2.1636
18089TIP3    H275759   1.290   3.952   3.156 -0.8632  0.1658  1.1574
18090TIP3   OH275760   6.787   1.431   0.522  0.2573  0.0604 -0.2918
18090TIP3    H175761   6.751   1.517   0.497  0.2057 -0.3184 -1.5274
18090TIP3    H275762   6.726   1.398   0.588  0.7852  1.3807  0.8940
18091TIP3   OH275763   5.276   6.308  12.043 -0.2251  0.1063  0.3975
18091TIP3    H175764   5.185   6.280  12.033 -0.2452 -0.5143  2.1378
18091TIP3    H275765   5.323   6.261  11.975 -0.8279 -1.4831  1.0490
18092TIP3   OH275766   2.843   4.944  15.279 -0.4272 -0.4594 -0.1962
18092TIP3    H175767   2.829   5.035  15.307 -0.3672  0.2922 -2.5060
18092TIP3    H275768   2.938   4.934  15.276 -0.4343 -0.3075 -0.8677
18093TIP3   OH275769   5.379   1.482  13.566  0.0858  0.2642 -0.0154
18093TIP3    H175770   5.416   1.552  13.512  0.7501 -0.0303  0.0490
18093TIP3    H275771   5.398   1.509  13.656 -3.4998  2.1653  0.2553
18094TIP3   OH275772   0.770   0.432  17.243  0.4464  0.7196 -0.5011
18094TIP3    H175773   0.746   0.349  17.283  0.7754  1.1627  0.6262
18094TIP3    H275774   0.688   0.480  17.236  0.3884  0.6381 -0.3731
18095TIP3   OH275775   5.099   5.672  11.696 -0.1401 -0.2356 -0.1428
18095TIP3    H175776   5.186   5.664  11.656 -0.2389 -1.1570 -0.1714
18095TIP3    H275777   5.078   5.584  11.726 -1.0665 -0.0083 -0.1230
18096TIP3   OH275778   0.929   5.780   4.019  0.0353 -0.0050 -0.3463
18096TIP3    H175779   1.005   5.838   4.028 -1.2178  1.6750 -0.1916
18096TIP3    H275780   0.879   5.817   3.946 -0.4983 -1.2488 -0.6271
18097TIP3   OH275781   3.909   2.969  12.354 -0.2238  0.4982 -0.8609
18097TIP3    H175782   3.848   2.897  12.344 -0.1287  0.6179 -2.3322
18097TIP3    H275783   3.983   2.932  12.403 -0.4159 -0.2446 -1.1391
18098TIP3   OH275784   4.121   3.167   3.953 -0.0745  0.2530  0.6130
18098TIP3    H175785   4.082   3.133   4.033  0.2271 -0.4367  0.4678
18098TIP3    H275786   4.054   3.153   3.886  1.1374 -2.7428 -0.0425
18099TIP3   OH275787   1.277   1.419  15.331  0.1916 -0.0329 -0.1944
18099TIP3    H175788   1.354   1.364  15.320  0.0888 -0.9570  3.1235
18099TIP3    H275789   1.311   1.502  15.367 -0.2025  0.0696 -0.0537
18100TIP3   OH275790   2.798   5.996  14.987 -0.4678 -0.3918 -0.1344
18100TIP3    H175791   2.888   5.966  14.999 -0.9893 -0.9912  2.6033
18100TIP3    H275792   2.781   6.053  15.062 -1.6236  1.6310 -1.8581
18101TIP3   OH275793   4.709   4.087  16.689 -0.3166  0.3940 -0.2503
18101TIP3    H175794   4.777   4.090  16.757 -1.5679 -1.5350  1.1689
18101TIP3    H275795   4.729   4.008  16.639 -1.7751 -0.4593  0.4910
18102TIP3   OH275796   2.027   1.625   0.187 -0.5237 -0.4163 -0.5617
18102TIP3    H175797   2.000   1.556   0.248  1.6939  0.6465  1.7079
18102TIP3    H275798   2.111   1.594   0.151  0.5106  1.0711  0.5079
18103TIP3   OH275799   0.554   2.457   0.164 -0.5695  0.3225 -0.0361
18103TIP3    H175800   0.590   2.379   0.123 -0.0270  0.4061  0.2834
18103TIP3    H275801   0.474   2.476   0.114 -1.5598 -1.3488  0.8873
18104TIP3   OH275802   0.921   3.322   4.341 -0.3202 -0.9982 -0.8379
18104TIP3    H175803   0.912   3.282   4.255 -1.4833 -0.5014 -0.9481
18104TIP3    H275804   0.969   3.403   4.324 -1.7304 -0.2368 -1.2066
18105TIP3   OH275805   2.037   3.785   3.923  0.1276  0.2521 -0.2693
18105TIP3    H175806   2.101   3.775   3.993  0.7584  0.9831 -0.7363
18105TIP3    H275807   2.035   3.879   3.905 -1.5847  0.3276  0.2116
18106TIP3   OH275808   3.003   2.448   6.100  0.2969  0.5569  0.1902
18106TIP3    H175809   2.975   2.466   6.010 -0.6234  1.1370  0.5785
18106TIP3    H275810   3.066   2.517   6.120 -0.6754  1.3848  0.5062
18107TIP3   OH275811   6.743   4.239   1.711 -0.2727  1.2452  0.2870
18107TIP3    H175812   6.767   4.302   1.643  0.9140  1.2817  0.7398
18107TIP3    H275813   6.647   4.238   1.709 -0.2524  1.2140 -1.4185
18108TIP3   OH275814   3.277   0.024  15.928  0.2997 -0.3879 -0.2152
18108TIP3    H175815   3.251   0.056  16.014 -1.5013  0.6405 -1.0891
18108TIP3    H275816   3.344   0.086  15.898  0.0945 -0.0737 -0.0269
18109TIP3   OH275817   6.181   2.337  14.140  0.5997  0.1648  0.0875
18109TIP3    H175818   6.207   2.368  14.227  1.4959 -0.1052 -0.0779
18109TIP3    H275819   6.100   2.384  14.121  0.9474  0.9929  0.6322
18110TIP3   OH275820   5.738   1.362  15.546  0.1802  0.3066 -0.0660
18110TIP3    H175821   5.727   1.448  15.587 -1.8315  0.1848 -0.2750
18110TIP3    H275822   5.689   1.369  15.464 -0.5341 -1.2296  0.2152
18111TIP3   OH275823   4.889   4.721   4.375 -0.6240  0.1326  0.2669
18111TIP3    H175824   4.856   4.638   4.409  1.7484  0.1945  2.9285
18111TIP3    H275825   4.984   4.709   4.371 -0.4219  1.9789 -1.4861
18112TIP3   OH275826   0.477   4.471   0.613 -0.0146  0.0866  0.1324
18112TIP3    H175827   0.523   4.387   0.611  0.1683  0.1918 -0.0467
18112TIP3    H275828   0.513   4.520   0.539  0.6390  0.7250  0.8565
18113TIP3   OH275829   5.756   6.117  12.420 -0.3174  0.6352 -0.2247
18113TIP3    H175830   5.804   6.148  12.343  0.7838 -1.1828 -0.2947
18113TIP3    H275831   5.805   6.154  12.494 -1.5348  2.6087 -0.3775
18114TIP3   OH275832   6.112   1.298   2.824 -0.3900 -0.0066  0.0498
18114TIP3    H175833   6.176   1.231   2.803 -0.7096 -0.5885  0.8684
18114TIP3    H275834   6.162   1.379   2.828 -0.2076  0.0185 -2.1572
18115TIP3   OH275835   0.043   2.960   1.277  0.1917  0.2650 -0.4732
18115TIP3    H175836   0.058   2.902   1.203  0.5149  1.6446 -1.5129
18115TIP3    H275837   0.127   3.004   1.291  0.3898 -0.6432  1.3090
18116TIP3   OH275838   4.241   4.680  16.977  0.2421 -0.0673  0.0595
18116TIP3    H175839   4.252   4.731  17.058 -2.0010 -1.2425  1.1827
18116TIP3    H275840   4.227   4.591  17.008 -0.2905 -0.5862 -1.6651
18117TIP3   OH275841   4.551   5.354  13.119 -0.5532 -0.1964 -0.0433
18117TIP3    H175842   4.493   5.294  13.073 -1.0294 -1.2180  1.8504
18117TIP3    H275843   4.605   5.298  13.175  1.0466  0.8894 -0.4550
18118TIP3   OH275844   1.091   0.206   1.224  0.0433 -0.0378  0.0509
18118TIP3    H175845   1.105   0.148   1.299 -1.1577 -0.4560 -0.0437
18118TIP3    H275846   1.174   0.203   1.177  0.2396 -1.1233  0.4388
18119TIP3   OH275847   6.133   0.485   4.708 -0.5866 -0.0539  0.0395
18119TIP3    H175848   6.175   0.551   4.653 -1.1941 -0.2746 -0.7064
18119TIP3    H275849   6.186   0.406   4.696 -0.7422 -0.1138 -0.2790
18120TIP3   OH275850   6.095   4.869  11.238 -0.3309 -0.4536 -0.6110
18120TIP3    H175851   6.168   4.820  11.276  0.8615  0.4041 -1.7674
18120TIP3    H275852   6.063   4.923  11.311 -0.0040 -1.0287 -0.0265
18121TIP3   OH275853   3.447   0.735  14.052  0.6476  0.1172 -0.2406
18121TIP3    H175854   3.355   0.745  14.074  1.0743  0.1675  1.5571
18121TIP3    H275855   3.469   0.646  14.080  0.8975 -0.2742 -1.6132
18122TIP3   OH275856   6.284   0.032  16.645 -0.5683  0.3697  0.4006
18122TIP3    H175857   6.217   0.018  16.712 -0.3980 -3.6240 -0.1630
18122TIP3    H275858   6.358   0.069  16.693 -1.5467  0.4629  1.8684
18123TIP3   OH275859   1.807   6.585  14.671  0.5349  0.2284  0.8481
18123TIP3    H175860   1.799   6.492  14.651 -0.3159  0.4243  0.2696
18123TIP3    H275861   1.774   6.630  14.593 -0.5807  1.0133  1.7452
18124TIP3   OH275862   5.097   6.303  14.698 -0.8544 -0.0691  0.1985
18124TIP3    H175863   5.094   6.387  14.742  0.4320  0.8395 -1.3689
18124TIP3    H275864   5.069   6.322  14.608 -1.1475 -1.4232 -0.0092
18125TIP3   OH275865   5.439   2.390  13.894 -0.2586  0.1143 -0.3676
18125TIP3    H175866   5.357   2.408  13.940 -0.0700  1.8387 -0.6633
18125TIP3    H275867   5.504   2.380  13.964 -0.7046 -1.3079 -0.1305
18126TIP3   OH275868   2.155   1.433   6.289  0.2848 -0.2336  0.2856
18126TIP3    H175869   2.101   1.361   6.321 -1.3633  0.8482  0.0257
18126TIP3    H275870   2.202   1.464   6.366  0.1573 -0.8873  0.6222
18127TIP3   OH275871   0.295   5.488  14.425 -0.0667  0.1538 -0.3677
18127TIP3    H175872   0.376   5.493  14.374  0.1739  1.6338  0.1333
18127TIP3    H275873   0.308   5.551  14.496 -1.5931  0.2790 -0.1886
18128TIP3   OH275874   6.017   5.988   1.424  0.3926 -0.2437  0.4057
18128TIP3    H175875   5.976   6.024   1.345  1.2286 -0.9170 -0.3480
18128TIP3    H275876   6.003   6.055   1.491 -0.6632  0.1666 -0.2075
18129TIP3   OH275877   5.462   3.663  15.580 -0.2977 -0.2357 -0.0864
18129TIP3    H175878   5.390   3.628  15.528 -0.2389  0.4555 -0.6434
18129TIP3    H275879   5.531   3.682  15.516  0.2636 -0.6106  0.4047
18130TIP3   OH275880   2.710   0.364  16.904  0.5152 -0.0818 -0.2500
18130TIP3    H175881   2.662   0.286  16.931  0.3415 -0.0999 -0.6175
18130TIP3    H275882   2.659   0.400  16.832  0.1173  0.8684  0.5033
18131TIP3   OH275883   2.088   0.236  11.196  0.0221 -0.9572 -0.5726
18131TIP3    H175884   2.065   0.170  11.261  0.4400  0.2982  0.8914
18131TIP3    H275885   2.180   0.219  11.176 -0.1057 -1.3414 -0.8296
18132TIP3   OH275886   2.656   4.369  13.940  0.7162 -0.0769 -0.0457
18132TIP3    H175887   2.627   4.301  13.879 -0.3624  0.6714 -0.3865
18132TIP3    H275888   2.750   4.377  13.924  0.8167 -1.3570 -0.1325
18133TIP3   OH275889   1.542   6.647  12.640 -0.0535 -0.1451 -0.1022
18133TIP3    H175890   1.488   6.573  12.668 -1.2142  1.3238  1.6793
18133TIP3    H275891   1.479   6.718  12.627  1.3838  1.4449  1.4373
18134TIP3   OH275892   6.225   0.073  13.540  0.5789  0.2822 -0.0388
18134TIP3    H175893   6.210   0.015  13.466  0.8461  1.9348 -1.4117
18134TIP3    H275894   6.292   0.134  13.510  2.0943 -0.1823  2.2271
18135TIP3   OH275895   2.713   6.125   1.083 -0.1106  0.0185  0.5140
18135TIP3    H175896   2.751   6.092   1.165 -1.7832 -2.6569  0.2992
18135TIP3    H275897   2.636   6.070   1.070 -0.7000  1.4134 -2.1031
18136TIP3   OH275898   4.377   0.943   4.069 -0.4413 -0.0604  0.2865
18136TIP3    H175899   4.344   0.977   3.985 -2.4308 -0.0119  1.0585
18136TIP3    H275900   4.460   0.901   4.047 -0.5072  0.7176 -1.5637
18137TIP3   OH275901   5.782   5.889  11.602 -0.3219 -0.3755  0.1558
18137TIP3    H175902   5.734   5.837  11.667 -0.5848  0.4164  0.6131
18137TIP3    H275903   5.714   5.934  11.553 -0.0721  0.2284  0.3588
18138TIP3   OH275904   0.055   1.795  12.969  0.2789  0.7196  0.0037
18138TIP3    H175905   0.119   1.729  12.994 -1.4416 -0.6301  0.9632
18138TIP3    H275906   0.077   1.817  12.878  0.7525 -1.3200 -0.3887
18139TIP3   OH275907   5.281   5.091  10.877  0.6741 -0.7163  0.1704
18139TIP3    H175908   5.207   5.152  10.873  1.3492  0.1880  1.2892
18139TIP3    H275909   5.240   5.005  10.891 -0.1879 -0.2661  0.4747
18140TIP3   OH275910   4.305   5.493   3.770  0.0243  0.2076  0.2518
18140TIP3    H175911   4.379   5.432   3.766  0.1394  0.3790 -0.3228
18140TIP3    H275912   4.230   5.442   3.738 -0.2180 -0.1225  1.3199
18141TIP3   OH275913   5.805   5.188   1.133  0.3512  0.4216  0.3052
18141TIP3    H175914   5.776   5.278   1.115 -1.9386 -0.2048  0.6917
18141TIP3    H275915   5.895   5.198   1.165  0.2021  2.5516  0.1585
18142TIP3   OH275916   1.483   5.081   3.838  0.1443 -0.6285  0.3447
18142TIP3    H175917   1.439   5.145   3.894  0.5646  0.0387 -0.0818
18142TIP3    H275918   1.411   5.032   3.796 -0.1970  0.8154 -0.7657
18143TIP3   OH275919   0.377   0.995   5.694  0.6806  0.0474  0.2681
18143TIP3    H175920   0.390   0.993   5.789  2.2142 -1.0829  0.0601
18143TIP3    H275921   0.446   1.053   5.662  1.3881 -1.1095 -0.3274
18144TIP3   OH275922   3.220   1.708   4.495 -0.0075 -0.2307 -0.0582
18144TIP3    H175923   3.209   1.615   4.512  1.9422 -0.7588 -1.4938
18144TIP3    H275924   3.176   1.723   4.411 -1.9480  0.5615  1.0586
18145TIP3   OH275925   6.344   5.509   5.324 -0.7543  0.3411  0.3462
18145TIP3    H175926   6.407   5.442   5.351 -0.6102  0.9515  1.5651
18145TIP3    H275927   6.327   5.490   5.232 -1.2214 -1.7955  0.8357
18146TIP3   OH275928   0.263   3.889   1.840 -0.9517 -0.0594  0.3858
18146TIP3    H175929   0.243   3.920   1.751  0.2602  0.6556  0.3423
18146TIP3    H275930   0.350   3.851   1.832 -1.0470 -0.4341  1.1724
18147TIP3   OH275931   3.267   0.910   6.159 -0.0419 -0.0949  0.1915
18147TIP3    H175932   3.258   0.965   6.082 -0.0149  0.2338  0.4239
18147TIP3    H275933   3.301   0.968   6.227  0.8886 -0.6073  0.1775
18148TIP3   OH275934   4.315   1.154  10.969 -0.1832  0.1762 -0.3150
18148TIP3    H175935   4.409   1.155  10.988 -0.1542 -0.8586 -0.3916
18148TIP3    H275936   4.310   1.129  10.877 -0.5945 -1.1700  0.0718
18149TIP3   OH275937   2.201   0.897  10.560  0.0443 -0.0122  0.2492
18149TIP3    H175938   2.127   0.874  10.616 -0.4998  2.3036  0.5656
18149TIP3    H275939   2.278   0.892  10.617 -0.3499  1.1086  0.9014
18150TIP3   OH275940   0.558   3.857   0.978 -0.7749  0.1037  0.1458
18150TIP3    H175941   0.549   3.944   1.017  0.0335  0.5162 -0.5898
18150TIP3    H275942   0.469   3.822   0.977 -1.1176  0.9679  0.3366
18151TIP3   OH275943   2.984   3.982  13.376  0.3098 -0.9853 -0.2270
18151TIP3    H175944   3.004   4.064  13.420  0.5452 -1.3967  0.4306
18151TIP3    H275945   2.951   4.009  13.290  1.3328 -0.2306 -0.3976
18152TIP3   OH275946   2.275   4.362   2.137 -0.4869  0.6943  0.1159
18152TIP3    H175947   2.335   4.293   2.165 -1.3857  0.1869  0.8611
18152TIP3    H275948   2.197   4.315   2.106 -0.5305  1.3395 -0.7717
18153TIP3   OH275949   5.059   6.632  15.747 -0.9242  0.2106  0.4679
18153TIP3    H175950   4.965   6.618  15.757 -0.9592 -0.2504 -0.4509
18153TIP3    H275951   5.071   6.725  15.768 -1.5834  0.2833  0.5586
18154TIP3   OH275952   3.647   3.250   4.072  0.4539 -0.2455  0.1164
18154TIP3    H175953   3.665   3.327   4.019 -0.1594 -0.3230 -0.2105
18154TIP3    H275954   3.561   3.267   4.111  1.4756  0.4310  2.1878
18155TIP3   OH275955   3.514   5.514   5.804 -0.5053 -0.7720 -0.0639
18155TIP3    H175956   3.466   5.469   5.873  2.1229 -1.1603  1.5833
18155TIP3    H275957   3.569   5.577   5.851 -0.3350  0.5378 -1.9753
18156TIP3   OH275958   3.371   4.678   0.808  0.0896 -0.4899  0.1588
18156TIP3    H175959   3.332   4.693   0.894 -0.3796 -2.2412  0.2775
18156TIP3    H275960   3.459   4.714   0.815 -0.2381  0.1339  1.1032
18157TIP3   OH275961   3.958   0.612   0.256 -0.0358 -0.0225 -0.0264
18157TIP3    H175962   3.925   0.696   0.290 -2.5486 -0.7906 -0.4835
18157TIP3    H275963   4.053   0.621   0.259 -0.2489  2.1018  1.8024
18158TIP3   OH275964   3.708   5.660   4.665 -0.1456  0.0877  0.7519
18158TIP3    H175965   3.747   5.680   4.580 -1.6511  1.1861  0.2845
18158TIP3    H275966   3.711   5.565   4.673 -0.4026 -0.0502 -0.7452
18159TIP3   OH275967   3.568   3.193   3.212 -0.0333 -0.5549  0.0279
18159TIP3    H175968   3.584   3.261   3.277 -0.2661 -0.7936  0.3396
18159TIP3    H275969   3.655   3.163   3.187  0.0659 -0.2716  0.0284
18160TIP3   OH275970   0.685   3.666   3.658  0.2540  0.4167 -0.3817
18160TIP3    H175971   0.640   3.745   3.627 -1.4499 -0.8828 -1.2775
18160TIP3    H275972   0.758   3.656   3.597  0.7438  1.5498  0.0054
18161TIP3   OH275973   3.644   0.706   0.862  0.4243 -0.9790  0.1987
18161TIP3    H175974   3.554   0.709   0.832  0.0810 -1.1885  1.1867
18161TIP3    H275975   3.638   0.684   0.955  1.5381 -1.9709  0.0470
18162TIP3   OH275976   1.928   0.391  12.746 -0.0593 -0.2216 -0.3988
18162TIP3    H175977   1.971   0.415  12.664  1.9427 -0.2302  0.6079
18162TIP3    H275978   1.911   0.475  12.789  1.4297 -0.2999  0.3954
18163TIP3   OH275979   4.382   3.960   1.226 -0.3063  0.3701  0.5589
18163TIP3    H175980   4.332   3.922   1.154 -0.1169 -0.0686  0.6588
18163TIP3    H275981   4.336   4.042   1.246 -1.3623 -0.3313  1.0757
18164TIP3   OH275982   6.276   5.741   0.582  0.4504 -0.1424  0.1933
18164TIP3    H175983   6.204   5.688   0.617  0.4298 -0.6750 -0.6431
18164TIP3    H275984   6.334   5.678   0.540  0.4024  0.5076 -0.8592
18165TIP3   OH275985   0.042   5.116   4.362  0.4143 -0.0663  0.1626
18165TIP3    H175986   0.031   5.036   4.413  0.9355 -0.4361 -0.2859
18165TIP3    H275987   0.082   5.178   4.422  0.3038 -0.2498  0.4247
18166TIP3   OH275988   1.574   2.471  14.156 -0.1020 -0.0852 -0.2660
18166TIP3    H175989   1.621   2.550  14.131 -2.0936  1.1944 -0.1320
18166TIP3    H275990   1.573   2.418  14.077  3.2018 -1.0334  0.2646
18167TIP3   OH275991   4.814   2.788  12.773 -0.0067  0.1809 -0.2063
18167TIP3    H175992   4.865   2.740  12.708 -0.0616  0.8228 -0.7219
18167TIP3    H275993   4.861   2.772  12.856 -0.1356 -0.9173 -0.3373
18168TIP3   OH275994   1.952   5.956  14.994 -0.7192  0.3873 -0.4077
18168TIP3    H175995   1.996   5.992  15.071 -1.1261  1.2383 -0.5772
18168TIP3    H275996   1.978   6.013  14.922  0.2284 -0.8252 -1.0355
18169TIP3   OH275997   4.534   2.176   0.173  0.4462  0.3569  0.4822
18169TIP3    H175998   4.587   2.191   0.095  1.3989 -2.2606  0.5550
18169TIP3    H275999   4.577   2.102   0.217 -1.3703  0.3361  2.3065
18170TIP3   OH276000   2.684   4.022   2.641 -0.4115  0.1399 -0.1083
18170TIP3    H176001   2.709   3.938   2.602  1.4108  0.9631 -0.7865
18170TIP3    H276002   2.660   4.076   2.566  2.7597  1.6223 -0.1444
18171TIP3   OH276003   6.351   6.531  11.658 -0.1874 -0.7670  0.1270
18171TIP3    H176004   6.267   6.487  11.642 -1.1584  1.4522 -1.0872
18171TIP3    H276005   6.371   6.511  11.750 -1.7940 -1.7057  0.2966
18172TIP3   OH276006   6.518   6.169  14.370  0.3951 -0.1145 -0.0306
18172TIP3    H176007   6.500   6.079  14.344  2.2925 -0.9041  1.2849
18172TIP3    H276008   6.437   6.200  14.409 -1.1290 -0.3371 -2.8650
18173TIP3   OH276009   1.316   4.818  16.383  0.1944  0.6278  0.1869
18173TIP3    H176010   1.288   4.909  16.396 -2.2179 -0.0025 -0.3114
18173TIP3    H276011   1.378   4.801  16.454 -0.4914  2.1887  1.1735
18174TIP3   OH276012   4.561   2.484   1.864  0.3629 -0.3176  0.3455
18174TIP3    H176013   4.560   2.533   1.946 -0.5859  0.3102 -0.0230
18174TIP3    H276014   4.510   2.405   1.883 -0.1473 -0.0087  0.2667
18175TIP3   OH276015   1.687   6.514  17.017 -0.8814  0.4174  0.2470
18175TIP3    H176016   1.771   6.484  17.050 -0.6124  0.0424 -0.7650
18175TIP3    H276017   1.648   6.438  16.975 -1.7134  0.5971  0.6710
18176TIP3   OH276018   0.129   3.025  13.528 -0.4795  0.1745  0.5567
18176TIP3    H176019   0.124   3.115  13.562  0.0695 -0.0022  1.1179
18176TIP3    H276020   0.060   3.020  13.462 -0.2100  1.1473  0.2006
18177TIP3   OH276021   4.013   4.747   5.806  0.0874  0.2420 -0.3722
18177TIP3    H176022   4.017   4.671   5.748 -1.8913 -0.0873 -0.1163
18177TIP3    H276023   4.076   4.728   5.875 -1.1717 -1.7019  0.2843
18178TIP3   OH276024   5.964   3.805   6.438  0.8601  0.5037 -0.1256
18178TIP3    H176025   6.045   3.759   6.416  0.0842 -0.6296 -0.6738
18178TIP3    H276026   5.895   3.754   6.396 -0.2838  0.6665  1.4995
18179TIP3   OH276027   4.529   1.944   2.402 -0.5000 -0.2852 -0.4783
18179TIP3    H176028   4.445   1.899   2.412  0.4101 -1.4397  2.5698
18179TIP3    H276029   4.593   1.883   2.437  1.4476  1.2245 -1.3006
18180TIP3   OH276030   3.397   6.089  15.871 -0.3530 -0.1160 -0.2625
18180TIP3    H176031   3.361   6.042  15.946 -0.0514  0.4124  0.2082
18180TIP3    H276032   3.320   6.119  15.822 -0.5629  0.7999  0.6164
18181TIP3   OH276033   0.073   1.490   1.333 -0.9768  0.2315  0.1320
18181TIP3    H176034   0.062   1.473   1.240 -2.3433  1.4378  0.0651
18181TIP3    H276035   0.164   1.519   1.342 -0.5732 -0.7546 -0.6810
18182TIP3   OH276036   6.030   5.122   5.275  0.1067 -0.4765  0.1296
18182TIP3    H176037   5.987   5.067   5.341 -1.1298 -2.1754 -2.0230
18182TIP3    H276038   6.073   5.060   5.216 -0.0698  0.9198 -1.5193
18183TIP3   OH276039   3.072   6.282   3.596  0.1872  0.3207 -0.0229
18183TIP3    H176040   3.140   6.331   3.550  1.4679  0.3543  1.8193
18183TIP3    H276041   3.007   6.261   3.529  1.5814  1.0653 -1.6417
18184TIP3   OH276042   0.969   6.584  15.888  1.0591  0.3297  0.3978
18184TIP3    H176043   1.022   6.578  15.809  1.2905 -1.4446  0.6797
18184TIP3    H276044   0.882   6.554  15.861  0.7475  1.1478  0.4709
18185TIP3   OH276045   1.754   1.055   2.620  0.3766  0.0585  0.1440
18185TIP3    H176046   1.724   1.145   2.612  2.3059  0.8099  1.0081
18185TIP3    H276047   1.730   1.014   2.537  0.4630  1.6730 -0.7002
18186TIP3   OH276048   4.929   2.385  11.687 -0.4406  0.4573 -0.1100
18186TIP3    H176049   4.964   2.438  11.759 -0.5873  1.0317 -0.4609
18186TIP3    H276050   4.954   2.296  11.709  0.3114  0.7389  0.1989
18187TIP3   OH276051   1.736   0.419  11.122  0.4380  0.3016  0.3711
18187TIP3    H176052   1.649   0.434  11.159  0.2695  1.1648 -0.3562
18187TIP3    H276053   1.733   0.459  11.035  0.0265 -3.8533 -1.6308
18188TIP3   OH276054   0.616   2.581  12.830 -0.3731  0.2955 -0.5678
18188TIP3    H176055   0.560   2.542  12.897  0.3988 -1.7448 -1.0989
18188TIP3    H276056   0.565   2.656  12.798 -2.7315 -1.3698 -0.8661
18189TIP3   OH276057   5.882   4.850  16.985  0.0405  0.4881 -0.4055
18189TIP3    H176058   5.869   4.768  16.937  0.3966 -0.1745  0.5997
18189TIP3    H276059   5.793   4.882  17.000 -0.1293  0.0453 -0.4294
18190TIP3   OH276060   2.906   3.089   4.275  0.0726 -0.1525 -0.2056
18190TIP3    H176061   2.956   3.042   4.208  2.5966  0.4235  1.2239
18190TIP3    H276062   2.858   3.021   4.321  0.2092 -0.8200 -1.0385
18191TIP3   OH276063   0.604   2.091  16.109 -0.2512  0.2247 -0.0966
18191TIP3    H176064   0.569   2.125  16.026 -0.1214  2.5288  0.7707
18191TIP3    H276065   0.659   2.161  16.143  1.2237 -1.4332  1.0426
18192TIP3   OH276066   4.598   3.423  11.512  0.1032 -0.0460 -0.8944
18192TIP3    H176067   4.612   3.337  11.551 -2.2175 -0.2506 -0.4938
18192TIP3    H276068   4.576   3.405  11.421 -0.8879  0.1068 -0.6823
18193TIP3   OH276069   6.786   3.510  10.406  0.2317  0.2332 -0.4706
18193TIP3    H176070   6.798   3.603  10.425 -0.1226  0.0712  0.5738
18193TIP3    H276071   6.757   3.472  10.489  1.8036 -1.0734 -0.5063
18194TIP3   OH276072   6.234   4.671   0.442 -0.5414  0.2503 -0.1601
18194TIP3    H176073   6.302   4.735   0.421  1.5663 -1.6528  0.6318
18194TIP3    H276074   6.154   4.709   0.406  0.6068  3.3800  0.4317
18195TIP3   OH276075   6.630   0.232  12.918 -0.7076 -0.1554 -0.3594
18195TIP3    H176076   6.630   0.311  12.864 -0.0648 -0.1973 -0.4311
18195TIP3    H276077   6.550   0.238  12.969 -0.9653  0.2421 -0.8059
18196TIP3   OH276078   1.871   2.609  15.728 -0.3195  0.3711  0.8486
18196TIP3    H176079   1.926   2.663  15.670  2.7636 -0.0931  3.2323
18196TIP3    H276080   1.852   2.666  15.803  1.1593 -1.1115  2.3791
18197TIP3   OH276081   6.108   3.723   0.685 -0.6052  0.1220 -0.4636
18197TIP3    H176082   6.039   3.783   0.655  0.4662  0.7091 -1.7877
18197TIP3    H276083   6.082   3.637   0.651 -1.2532  0.1248  0.0005
18198TIP3   OH276084   2.791   3.450  16.690 -0.6818  0.3314 -0.1575
18198TIP3    H176085   2.766   3.395  16.616  1.8240 -0.4100 -0.4960
18198TIP3    H276086   2.884   3.468  16.676 -0.9637  3.0144  1.0172
18199TIP3   OH276087   4.202   2.481  13.515  0.0614  0.1428  0.0397
18199TIP3    H176088   4.239   2.411  13.569  0.0694  0.5646  0.5852
18199TIP3    H276089   4.110   2.456  13.504  0.1316 -0.0992  0.0009
18200TIP3   OH276090   2.957   1.325   2.195 -0.1599  0.1748  0.4282
18200TIP3    H176091   2.961   1.229   2.195 -1.2556  0.1205 -0.2397
18200TIP3    H276092   2.960   1.349   2.287 -0.0412 -0.5157  0.6069
18201TIP3   OH276093   1.887   1.139  10.350  0.2440 -0.2730  0.1144
18201TIP3    H176094   1.899   1.074  10.281 -0.3064 -0.1510 -0.0996
18201TIP3    H276095   1.793   1.137  10.369  0.1787  0.6393 -0.0719
18202TIP3   OH276096   0.323   2.426   4.616 -0.0139  0.0957  0.4260
18202TIP3    H176097   0.311   2.403   4.708 -0.0646  1.2789  0.7197
18202TIP3    H276098   0.244   2.475   4.592  0.2908  0.3495 -0.0725
18203TIP3   OH276099   6.276   1.457   1.515  0.4138  0.1819 -0.8586
18203TIP3    H176100   6.279   1.362   1.513  0.6172  0.1434  1.0186
18203TIP3    H276101   6.199   1.478   1.568  1.3295  1.0611  0.1421
18204TIP3   OH276102   1.671   3.868   0.652 -0.2295 -0.0156  0.0789
18204TIP3    H176103   1.621   3.921   0.590  0.7694  0.5305 -0.2756
18204TIP3    H276104   1.670   3.780   0.615 -2.5176 -0.4137  1.0449
18205TIP3   OH276105   6.764   4.898   2.947  0.7783 -0.5512  0.6994
18205TIP3    H176106   6.848   4.917   2.905  0.4556 -0.0590  0.2707
18205TIP3    H276107   6.711   4.859   2.878  0.5494 -0.5797  0.8918
18206TIP3   OH276108   1.674   0.940  16.356 -0.8223  0.3269  0.3105
18206TIP3    H176109   1.604   0.879  16.337 -0.1755  0.0597 -1.3023
18206TIP3    H276110   1.668   0.955  16.451 -2.2803 -0.6050  0.3792
18207TIP3   OH276111   6.576   6.260  12.988  0.5056 -0.5281  0.1440
18207TIP3    H176112   6.640   6.191  13.004  2.0489  0.9352  0.4349
18207TIP3    H276113   6.586   6.281  12.895  1.0269  0.2483  0.3687
18208TIP3   OH276114   3.693   3.288   1.777 -0.5574  0.2195  0.0561
18208TIP3    H176115   3.787   3.282   1.759 -0.5567  1.3141 -0.3333
18208TIP3    H276116   3.661   3.354   1.716 -2.0084 -1.7873 -1.4306
18209TIP3   OH276117   1.831   4.309  14.772  0.5125  0.3086 -0.7292
18209TIP3    H176118   1.788   4.361  14.840  1.1488  1.4618 -1.1987
18209TIP3    H276119   1.919   4.293  14.806  0.3097 -0.4847 -0.5741
18210TIP3   OH276120   4.486   4.779  10.904  0.0394 -0.1951 -0.1312
18210TIP3    H176121   4.517   4.814  10.820 -1.7618 -0.1060 -0.7691
18210TIP3    H276122   4.524   4.691  10.908  0.3006 -0.1245 -0.9497
18211TIP3   OH276123   1.884   3.104  15.972 -0.4522  0.3109  0.3019
18211TIP3    H176124   1.795   3.086  15.942 -0.5066 -0.1532  0.7258
18211TIP3    H276125   1.938   3.037  15.931 -0.5754 -0.5207  1.4610
18212TIP3   OH276126   3.870   4.312  11.465  0.5903 -0.3662  0.1574
18212TIP3    H176127   3.898   4.402  11.482  2.2399 -0.4970 -1.6010
18212TIP3    H276128   3.814   4.318  11.387  1.1926 -0.9064 -0.3284
18213TIP3   OH276129   6.493   0.279   0.767  0.8743 -0.2707 -0.1743
18213TIP3    H176130   6.559   0.304   0.703 -0.1739 -0.4754 -1.3734
18213TIP3    H276131   6.473   0.188   0.745 -1.1947  0.3708 -1.1071
18214TIP3   OH276132   6.418   2.135   2.504  0.6400  0.2066  0.1511
18214TIP3    H176133   6.371   2.210   2.467  1.7073  1.1428  0.6641
18214TIP3    H276134   6.361   2.103   2.574  1.0651  1.7684  1.2363
18215TIP3   OH276135   2.281   4.808   3.404  0.1283  0.2411 -0.1891
18215TIP3    H176136   2.228   4.815   3.483 -2.8835 -1.3088 -1.9686
18215TIP3    H276137   2.321   4.721   3.409  2.5283  1.3935  1.1312
18216TIP3   OH276138   6.683   4.828  10.997  0.2345 -0.0238  0.5122
18216TIP3    H176139   6.686   4.754  10.937 -0.1807 -0.6155  1.2159
18216TIP3    H276140   6.690   4.789  11.084 -1.6262  0.6185  0.9776
18217TIP3   OH276141   1.325   3.582   3.481 -0.4333  0.0397  0.0190
18217TIP3    H176142   1.356   3.666   3.446 -0.9610 -0.0352 -0.6465
18217TIP3    H276143   1.308   3.599   3.573  0.0221  0.5104  0.0178
18218TIP3   OH276144   0.296   3.921  11.593  0.7330  0.4114 -0.3366
18218TIP3    H176145   0.210   3.960  11.609  0.8026  0.8334 -0.9587
18218TIP3    H276146   0.291   3.834  11.632 -0.2191  0.1648 -0.9907
18219TIP3   OH276147   3.978   1.250   5.254  0.5671  0.4963  0.3000
18219TIP3    H176148   3.887   1.251   5.225  0.6971 -0.2543 -0.1624
18219TIP3    H276149   4.011   1.338   5.233  0.8377 -0.2086 -2.5132
18220TIP3   OH276150   3.578   5.208   2.465 -0.4547  0.4544  0.6450
18220TIP3    H176151   3.663   5.250   2.451 -0.8492  1.4346  1.2071
18220TIP3    H276152   3.568   5.203   2.560 -1.0997  0.4947  0.5839
18221TIP3   OH276153   3.463   5.417   4.909 -0.8088  0.1670 -0.1262
18221TIP3    H176154   3.398   5.482   4.935 -1.1630  0.3470 -1.4511
18221TIP3    H276155   3.447   5.402   4.816 -0.2836 -1.3127  0.0077
18222TIP3   OH276156   0.012   3.384   2.342 -0.3947 -0.3389 -0.3759
18222TIP3    H176157  -0.073   3.426   2.330  0.0869  0.7630  0.0246
18222TIP3    H276158   0.045   3.418   2.425  0.1715 -1.2270 -0.2206
18223TIP3   OH276159   5.808   1.714  17.090  0.3088  0.3866  0.3247
18223TIP3    H176160   5.726   1.743  17.048  0.1391  0.9796  1.0643
18223TIP3    H276161   5.807   1.755  17.176  0.6045 -0.9349  0.9700
18224TIP3   OH276162   0.538   6.310  13.379 -0.4072 -0.1683  0.3012
18224TIP3    H176163   0.461   6.274  13.423  0.1618 -0.3824  1.1224
18224TIP3    H276164   0.569   6.379  13.438 -0.0401 -0.0009 -0.0891
18225TIP3   OH276165   6.747   3.345  15.319  1.1507  0.5663  0.8676
18225TIP3    H176166   6.662   3.344  15.276  1.9023  1.4916 -0.7204
18225TIP3    H276167   6.789   3.263  15.291  1.3137  0.7741  0.4904
18226TIP3   OH276168   2.547   2.172   1.099  0.1617 -0.5284  0.0304
18226TIP3    H176169   2.557   2.077   1.106 -0.2498 -0.5493  0.3429
18226TIP3    H276170   2.558   2.204   1.188  0.6294 -0.2495 -0.1273
18227TIP3   OH276171   2.265   5.946   4.595  0.5692 -0.7667 -0.3502
18227TIP3    H176172   2.214   6.011   4.643  0.4741 -1.1211  0.0310
18227TIP3    H276173   2.355   5.958   4.626  0.9965  0.9004 -2.1563
18228TIP3   OH276174   4.021   3.609   2.142  0.7831  0.2863  0.3038
18228TIP3    H176175   4.025   3.687   2.086 -0.6297 -2.0600 -3.2762
18228TIP3    H276176   3.953   3.555   2.102  3.0300 -3.6040  1.5348
18229TIP3   OH276177   6.754   0.480  12.333 -0.8741  0.0134 -0.1469
18229TIP3    H176178   6.671   0.517  12.304 -0.7584  1.2650  1.0584
18229TIP3    H276179   6.806   0.556  12.360  0.5187 -0.7896 -0.5296
18230TIP3   OH276180   0.927   1.233   6.067  0.1594  0.2336 -0.1975
18230TIP3    H176181   0.901   1.250   5.977 -1.5885 -1.3746 -0.0206
18230TIP3    H276182   1.023   1.232   6.064  0.1032 -1.0701 -2.2842
18231TIP3   OH276183   0.070   4.114   6.813 -0.2291  0.5163  0.0517
18231TIP3    H176184   0.083   4.026   6.777 -0.6893  0.7806 -0.7732
18231TIP3    H276185   0.058   4.170   6.736 -1.2439  1.0930  0.6156
18232TIP3   OH276186   0.990   2.956   4.508 -0.7023  0.2227 -0.2457
18232TIP3    H176187   0.995   2.975   4.602 -0.9475  0.7255 -0.3300
18232TIP3    H276188   0.953   2.868   4.503  1.1638 -0.6017  0.1752
18233TIP3   OH276189   3.040   1.524  17.008 -0.5962 -0.3194 -0.4865
18233TIP3    H176190   3.104   1.498  16.942  0.7162  1.8362 -0.1184
18233TIP3    H276191   3.077   1.491  17.090 -2.3045 -3.1363 -0.7998
18234TIP3   OH276192   5.800   4.910   5.024 -0.2795  0.1132  0.3978
18234TIP3    H176193   5.742   4.897   5.099 -0.6436 -0.6288 -0.0050
18234TIP3    H276194   5.800   5.004   5.009 -1.1251  0.1465  0.6045
18235TIP3   OH276195   0.934   0.197  13.194 -0.4880 -0.0561 -1.0834
18235TIP3    H176196   0.957   0.290  13.200 -0.8610 -0.0283  0.0964
18235TIP3    H276197   0.874   0.183  13.267  1.0505 -1.6805 -0.1097
18236TIP3   OH276198   3.490   2.062  13.998 -1.0498  0.2482 -0.3172
18236TIP3    H176199   3.412   2.064  14.054 -0.3633  0.4767  0.6513
18236TIP3    H276200   3.523   2.152  14.001  0.2767 -0.2696  0.7570
18237TIP3   OH276201   4.216   0.886   4.980 -0.0710  0.3292 -0.4083
18237TIP3    H176202   4.276   0.836   5.037 -0.6372 -1.4376 -1.3179
18237TIP3    H276203   4.160   0.934   5.040 -0.8292 -1.7152  0.5554
18238TIP3   OH276204   2.837   0.497  15.041 -0.1684 -0.0824  0.1057
18238TIP3    H176205   2.858   0.405  15.032  0.2182  0.2265 -2.4710
18238TIP3    H276206   2.779   0.501  15.118  1.6268 -2.1309  1.6202
18239TIP3   OH276207   6.008   3.977   0.754 -0.4194  0.0781 -0.2225
18239TIP3    H176208   6.087   3.996   0.704  0.6982 -0.0347  1.4421
18239TIP3    H276209   5.955   4.056   0.746  0.4214  0.6376 -0.3259
18240TIP3   OH276210   6.104   0.644  15.155  0.1663 -0.4703  0.6356
18240TIP3    H176211   6.045   0.674  15.086 -0.1836 -1.3538  0.5539
18240TIP3    H276212   6.172   0.595  15.108  1.3366  1.0857  0.6549
18241TIP3   OH276213   4.300   1.316  14.609 -0.3381 -0.0038 -0.1145
18241TIP3    H176214   4.205   1.304  14.606 -0.3962  0.2497  0.6151
18241TIP3    H276215   4.316   1.398  14.561 -0.3726 -0.6303 -1.2162
18242TIP3   OH276216   6.663   0.733   2.451 -0.3649 -0.2885  0.0678
18242TIP3    H176217   6.745   0.771   2.422 -0.0707 -1.8185 -1.1925
18242TIP3    H276218   6.686   0.682   2.529 -0.4431  0.6947  0.7359
18243TIP3   OH276219   3.291   2.291  13.967  0.7948  0.2903  0.3049
18243TIP3    H176220   3.259   2.219  13.912 -0.7285  0.0400  1.4797
18243TIP3    H276221   3.221   2.305  14.031  2.3118  0.9092  1.8576
18244TIP3   OH276222   2.527   0.474  15.043  0.0385 -0.1026 -0.0752
18244TIP3    H176223   2.593   0.406  15.029 -1.4397 -1.4351 -0.7175
18244TIP3    H276224   2.463   0.433  15.101 -0.7017  0.8510 -0.2141
18245TIP3   OH276225   4.896   3.075   1.399  0.0463  0.4874  0.1683
18245TIP3    H176226   4.892   3.142   1.330  0.8662  0.4299  0.0596
18245TIP3    H276227   4.856   2.998   1.359 -0.4457  0.7695  0.1193
18246TIP3   OH276228   3.272   4.839   4.423 -0.5853  0.4449  0.0590
18246TIP3    H176229   3.177   4.846   4.413 -0.6995  0.7883  1.2928
18246TIP3    H276230   3.296   4.913   4.479  0.5595  0.9662 -1.0921
18247TIP3   OH276231   2.752   3.980  14.856 -0.3307  0.2544 -0.1310
18247TIP3    H176232   2.739   4.039  14.782  2.9613  0.7812 -0.3449
18247TIP3    H276233   2.780   3.897  14.816  1.4917  0.5475  0.4994
18248TIP3   OH276234   3.401   5.471   3.679 -0.2169  0.0763 -0.2131
18248TIP3    H176235   3.314   5.498   3.649 -0.6082 -1.0198 -0.0798
18248TIP3    H276236   3.386   5.436   3.767  0.1501 -1.2660 -0.6718
18249TIP3   OH276237   1.793   3.856   4.928  0.0244  0.1122 -0.2231
18249TIP3    H176238   1.815   3.926   4.989 -0.9731  0.6348 -0.4581
18249TIP3    H276239   1.747   3.900   4.856 -1.0639 -0.8334 -0.1247
18250TIP3   OH276240   6.706   4.013  15.962  0.0279 -0.0474  0.1998
18250TIP3    H176241   6.776   4.047  16.018  0.9958  0.1499 -1.1127
18250TIP3    H276242   6.627   4.058  15.993  0.6897  0.6951  0.8449
18251TIP3   OH276243   2.556   0.675   6.009 -0.2087 -0.1020  0.7366
18251TIP3    H176244   2.497   0.634   5.945 -0.5332 -0.1934  1.0977
18251TIP3    H276245   2.537   0.631   6.091  0.7486 -0.5168  0.7418
18252TIP3   OH276246   2.800   3.952  14.300 -0.0964  1.0735 -0.7292
18252TIP3    H176247   2.844   4.033  14.325 -1.2428  1.0803  1.3187
18252TIP3    H276248   2.842   3.885  14.353 -0.0139  0.4956 -1.5107
18253TIP3   OH276249   1.935   4.834  16.776  0.0935 -0.3840 -0.0871
18253TIP3    H176250   1.856   4.888  16.770 -0.0276 -0.5845 -0.2698
18253TIP3    H276251   1.933   4.779  16.698  0.5473 -0.2088 -0.2288
18254TIP3   OH276252   6.352   1.437  16.836 -0.5198  0.0320  0.1487
18254TIP3    H176253   6.433   1.435  16.887  0.6634 -1.4901 -1.7378
18254TIP3    H276254   6.341   1.529  16.813  0.5997  0.2851  0.5656
18255TIP3   OH276255   6.791   2.828  10.646  0.2057  0.2801  0.0384
18255TIP3    H176256   6.738   2.749  10.659  0.3239  0.3518  0.9595
18255TIP3    H276257   6.783   2.846  10.552 -0.1336 -0.6049 -0.1137
18256TIP3   OH276258   4.994   0.397  10.707 -0.1633  0.0730 -0.4011
18256TIP3    H176259   5.011   0.302  10.707 -0.3408  0.0223 -1.9247
18256TIP3    H276260   5.075   0.436  10.675  0.2061  0.5061  1.0490
18257TIP3   OH276261   3.103   1.755   3.999 -0.1985 -0.2173  0.2984
18257TIP3    H176262   3.138   1.686   3.942  1.8538  0.6306  0.4623
18257TIP3    H276263   3.037   1.799   3.945 -0.9126 -1.7404 -0.1108
18258TIP3   OH276264   3.714   2.185   2.976 -0.0889  0.4836 -0.0188
18258TIP3    H176265   3.643   2.236   3.014 -1.2686  0.0536 -1.5958
18258TIP3    H276266   3.766   2.248   2.926  0.8706  0.8641  1.4371
18259TIP3   OH276267   3.500   1.528  16.243 -0.3825  0.2973 -0.2634
18259TIP3    H176268   3.538   1.570  16.166 -0.7882 -0.6784 -1.0091
18259TIP3    H276269   3.411   1.562  16.249 -0.4896  0.0592 -0.4783
18260TIP3   OH276270   3.438   5.115   3.171  0.2683 -0.0521 -0.2754
18260TIP3    H176271   3.435   5.202   3.212 -0.0277  0.1017 -0.6228
18260TIP3    H276272   3.454   5.133   3.078 -0.3685 -0.3431 -0.4428
18261TIP3   OH276273   2.331   4.802   0.824 -0.2528 -0.3987 -0.2003
18261TIP3    H176274   2.393   4.733   0.845 -0.2259  0.0583  1.2807
18261TIP3    H276275   2.376   4.883   0.846 -1.2969 -0.0548  0.7299
18262TIP3   OH276276   1.951   1.993  13.975  0.2540  0.3875 -0.3848
18262TIP3    H176277   2.024   2.048  13.949  0.3355 -0.2378 -1.5108
18262TIP3    H276278   1.873   2.042  13.949  0.3082  0.3307 -0.6552
18263TIP3   OH276279   1.579   4.073  16.043  0.3698 -0.4492 -0.6280
18263TIP3    H176280   1.547   4.055  16.132  0.2546 -1.3137 -0.8412
18263TIP3    H276281   1.659   4.123  16.057  1.7844 -2.8110  0.0547
18264TIP3   OH276282   5.413   6.282   4.473 -0.0933 -0.1284  0.7049
18264TIP3    H176283   5.330   6.329   4.465 -1.1207 -2.1915 -1.3699
18264TIP3    H276284   5.457   6.323   4.548 -1.9520  2.5185  0.4262
18265TIP3   OH276285   3.089   6.735   1.910 -0.2262  0.3043  0.5991
18265TIP3    H176286   3.033   6.796   1.862 -0.8416 -0.3472  0.4841
18265TIP3    H276287   3.115   6.670   1.845 -1.2447 -0.7080  1.1935
18266TIP3   OH276288   3.914   6.113   2.593 -1.0302  0.7802 -0.4666
18266TIP3    H176289   3.989   6.057   2.575 -0.7234  1.0119  0.0730
18266TIP3    H276290   3.926   6.188   2.535 -0.5929  1.0360 -0.0519
18267TIP3   OH276291   5.292   3.716  14.182  0.4065 -0.2438  0.1842
18267TIP3    H176292   5.272   3.799  14.138 -0.1410  1.0221  2.7150
18267TIP3    H276293   5.221   3.658  14.155 -0.3704  0.7552  0.0196
18268TIP3   OH276294   2.354   6.138  13.304 -0.3775  0.1703 -0.4140
18268TIP3    H176295   2.447   6.158  13.316 -0.6628  2.0914 -1.1964
18268TIP3    H276296   2.312   6.223  13.295 -2.0724 -0.7209 -1.2365
18269TIP3   OH276297   0.844   4.203   1.088  0.1077  0.0184 -0.6094
18269TIP3    H176298   0.933   4.223   1.061  0.9858  1.3508  3.0409
18269TIP3    H276299   0.853   4.156   1.170 -2.5483 -0.3775 -0.4884
18270TIP3   OH276300   3.532   1.527   4.679  0.6425 -1.3335  0.5353
18270TIP3    H176301   3.448   1.505   4.718  0.5755  1.3596  2.0355
18270TIP3    H276302   3.519   1.613   4.640  1.7341 -2.4279 -2.3941
18271TIP3   OH276303   1.684   0.939   2.360  0.1411 -0.2493 -0.4006
18271TIP3    H176304   1.775   0.948   2.335 -0.5029 -0.3905 -2.9060
18271TIP3    H276305   1.648   1.027   2.353 -0.0238 -0.2637  0.1983
18272TIP3   OH276306   2.743   2.742   3.359 -0.8781 -0.0010 -0.1900
18272TIP3    H176307   2.656   2.781   3.368 -1.0111 -0.3271 -0.0605
18272TIP3    H276308   2.797   2.813   3.325 -0.8039  0.6775  1.3310
18273TIP3   OH276309   3.565   6.336   5.107 -0.2626 -0.7037  0.1395
18273TIP3    H176310   3.589   6.278   5.034  2.7705  1.6874 -0.8707
18273TIP3    H276311   3.632   6.320   5.173 -1.8165 -1.3380  1.5902
18274TIP3   OH276312   6.743   6.260   1.193 -0.3791 -1.2352  0.1875
18274TIP3    H176313   6.671   6.283   1.135 -0.9878 -1.0275  1.0317
18274TIP3    H276314   6.752   6.335   1.252 -0.6420 -2.0170  1.2345
18275TIP3   OH276315   0.022   0.169   3.600 -0.0828 -0.0970  0.4372
18275TIP3    H176316   0.081   0.115   3.653 -1.5339 -1.4510  0.7268
18275TIP3    H276317   0.033   0.258   3.633  0.4846 -0.6245  1.6820
18276TIP3   OH276318   2.806   3.592  12.726 -0.1127  0.3893 -0.1514
18276TIP3    H176319   2.784   3.589  12.819  0.6575 -1.0082 -0.0080
18276TIP3    H276320   2.722   3.581  12.681 -0.2725 -0.6898  0.3900
18277TIP3   OH276321   0.834   0.646  15.335  0.0209 -0.5118 -0.5348
18277TIP3    H176322   0.740   0.660  15.340  0.1892  0.3201  0.5008
18277TIP3    H276323   0.844   0.567  15.283 -1.2162 -0.1047 -1.4095
18278TIP3   OH276324   3.653   6.240  15.540 -0.4858 -0.3734 -0.4750
18278TIP3    H176325   3.618   6.187  15.612 -1.4776  0.6849 -0.1621
18278TIP3    H276326   3.715   6.299  15.582  0.5790 -1.2188 -0.8162
18279TIP3   OH276327   5.373   0.063   5.166 -0.2892  0.1809 -0.6636
18279TIP3    H176328   5.361   0.094   5.255  0.3363 -1.5702  0.0625
18279TIP3    H276329   5.309   0.112   5.114 -3.5220 -1.6159  1.4059
18280TIP3   OH276330   1.723   0.428  13.037 -0.8131  0.5773 -0.1163
18280TIP3    H176331   1.769   0.415  13.119  0.7343  1.4015 -0.8440
18280TIP3    H276332   1.785   0.475  12.981 -1.6916 -0.3209 -1.8945
18281TIP3   OH276333   6.116   6.524  14.769 -0.2167 -0.0120  0.3799
18281TIP3    H176334   6.041   6.495  14.821 -0.1230  2.0034  1.6929
18281TIP3    H276335   6.095   6.496  14.680 -1.3314 -1.7225  1.1449
18282TIP3   OH276336   0.202   1.563  16.576  0.0760  0.4885  0.6553
18282TIP3    H176337   0.258   1.635  16.545 -0.0054  0.6591  0.9002
18282TIP3    H276338   0.196   1.577  16.671  0.2542  0.0232  0.7404
18283TIP3   OH276339   5.084   3.614  13.293 -0.4239  0.4719 -0.0253
18283TIP3    H176340   5.091   3.654  13.379  0.7292 -0.4707  0.3326
18283TIP3    H276341   5.174   3.610  13.261 -0.7702  0.1820 -0.9791
18284TIP3   OH276342   2.726   4.050   5.165 -0.2593 -0.2832  0.2417
18284TIP3    H176343   2.721   4.016   5.255  0.0155  0.4320  0.5315
18284TIP3    H276344   2.752   4.142   5.176  0.6346 -0.4357 -0.6203
18285TIP3   OH276345   0.042   3.047   4.072 -0.1433 -0.0996  0.5199
18285TIP3    H176346   0.008   2.958   4.086 -1.1213  0.2775  0.6046
18285TIP3    H276347  -0.014   3.083   4.003 -0.1152  0.6548  0.8867
18286TIP3   OH276348   3.097   5.434  10.955 -0.1476 -0.0463 -0.4813
18286TIP3    H176349   3.188   5.461  10.943  0.0147 -0.5946 -0.5142
18286TIP3    H276350   3.056   5.448  10.869 -0.1562  0.4431 -0.3954
18287TIP3   OH276351   1.678   5.268  15.548  0.1046  0.4004  0.1190
18287TIP3    H176352   1.765   5.233  15.527  0.0568 -0.2259  0.9315
18287TIP3    H276353   1.688   5.307  15.634 -0.3250  0.6852  0.0421
18288TIP3   OH276354   4.606   5.921   2.081  0.0074  0.1188  0.1721
18288TIP3    H176355   4.701   5.932   2.077  0.0046 -0.0486 -0.4316
18288TIP3    H276356   4.592   5.827   2.067 -0.2917  0.2744 -0.5739
18289TIP3   OH276357   0.718   1.244   5.083  0.0886 -0.1414  0.2814
18289TIP3    H176358   0.712   1.163   5.032  2.1307 -0.6893  0.8685
18289TIP3    H276359   0.627   1.270   5.098 -0.5894 -2.3239  0.0843
18290TIP3   OH276360   4.204   6.347   2.409  0.1054 -0.6874  0.5011
18290TIP3    H176361   4.233   6.390   2.489  0.0439 -0.3300  0.3283
18290TIP3    H276362   4.228   6.255   2.422 -0.6670 -0.7873  1.2899
18291TIP3   OH276363   3.817   3.608  12.506 -0.3420  0.3974 -0.2791
18291TIP3    H176364   3.735   3.628  12.460 -1.3238 -0.6267  0.9693
18291TIP3    H276365   3.789   3.584  12.594  1.4414  1.5623  0.6250
18292TIP3   OH276366   3.639   4.144   1.084 -1.1583 -0.4264 -0.8242
18292TIP3    H176367   3.596   4.131   1.000 -0.6626 -0.8120 -1.0196
18292TIP3    H276368   3.623   4.236   1.106 -0.3152 -0.0353 -1.8682
18293TIP3   OH276369   1.409   3.036  12.409 -0.0924 -0.4200 -0.0424
18293TIP3    H176370   1.440   3.040  12.319 -0.4530 -1.3645 -0.2104
18293TIP3    H276371   1.433   2.949  12.439 -1.2604 -0.6219  0.3129
18294TIP3   OH276372   4.316   4.532   3.383 -0.2628  0.5330 -0.6159
18294TIP3    H176373   4.341   4.520   3.291  0.9262 -1.7845 -0.0366
18294TIP3    H276374   4.370   4.605   3.413  1.7594 -0.8043 -0.9023
18295TIP3   OH276375   0.247   0.133  15.860 -0.0898 -0.5830 -0.2942
18295TIP3    H176376   0.311   0.071  15.894 -2.4131 -1.7640  2.2004
18295TIP3    H276377   0.247   0.205  15.924 -0.6339 -0.2050 -0.7160
18296TIP3   OH276378   6.065   6.019   4.502 -0.2156  0.6637 -0.1297
18296TIP3    H176379   6.103   6.056   4.582  1.3181  2.0031 -1.4614
18296TIP3    H276380   6.109   6.065   4.431  0.4137 -2.4214 -1.8196
18297TIP3   OH276381   0.913   3.727   2.698  0.4604  0.7903 -0.1737
18297TIP3    H176382   1.002   3.693   2.707  0.1313 -0.0254  0.0549
18297TIP3    H276383   0.891   3.757   2.786  0.1777  0.1550 -0.0251
18298TIP3   OH276384   2.069   3.624  14.193 -0.0569 -0.6759  0.1213
18298TIP3    H176385   2.148   3.621  14.246 -0.7574  0.9423  1.2911
18298TIP3    H276386   2.034   3.535  14.197  1.0292 -1.0890  0.6265
18299TIP3   OH276387   5.467   3.387   3.627 -0.1680 -0.6489  0.1376
18299TIP3    H176388   5.372   3.393   3.615 -0.2930 -1.5549  0.6303
18299TIP3    H276389   5.480   3.402   3.720  0.4641  2.5563 -0.4252
18300TIP3   OH276390   3.135   4.179  12.419 -0.1197 -0.7994 -0.2624
18300TIP3    H176391   3.079   4.243  12.375 -0.5431 -0.1788  1.1603
18300TIP3    H276392   3.082   4.099  12.424 -0.2321 -0.7377 -0.4654
18301TIP3   OH276393   4.433   1.347  13.342  0.1301  0.0991  0.1826
18301TIP3    H176394   4.512   1.400  13.328  0.5855 -0.4971  0.4769
18301TIP3    H276395   4.420   1.301  13.259  0.7512 -0.6764  0.5142
18302TIP3   OH276396   0.640   6.817  13.549 -0.4205 -0.0141 -0.5063
18302TIP3    H176397   0.588   6.753  13.500  0.1685 -0.5870 -0.3890
18302TIP3    H276398   0.637   6.896  13.495 -0.3173 -0.4399 -1.1475
18303TIP3   OH276399   5.748   6.496  15.692 -0.1784  0.1153  0.1128
18303TIP3    H176400   5.669   6.537  15.656 -1.0978 -0.7230  1.1064
18303TIP3    H276401   5.806   6.569  15.713 -1.2699  0.8396  0.6807
18304TIP3   OH276402   6.348   3.993  16.710  0.2002 -0.3930 -0.7688
18304TIP3    H176403   6.415   4.044  16.665  1.3171 -1.3796 -0.2406
18304TIP3    H276404   6.396   3.942  16.775 -1.1215 -0.7438 -0.0475
18305TIP3   OH276405   4.632   5.159   6.078  0.3714  0.0221  0.3607
18305TIP3    H176406   4.728   5.170   6.078  0.5565 -1.4578  0.6379
18305TIP3    H276407   4.617   5.081   6.132 -0.9973  0.2571  0.3362
18306TIP3   OH276408   3.778   4.740   5.980 -0.8882 -0.1311 -0.3057
18306TIP3    H176409   3.857   4.756   5.929 -0.8573  1.5284  0.2253
18306TIP3    H276410   3.735   4.826   5.986 -1.8099 -0.6511  0.9002
18307TIP3   OH276411   4.281   2.919  15.022 -0.0339 -0.5234  0.1748
18307TIP3    H176412   4.343   2.953  14.957 -0.0362 -0.8315  0.0095
18307TIP3    H276413   4.234   2.850  14.975  1.7638 -2.5730  1.2572
18308TIP3   OH276414   0.942   4.410   4.319 -0.3597  0.3820  0.0836
18308TIP3    H176415   0.892   4.329   4.310 -1.5096  1.2832 -2.0388
18308TIP3    H276416   0.959   4.437   4.229 -0.5444  2.8314  0.7623
18309TIP3   OH276417   3.113   4.163   0.682 -0.0098  0.2043  0.0287
18309TIP3    H176418   3.106   4.190   0.591  0.0524 -1.6300 -0.5371
18309TIP3    H276419   3.024   4.167   0.716  0.0119  1.1728 -0.0124
18310TIP3   OH276420   4.870   3.334   1.536 -0.3800 -0.1423  0.0868
18310TIP3    H176421   4.948   3.321   1.482 -0.8412 -1.0134 -0.3796
18310TIP3    H276422   4.894   3.299   1.622  0.1056  0.5773  0.2485
18311TIP3   OH276423   4.126   6.566   2.025 -0.3119 -0.5151  0.1288
18311TIP3    H176424   4.157   6.637   2.082  0.3527  0.2822 -1.1975
18311TIP3    H276425   4.045   6.600   1.988 -0.6296 -0.9527  0.4110
18312TIP3   OH276426   5.707   1.927   1.798  0.3880  0.0549  0.0477
18312TIP3    H176427   5.621   1.943   1.836  0.2276  1.0797 -0.7144
18312TIP3    H276428   5.758   2.004   1.822  0.8801 -0.2178 -0.1116
18313TIP3   OH276429   0.580   1.361  15.822  0.0757 -0.2868 -0.3227
18313TIP3    H176430   0.583   1.285  15.881  1.3574 -1.7662 -2.2373
18313TIP3    H276431   0.577   1.437  15.881  0.1248 -1.7580  1.6328
18314TIP3   OH276432   4.868   3.259   2.380 -0.0497  0.7353 -0.3580
18314TIP3    H176433   4.935   3.310   2.333 -1.0470  1.0624 -1.4442
18314TIP3    H276434   4.901   3.169   2.377  1.0037  1.0899  0.2931
18315TIP3   OH276435   4.699   6.768  14.922 -0.1428 -0.3633 -0.3578
18315TIP3    H176436   4.674   6.844  14.974  0.1389 -0.7733  0.3879
18315TIP3    H276437   4.641   6.698  14.952  1.4100 -1.1453  0.9084
18316TIP3   OH276438   6.423   3.251  11.696 -0.2495 -0.4858 -0.3473
18316TIP3    H176439   6.378   3.335  11.697  2.9777  1.2878  1.2147
18316TIP3    H276440   6.396   3.209  11.777 -1.5511 -0.8523 -0.9432
18317TIP3   OH276441   4.322   3.245   2.801  0.2477 -0.1110  0.4169
18317TIP3    H176442   4.280   3.328   2.824  1.2339  0.1244  1.4009
18317TIP3    H276443   4.311   3.239   2.706  0.0248  1.0735  0.3590
18318TIP3   OH276444   1.228   2.462  13.998 -0.0711 -0.1054  0.4397
18318TIP3    H176445   1.311   2.475  13.953  0.2867 -1.1611  0.7861
18318TIP3    H276446   1.196   2.551  14.016  0.6893  0.3045 -0.2189
18319TIP3   OH276447   1.130   6.550  15.047  0.1467  0.6241 -0.1252
18319TIP3    H176448   1.036   6.563  15.055 -0.2498 -1.1914 -1.5920
18319TIP3    H276449   1.154   6.497  15.122  0.1478  1.7601  0.6857
18320TIP3   OH276450   6.293   3.492   4.842  0.0323 -0.0109  0.4101
18320TIP3    H176451   6.330   3.575   4.812 -0.6504  0.1705  0.0596
18320TIP3    H276452   6.293   3.437   4.764  0.3948 -0.3131  0.6208
18321TIP3   OH276453   0.254   6.397   3.805  0.1655  0.6974  0.2306
18321TIP3    H176454   0.252   6.443   3.888 -0.3228  0.0778  0.5629
18321TIP3    H276455   0.200   6.451   3.746  1.1150  1.5296  0.0938
18322TIP3   OH276456   3.752   0.728  13.592  0.0722  0.4825 -0.3290
18322TIP3    H176457   3.714   0.654  13.638  1.2597  0.7546  1.1185
18322TIP3    H276458   3.685   0.797  13.597  0.0444  0.3818  0.6517
18323TIP3   OH276459   5.328   4.754   1.542  0.5663  0.0545 -0.1735
18323TIP3    H176460   5.374   4.723   1.620 -0.6538  1.5709  1.2027
18323TIP3    H276461   5.243   4.710   1.545 -0.1183  1.3762  0.2896
18324TIP3   OH276462   2.158   2.675  14.428 -0.4924  0.3719 -0.4602
18324TIP3    H176463   2.143   2.584  14.454  2.2790 -0.4103 -1.4271
18324TIP3    H276464   2.105   2.687  14.349 -1.2065 -0.2612 -0.0802
18325TIP3   OH276465   2.460   2.743   4.187 -0.2069  0.4184  0.2157
18325TIP3    H176466   2.440   2.832   4.215  0.8519  0.4558  0.8430
18325TIP3    H276467   2.434   2.688   4.260  0.3178  0.3182  0.3283
18326TIP3   OH276468   4.450   0.547  16.977  0.3566  0.4662 -0.1401
18326TIP3    H176469   4.399   0.627  16.961 -1.9677  0.1101  4.4652
18326TIP3    H276470   4.389   0.476  16.956  0.9578 -0.0286 -0.2055
18327TIP3   OH276471   6.086   3.151  13.367 -0.2360  0.2871 -0.0000
18327TIP3    H176472   6.000   3.139  13.407  0.5247 -0.3138  1.4857
18327TIP3    H276473   6.077   3.115  13.279 -1.3611 -0.2495  0.3277
18328TIP3   OH276474   3.060   4.583  12.950  0.6248  0.4532  0.6766
18328TIP3    H176475   3.122   4.604  13.020  1.4763  0.7147 -0.1322
18328TIP3    H276476   3.116   4.566  12.874 -0.3519  2.7058 -0.5902
18329TIP3   OH276477   4.037   1.225   2.043  0.3908  0.7491  0.1296
18329TIP3    H176478   3.942   1.228   2.033  0.2930  0.3939  0.9096
18329TIP3    H276479   4.069   1.293   1.984 -0.3164  0.5765 -0.4648
18330TIP3   OH276480   3.969   0.979  17.062  0.5345 -0.1877  0.5815
18330TIP3    H176481   4.001   0.911  17.122  1.2089 -1.7297 -1.4660
18330TIP3    H276482   4.040   0.989  16.998 -0.5215  0.8078 -0.4483
18331TIP3   OH276483   3.272   5.673   0.229 -0.0049 -0.5323  0.1826
18331TIP3    H176484   3.295   5.655   0.138  0.7076  0.4625  0.1569
18331TIP3    H276485   3.330   5.617   0.281 -0.0312 -0.6925  0.0387
18332TIP3   OH276486   5.197   6.536   0.664  0.1557  0.5429  0.2514
18332TIP3    H176487   5.210   6.521   0.758 -0.9756  1.1105  0.5028
18332TIP3    H276488   5.109   6.505   0.646  0.5734 -0.0860 -0.7489
18333TIP3   OH276489   5.730   5.948  15.502  0.9307  0.1346 -0.1345
18333TIP3    H176490   5.822   5.924  15.504  1.3559  1.8021  0.5079
18333TIP3    H276491   5.718   6.008  15.575 -0.9649 -1.0879  0.6140
18334TIP3   OH276492   0.009   0.734   2.868 -0.7525  0.3783 -0.3519
18334TIP3    H176493   0.046   0.676   2.935 -0.9060 -0.2956 -0.8499
18334TIP3    H276494   0.068   0.809   2.866  0.3031 -0.4591 -0.7837
18335TIP3   OH276495   5.507   6.605   6.481 -0.1635  0.0296 -0.4989
18335TIP3    H176496   5.547   6.637   6.562  0.2918 -0.9283 -0.3408
18335TIP3    H276497   5.413   6.610   6.498 -0.0544 -1.9142  0.7829
18336TIP3   OH276498   1.442   1.999   1.747  0.4885 -0.0531  0.1877
18336TIP3    H176499   1.436   2.078   1.802 -0.9876 -0.0503  0.0645
18336TIP3    H276500   1.464   2.032   1.660 -0.5462  0.2884  0.0408
18337TIP3   OH276501   0.729   5.235  12.928  0.7703  0.3073 -0.4248
18337TIP3    H176502   0.720   5.314  12.874  0.8029 -0.5998 -1.7849
18337TIP3    H276503   0.687   5.166  12.876 -0.4013 -0.3227  1.3281
18338TIP3   OH276504   0.588   5.213  15.201 -0.1487 -0.0650 -0.1965
18338TIP3    H176505   0.495   5.203  15.185  0.0676 -0.8282 -1.0452
18338TIP3    H276506   0.609   5.301  15.168 -0.8723  0.7672  1.5336
18339TIP3   OH276507   0.868   4.792   4.590 -0.0429 -0.0946  0.1350
18339TIP3    H176508   0.904   4.714   4.548 -0.4383 -0.7184  0.9444
18339TIP3    H276509   0.826   4.840   4.518 -0.2480 -0.8754 -0.2733
18340TIP3   OH276510   5.641   5.009  11.829  0.2273  0.4230 -0.0069
18340TIP3    H176511   5.629   5.000  11.924  0.7900  0.9817  0.1260
18340TIP3    H276512   5.573   5.072  11.802 -0.2972 -0.1621 -0.0719
18341TIP3   OH276513   6.266   5.390   5.028 -0.1172 -0.5108  0.6284
18341TIP3    H176514   6.180   5.378   5.068 -0.1383  0.4753  0.9050
18341TIP3    H276515   6.293   5.302   5.003 -1.2390 -0.8275  0.4695
18342TIP3   OH276516   4.581   0.191   4.670  0.0680  0.3643 -0.2326
18342TIP3    H176517   4.629   0.113   4.642 -1.1473 -0.5036  0.0216
18342TIP3    H276518   4.489   0.166   4.660 -0.3349  1.5121  0.5793
18343TIP3   OH276519   4.075   0.932   3.114  0.2522  0.1378 -0.1802
18343TIP3    H176520   4.021   0.899   3.042 -0.3443 -1.4258  0.9495
18343TIP3    H276521   4.142   0.985   3.071 -0.6076 -0.0422 -1.8114
18344TIP3   OH276522   0.883   6.705  11.341  0.7301 -0.5418  1.1185
18344TIP3    H176523   0.794   6.698  11.308  1.4870 -1.2462 -0.8459
18344TIP3    H276524   0.873   6.733  11.432 -1.5717 -2.7341  1.5957
18345TIP3   OH276525   1.829   2.505   0.616  0.0178  0.2817 -0.1598
18345TIP3    H176526   1.831   2.530   0.524 -2.0101  0.3654 -0.2091
18345TIP3    H276527   1.920   2.509   0.645  0.5843  0.8455 -1.9997
18346TIP3   OH276528   5.947   4.865  16.252 -0.3179  0.1902 -0.5209
18346TIP3    H176529   5.897   4.946  16.255 -2.4176 -1.1206  1.3024
18346TIP3    H276530   6.035   4.890  16.282 -1.1065  1.6917  0.6160
18347TIP3   OH276531   2.325   6.358   5.287 -0.0555  0.2124 -0.2688
18347TIP3    H176532   2.287   6.368   5.200 -1.4859  0.0830  0.3341
18347TIP3    H276533   2.408   6.405   5.282 -0.5950  1.0657 -1.3988
18348TIP3   OH276534   2.225   3.309   5.369  1.3461 -0.1362  0.3075
18348TIP3    H176535   2.147   3.358   5.344 -0.3410 -2.5856  0.6311
18348TIP3    H276536   2.284   3.317   5.293 -0.3485 -0.5447 -1.0805
18349TIP3   OH276537   6.145   2.643   2.326 -0.2841 -0.1377  0.1300
18349TIP3    H176538   6.109   2.630   2.414 -0.9272 -0.1936 -0.1428
18349TIP3    H276539   6.191   2.727   2.332 -2.0720  0.8788 -0.0365
18350TIP3   OH276540   6.686   2.422  12.768  0.4049 -0.2500  0.7947
18350TIP3    H176541   6.720   2.492  12.823 -1.9926  0.5300  1.3085
18350TIP3    H276542   6.645   2.467  12.694 -1.1146 -1.0922  1.1001
18351TIP3   OH276543   4.840   2.773   4.349 -0.4735 -0.1187 -0.0581
18351TIP3    H176544   4.840   2.677   4.353 -0.3006 -0.1323 -0.3877
18351TIP3    H276545   4.916   2.799   4.400 -0.7484 -0.1411  0.3675
18352TIP3   OH276546   1.161   0.453  15.936  0.0957 -0.3813 -0.6770
18352TIP3    H176547   1.154   0.364  15.971  1.6768  0.2308  1.2883
18352TIP3    H276548   1.099   0.504  15.988  2.2902  0.4903  1.1337
18353TIP3   OH276549   5.299   6.819  12.773  0.1381  0.7669 -0.2474
18353TIP3    H176550   5.278   6.846  12.683 -0.0292 -0.4008 -0.5610
18353TIP3    H276551   5.326   6.900  12.816  0.9890  1.2067 -1.5669
18354TIP3   OH276552   4.911   5.143   4.193 -0.1308  0.6216 -0.2977
18354TIP3    H176553   4.971   5.127   4.120 -0.9378  1.7308 -1.2208
18354TIP3    H276554   4.882   5.234   4.181 -0.2222  0.8411  1.4381
18355TIP3   OH276555   2.869   4.099  13.872  0.2768  0.3739 -0.0675
18355TIP3    H176556   2.819   4.043  13.930 -0.9113 -2.2310 -3.4343
18355TIP3    H276557   2.959   4.093  13.904 -0.3634 -0.8763  1.5307
18356TIP3   OH276558   6.326   1.585   6.071 -0.0110 -0.1172  0.6584
18356TIP3    H176559   6.300   1.495   6.086 -2.1621  0.3572 -0.1024
18356TIP3    H276560   6.393   1.580   6.003 -0.4805 -1.1054  0.2662
18357TIP3   OH276561   0.677   0.169  17.061  0.0439 -0.2382 -0.2651
18357TIP3    H176562   0.754   0.215  17.094  0.4207 -2.0857  1.4936
18357TIP3    H276563   0.623   0.238  17.022  0.3927  1.7795  2.6838
18358TIP3   OH276564   4.372   0.379   1.504  0.5439  0.4367  0.3542
18358TIP3    H176565   4.307   0.321   1.464  1.2210 -0.2691  0.2802
18358TIP3    H276566   4.389   0.446   1.438 -0.8687  1.2296  0.7538
18359TIP3   OH276567   6.764   1.213   5.841 -0.1244 -0.0291 -0.1658
18359TIP3    H176568   6.816   1.194   5.763 -0.1257  1.0232 -0.4257
18359TIP3    H276569   6.729   1.301   5.826  0.5934  0.5374  1.3969
18360TIP3   OH276570   4.644   4.040   5.592  0.0952  0.1123 -0.2952
18360TIP3    H176571   4.662   4.008   5.681  0.3879 -0.3313 -0.5097
18360TIP3    H276572   4.731   4.059   5.556  0.0292 -0.4512 -0.7579
18361TIP3   OH276573   1.015   4.312  14.010  0.6670  0.1221 -0.5223
18361TIP3    H176574   1.067   4.328  13.931 -0.3419 -2.4580 -1.7678
18361TIP3    H276575   1.080   4.305  14.080  1.9038 -1.2452 -1.7454
18362TIP3   OH276576   0.531   1.748   0.478  0.2605 -0.4241 -0.1156
18362TIP3    H176577   0.532   1.825   0.535  0.9534 -0.6853  0.2365
18362TIP3    H276578   0.459   1.694   0.511  0.6161 -0.5410  0.4773
18363TIP3   OH276579   5.197   2.318   2.757 -0.4651 -0.2602 -0.5146
18363TIP3    H176580   5.235   2.338   2.672 -1.3382 -1.5598 -1.2159
18363TIP3    H276581   5.268   2.274   2.805 -0.8414 -2.1305 -1.6066
18364TIP3   OH276582   0.024   4.287   3.899 -0.0641  0.5263 -0.0703
18364TIP3    H176583   0.081   4.276   3.976 -0.0079  1.6302  0.0564
18364TIP3    H276584   0.035   4.206   3.850  0.7821  0.2743  0.5112
18365TIP3   OH276585   0.294   1.269   1.816 -0.2797  0.9092  0.5934
18365TIP3    H176586   0.366   1.206   1.820 -1.7139 -1.0252 -2.1856
18365TIP3    H276587   0.233   1.240   1.884  0.2241  0.8094  1.0052
18366TIP3   OH276588   0.209   3.625  13.230  0.5446  0.6183 -0.5450
18366TIP3    H176589   0.232   3.668  13.147 -1.7361  0.4491 -1.2928
18366TIP3    H276590   0.202   3.532  13.208  0.1470  0.5425 -0.1056
18367TIP3   OH276591   5.551   3.706  15.063  0.2036 -0.4403  0.1575
18367TIP3    H176592   5.571   3.775  15.126  0.1997 -0.5135  0.2406
18367TIP3    H276593   5.570   3.744  14.977 -2.4064  0.5888 -0.0006
18368TIP3   OH276594   2.506   6.622  11.712  0.2746  0.0668 -0.3546
18368TIP3    H176595   2.528   6.593  11.800 -2.1903 -2.6828 -0.5553
18368TIP3    H276596   2.555   6.704  11.700  3.8263 -1.5940  2.0237
18369TIP3   OH276597   3.076   3.604  15.201 -0.2218  0.3662  0.4773
18369TIP3    H176598   3.031   3.534  15.247 -0.3868  0.3140  0.2386
18369TIP3    H276599   3.158   3.564  15.171 -0.7728 -0.0214 -0.5443
18370TIP3   OH276600   3.758   3.219  11.937  0.1768 -0.0805  0.5028
18370TIP3    H176601   3.744   3.133  11.977 -2.3999  0.1729  0.2097
18370TIP3    H276602   3.767   3.200  11.844  0.7397 -0.1245  0.5617
18371TIP3   OH276603   6.411   4.853  13.907 -0.4295 -0.2890  0.2539
18371TIP3    H176604   6.367   4.879  13.988  0.4343 -0.8938  0.9197
18371TIP3    H276605   6.393   4.925  13.847 -1.3373  0.0240  0.8802
18372TIP3   OH276606   3.390   3.572  12.820 -0.6250 -0.1942  0.3745
18372TIP3    H176607   3.352   3.660  12.829 -0.5979 -0.2894  1.5015
18372TIP3    H276608   3.389   3.555  12.726  1.1390  1.8045 -0.0411
18373TIP3   OH276609   5.429   3.659   4.947 -0.1432 -0.5792 -0.0691
18373TIP3    H176610   5.371   3.588   4.919 -1.8695  1.2174 -1.1469
18373TIP3    H276611   5.516   3.631   4.919 -0.9342 -1.8213 -1.3487
18374TIP3   OH276612   2.699   4.280  16.901  0.6492 -0.2631 -0.0401
18374TIP3    H176613   2.638   4.212  16.876  0.1207  0.2067 -0.0469
18374TIP3    H276614   2.649   4.336  16.961  1.4203 -0.5244  0.8619
18375TIP3   OH276615   5.932   4.687  11.119 -0.0874  0.1926 -0.2147
18375TIP3    H176616   5.982   4.748  11.173  1.5908 -0.9077 -0.4895
18375TIP3    H276617   5.920   4.734  11.035 -0.8131  1.0366  0.3483
18376TIP3   OH276618   2.388   6.331   2.231  0.3618 -0.1142  0.0916
18376TIP3    H176619   2.372   6.317   2.325  1.9262  0.3951  0.4547
18376TIP3    H276620   2.303   6.356   2.195 -0.2564 -0.3417  1.3683
18377TIP3   OH276621   5.731   1.661  15.414  0.4434  0.3807 -0.0314
18377TIP3    H176622   5.777   1.664  15.330  0.2502 -4.2626 -0.4363
18377TIP3    H276623   5.640   1.646  15.390  0.5864 -2.3238  0.9695
18378TIP3   OH276624   6.793   2.039   5.017 -0.9557  0.3553 -0.0300
18378TIP3    H176625   6.699   2.031   4.998 -1.0163 -1.2246  0.8657
18378TIP3    H276626   6.801   2.121   5.065 -2.2286 -0.6799  2.0023
18379TIP3   OH276627   5.490   3.817   2.658 -0.2636 -0.3562 -0.1410
18379TIP3    H176628   5.430   3.815   2.583 -0.4725  0.5909  0.0005
18379TIP3    H276629   5.556   3.751   2.636 -1.7136 -1.8967  0.0292
18380TIP3   OH276630   2.528   6.494  14.882 -0.4636 -0.1067  0.5880
18380TIP3    H176631   2.433   6.509  14.885 -0.3573  0.6729  0.2147
18380TIP3    H276632   2.537   6.399  14.869 -1.1753 -0.3144  1.5873
18381TIP3   OH276633   3.662   5.373   4.431  0.4424 -0.1323 -0.2811
18381TIP3    H176634   3.613   5.294   4.454  0.0132  0.4310  0.7541
18381TIP3    H276635   3.719   5.389   4.506 -0.5100  1.3519  0.1367
18382TIP3   OH276636   3.030   0.881   1.988  0.3076 -0.3734  0.2095
18382TIP3    H176637   2.972   0.882   1.912 -0.1526 -1.1446  0.5509
18382TIP3    H276638   3.032   0.790   2.016  1.7586 -0.3756  0.1429
18383TIP3   OH276639   3.556   4.694   1.820 -0.4080 -0.1935  0.3835
18383TIP3    H176640   3.558   4.721   1.728 -0.6312 -2.7473 -0.3980
18383TIP3    H276641   3.527   4.603   1.818  2.6151 -1.2806  2.7486
18384TIP3   OH276642   2.600   5.361   1.723  0.1974  0.6391 -0.0804
18384TIP3    H176643   2.529   5.363   1.660  0.0019  0.5179  0.1353
18384TIP3    H276644   2.581   5.285   1.778  0.9713  0.0716 -0.5845
18385TIP3   OH276645   0.538   4.806  17.192 -1.1466  0.2380  0.4752
18385TIP3    H176646   0.599   4.738  17.222 -0.9031  0.9423  1.6223
18385TIP3    H276647   0.573   4.887  17.229 -1.4432  0.9894 -0.8831
18386TIP3   OH276648   5.041   0.162  15.009  0.8498 -0.1464  0.5339
18386TIP3    H176649   5.037   0.097  15.079  0.0015 -0.3629  0.2961
18386TIP3    H276650   4.952   0.163  14.973  1.1006  0.4733 -0.0742
18387TIP3   OH276651   4.152   4.016   5.297 -0.1791 -0.1100 -0.0492
18387TIP3    H176652   4.098   4.043   5.222 -0.2595  0.4947  0.2263
18387TIP3    H276653   4.097   4.035   5.373  0.5097  0.7159  0.2431
18388TIP3   OH276654   5.409   6.119   2.239 -0.3280  0.5355  0.2698
18388TIP3    H176655   5.373   6.053   2.179  0.9805  1.9482 -2.1571
18388TIP3    H276656   5.455   6.181   2.182  1.8456  1.4000  2.8448
18389TIP3   OH276657   3.182   6.666  13.052 -0.0516 -0.4078  0.0966
18389TIP3    H176658   3.211   6.677  12.961 -1.0183  0.5369 -0.1083
18389TIP3    H276659   3.087   6.678  13.049  0.1673  2.1053  1.5708
18390TIP3   OH276660   0.935   5.157   4.390 -0.2487  0.1595  0.2313
18390TIP3    H176661   1.022   5.128   4.415  0.0565  1.0670  0.2551
18390TIP3    H276662   0.877   5.083   4.409  0.4246 -0.2175  0.7858
18391TIP3   OH276663   5.693   2.803  12.463  0.8525  0.0616  0.1796
18391TIP3    H176664   5.773   2.850  12.443  1.2547 -1.7842 -2.9167
18391TIP3    H276665   5.639   2.813  12.384 -0.9077 -0.8224  1.2399
18392TIP3   OH276666   6.333   5.767   4.465  0.5328 -0.6668  0.4642
18392TIP3    H176667   6.403   5.706   4.489  1.8233  0.2697 -0.8662
18392TIP3    H276668   6.311   5.743   4.375  0.1064 -0.0404  0.4016
18393TIP3   OH276669   5.868   6.465  12.158 -0.6355  0.4999  0.0015
18393TIP3    H176670   5.843   6.476  12.067 -0.4446 -0.7556 -0.2067
18393TIP3    H276671   5.789   6.485  12.207 -0.6020  1.6623 -0.4100
18394TIP3   OH276672   2.203   3.036  11.693  0.6538  0.8418 -0.1138
18394TIP3    H176673   2.233   2.967  11.634  1.1000  1.4340 -0.5917
18394TIP3    H276674   2.282   3.063  11.740  0.2819  0.3148  0.8183
18395TIP3   OH276675   5.859   4.592   2.944 -0.1744  0.4154  0.1149
18395TIP3    H176676   5.861   4.536   2.866 -1.3579 -0.6685  0.8391
18395TIP3    H276677   5.860   4.531   3.018 -0.8644  1.3624  0.9263
18396TIP3   OH276678   2.013   1.231   6.073  0.6728 -0.1099 -0.1817
18396TIP3    H176679   1.953   1.158   6.064 -2.6779  2.4873  0.2172
18396TIP3    H276680   2.047   1.223   6.162  0.1372 -1.0173 -0.0526
18397TIP3   OH276681   1.168   1.253   3.807 -0.8991  0.0533 -0.2732
18397TIP3    H176682   1.156   1.226   3.716 -0.1050 -0.0278 -0.3598
18397TIP3    H276683   1.263   1.260   3.818 -1.0265  1.4877  0.1323
18398TIP3   OH276684   2.256   0.078  13.877  0.1470 -0.0211  0.5003
18398TIP3    H176685   2.342   0.064  13.917  2.2497  1.8703 -3.0897
18398TIP3    H276686   2.270   0.150  13.815 -3.6227 -0.8371 -1.4320
18399TIP3   OH276687   6.558   4.994   5.035 -0.5974  0.1116 -0.5156
18399TIP3    H176688   6.600   5.003   4.949  0.2772 -0.7906 -0.1969
18399TIP3    H276689   6.471   4.959   5.016 -0.0716 -0.9601 -0.9700
18400TIP3   OH276690   6.221   4.243   2.358  0.8178  0.1940 -0.1117
18400TIP3    H176691   6.233   4.293   2.277  0.2438  1.4424  0.5504
18400TIP3    H276692   6.309   4.215   2.382  1.5403  3.0452  0.8289
18401TIP3   OH276693   3.765   5.986   5.193 -0.0688 -0.0304 -0.1981
18401TIP3    H176694   3.815   5.909   5.219  1.4746  1.7228  2.2258
18401TIP3    H276695   3.674   5.963   5.210  0.3509 -1.4247  0.2070
18402TIP3   OH276696   3.551   6.266  15.289  0.6175 -0.1870 -0.0715
18402TIP3    H176697   3.464   6.288  15.320  1.1160  1.2509  0.3294
18402TIP3    H276698   3.595   6.229  15.365  1.4503  2.2388  0.6675
18403TIP3   OH276699   5.109   3.225  13.481 -0.1840 -0.2099  0.3672
18403TIP3    H176700   5.156   3.241  13.399 -0.1292 -2.2145 -0.0154
18403TIP3    H276701   5.042   3.294  13.483  1.9886  1.9499  0.3580
18404TIP3   OH276702   6.403   0.927  12.710  0.2070 -0.0137 -0.0768
18404TIP3    H176703   6.498   0.939  12.717  0.3517 -0.2854 -1.6155
18404TIP3    H276704   6.391   0.832  12.711 -0.0477  0.0202  0.0090
18405TIP3   OH276705   0.638   0.893   0.628  0.0836  0.2417 -0.1939
18405TIP3    H176706   0.673   0.863   0.711  0.1551  2.3383  0.5519
18405TIP3    H276707   0.667   0.827   0.564 -0.7085 -1.8373  1.5538
18406TIP3   OH276708   5.021   4.101  14.742  0.0293  0.3909  0.2015
18406TIP3    H176709   4.967   4.178  14.763  0.3348  0.6230  0.1431
18406TIP3    H276710   5.070   4.127  14.664 -1.2821 -0.5605 -0.9489
18407TIP3   OH276711   0.474   0.410   3.150 -0.1191  0.1665  0.5878
18407TIP3    H176712   0.384   0.378   3.149 -0.8093  2.0438  0.5845
18407TIP3    H276713   0.523   0.344   3.199 -1.4580 -0.9434  0.4563
18408TIP3   OH276714   2.146   2.524  15.574  0.4009 -0.2183  0.4874
18408TIP3    H176715   2.107   2.600  15.616 -0.7553  0.1471 -1.2039
18408TIP3    H276716   2.240   2.542  15.574  0.2668  0.5093  1.4594
18409TIP3   OH276717   6.534   1.924   4.771 -0.2246 -0.1675  0.0311
18409TIP3    H176718   6.518   1.848   4.716  1.0628 -0.1632 -0.3635
18409TIP3    H276719   6.587   1.982   4.717 -1.3536  1.1077  0.2557
18410TIP3   OH276720   4.750   4.858  11.366  0.1469 -0.0590  0.3424
18410TIP3    H176721   4.684   4.879  11.300  0.6239  0.3603 -0.0044
18410TIP3    H276722   4.788   4.775  11.337  1.5361  0.9669 -0.8384
18411TIP3   OH276723   2.393   2.628  14.284  0.1106  0.1594  0.0545
18411TIP3    H176724   2.454   2.604  14.353  2.7280 -1.0661 -2.5517
18411TIP3    H276725   2.314   2.656  14.330  1.6200 -0.9417  3.4901
18412TIP3   OH276726   2.452   3.518   1.442  0.1470  0.3002  0.3853
18412TIP3    H176727   2.470   3.459   1.369 -0.6107  0.0165  0.4252
18412TIP3    H276728   2.452   3.462   1.519  0.9018  0.5929  0.6019
18413TIP3   OH276729   4.310   0.428   4.959  0.1689  0.7862  0.0128
18413TIP3    H176730   4.309   0.339   4.923  0.5828  0.4229  0.8857
18413TIP3    H276731   4.230   0.469   4.925 -1.7166 -0.9636  2.2167
18414TIP3   OH276732   3.008   6.521   0.356  0.2296 -0.0061 -0.1478
18414TIP3    H176733   3.055   6.582   0.299  1.2218  0.2302  0.9041
18414TIP3    H276734   2.942   6.481   0.300  1.2467  0.1666 -1.4652
18415TIP3   OH276735   4.741   1.853   6.171  0.1139  0.9985 -0.0546
18415TIP3    H176736   4.698   1.880   6.252 -1.5387  4.3743 -1.9570
18415TIP3    H276737   4.673   1.807   6.122  0.9990 -0.6796  0.2404
18416TIP3   OH276738   1.164   2.888   0.417 -0.6034  0.2026 -0.0773
18416TIP3    H176739   1.167   2.814   0.356 -2.7104 -0.8952  1.0738
18416TIP3    H276740   1.124   2.959   0.366 -0.4245 -0.0690 -0.6048
18417TIP3   OH276741   4.923   4.318  14.910 -0.1423  0.2359 -0.2582
18417TIP3    H176742   4.995   4.325  14.973  2.2589  0.9692 -2.9847
18417TIP3    H276743   4.844   4.333  14.962  1.6764 -0.1081  2.7315
18418TIP3   OH276744   2.692   0.366   1.114  0.4883 -0.5365  0.4264
18418TIP3    H176745   2.651   0.414   1.186 -0.5572 -1.5178  0.5019
18418TIP3    H276746   2.782   0.399   1.111 -0.2484  1.5638  0.3526
18419TIP3   OH276747   4.914   2.178  10.318 -0.3664 -0.0636 -0.2456
18419TIP3    H176748   4.954   2.244  10.375  0.8238 -0.2112 -0.8833
18419TIP3    H276749   4.821   2.199  10.318 -0.2528  0.4630  1.0526
18420TIP3   OH276750   3.618   1.140  11.655 -0.1899 -0.1666 -0.5933
18420TIP3    H176751   3.644   1.232  11.651 -1.7575  0.3667  0.7930
18420TIP3    H276752   3.522   1.142  11.649 -0.2224 -1.7398 -0.9126
18421TIP3   OH276753   2.689   0.288  11.851  0.2043 -0.5681 -0.0488
18421TIP3    H176754   2.647   0.374  11.842  1.1853 -0.0530  0.2739
18421TIP3    H276755   2.778   0.301  11.819  0.1415 -1.6529 -0.6842
18422TIP3   OH276756   5.007   0.458   4.526  0.9308  0.3314 -0.2072
18422TIP3    H176757   4.923   0.416   4.547  1.6923 -0.9255  0.3740
18422TIP3    H276758   5.033   0.502   4.607  0.7171  0.9353 -0.4633
18423TIP3   OH276759   1.911   5.483   0.651 -0.2167  0.4157  0.5315
18423TIP3    H176760   1.831   5.453   0.694 -0.7863  1.6380  0.3517
18423TIP3    H276761   1.970   5.408   0.653 -0.3784  0.3280  3.0831
18424TIP3   OH276762   1.864   0.629  12.882 -0.2723 -0.0553  0.0552
18424TIP3    H176763   1.784   0.679  12.897  0.0008  1.4713 -3.0784
18424TIP3    H276764   1.930   0.695  12.859  0.9575 -1.5538 -0.8674
18425TIP3   OH276765   6.413   0.841  12.164 -0.0143 -0.7214 -0.3014
18425TIP3    H176766   6.319   0.827  12.175 -0.4546  1.1370 -1.4056
18425TIP3    H276767   6.433   0.914  12.223  0.4497 -0.2599 -1.0081
18426TIP3   OH276768   1.058   4.242  15.812  0.1413  0.2573 -0.3044
18426TIP3    H176769   1.055   4.314  15.748  1.6277  1.1487  0.5991
18426TIP3    H276770   1.149   4.212  15.808 -0.2135 -0.8616  0.1148
18427TIP3   OH276771   3.224   1.019   0.315 -0.3945 -0.0586 -0.6613
18427TIP3    H176772   3.155   1.067   0.361 -0.7471  0.6875 -1.9327
18427TIP3    H276773   3.305   1.062   0.343 -0.5663  0.0516 -0.3308
18428TIP3   OH276774   2.723   1.716   3.319  0.2635  0.3307 -0.3301
18428TIP3    H176775   2.784   1.783   3.287 -0.0052  0.1321 -1.2674
18428TIP3    H276776   2.676   1.686   3.241  1.1173 -1.7037 -0.0959
18429TIP3   OH276777   5.477   6.728  12.979  0.0248  0.0974 -0.1215
18429TIP3    H176778   5.529   6.808  12.971  2.0877 -1.3094 -1.1446
18429TIP3    H276779   5.407   6.739  12.915  2.4496 -0.4927 -2.9608
18430TIP3   OH276780   3.699   4.577   4.252  0.0794  0.3612  0.1291
18430TIP3    H176781   3.719   4.520   4.326 -0.6942  1.9223  1.5769
18430TIP3    H276782   3.610   4.553   4.227 -0.2060  0.8229  0.6714
18431TIP3   OH276783   1.687   5.401   3.914 -0.6720  0.0471  0.4502
18431TIP3    H176784   1.707   5.486   3.954  0.5104  0.2784 -0.5847
18431TIP3    H276785   1.608   5.417   3.862 -0.3639  0.5790  0.1317
18432TIP3   OH276786   6.177   1.159  13.213  0.1523  0.2548  0.3910
18432TIP3    H176787   6.131   1.095  13.268  1.7301 -1.6330 -0.4035
18432TIP3    H276788   6.119   1.234  13.210 -1.2562 -0.7030  2.3020
18433TIP3   OH276789   4.773   0.642   4.989  0.5469 -0.2708  0.0904
18433TIP3    H176790   4.830   0.665   5.064  1.0375  0.1199 -0.3925
18433TIP3    H276791   4.795   0.707   4.922 -0.5115 -0.0897 -0.0889
18434TIP3   OH276792   4.731   0.751   3.497  0.3156 -0.3851  0.3591
18434TIP3    H176793   4.718   0.815   3.567  1.6481 -0.5115  0.7321
18434TIP3    H276794   4.825   0.751   3.482  0.3194 -2.1867  0.2907
18435TIP3   OH276795   6.748   6.548   0.609  0.1448  0.0479 -0.1878
18435TIP3    H176796   6.722   6.601   0.685 -1.1595  1.2760 -1.4516
18435TIP3    H276797   6.799   6.476   0.646  0.8654  1.4840  1.7003
18436TIP3   OH276798   5.927   2.712  16.439  0.1771  0.0804 -0.6820
18436TIP3    H176799   5.869   2.785  16.418 -1.6677 -0.5291  2.0003
18436TIP3    H276800   5.987   2.748  16.505  0.4331 -0.3453 -0.6827
18437TIP3   OH276801   0.560   2.514   5.509 -0.4262 -0.4279 -0.5008
18437TIP3    H176802   0.526   2.452   5.444 -2.1430  1.6455 -1.6474
18437TIP3    H276803   0.615   2.461   5.567 -1.5827 -2.9453 -1.6451
18438TIP3   OH276804   4.738   2.864   3.356  0.1814  0.0065  0.2930
18438TIP3    H176805   4.824   2.889   3.322  0.3203 -2.2057 -1.0834
18438TIP3    H276806   4.698   2.814   3.285 -1.4308 -0.6845  1.6629
18439TIP3   OH276807   4.399   5.367   5.793  0.3798  0.0152 -0.2545
18439TIP3    H176808   4.323   5.318   5.762 -0.1688  1.1207 -0.6930
18439TIP3    H276809   4.472   5.332   5.742  0.3339 -1.6756  0.8018
18440TIP3   OH276810   5.095   1.597  16.846 -0.6102  0.6605  0.0133
18440TIP3    H176811   5.152   1.526  16.815 -0.7079 -0.0345  1.3812
18440TIP3    H276812   5.007   1.572  16.817 -0.8129 -0.3730  1.4881
18441TIP3   OH276813   4.756   0.100   0.587  0.1775 -0.6884 -0.1667
18441TIP3    H176814   4.763   0.177   0.644 -1.3239 -1.1543  0.6858
18441TIP3    H276815   4.825   0.041   0.619  3.0228  1.2683 -2.4576
18442TIP3   OH276816   0.076   2.294   1.099 -0.2742  0.2605  0.0688
18442TIP3    H176817   0.129   2.316   1.022 -1.2239 -2.1317 -1.3606
18442TIP3    H276818   0.131   2.232   1.148 -0.5346  0.0903  0.1458
18443TIP3   OH276819   1.045   3.436   2.624 -0.4342 -0.3833  0.3731
18443TIP3    H176820   0.984   3.365   2.602 -0.9898 -0.3884  1.8699
18443TIP3    H276821   1.082   3.410   2.709  0.9647  0.0816 -0.0743
18444TIP3   OH276822   0.796   0.331  15.976 -0.1077 -0.0157  0.4512
18444TIP3    H176823   0.761   0.271  16.041 -0.6022  1.3710  1.4997
18444TIP3    H276824   0.866   0.282  15.932 -1.0501 -1.6110  0.7111
18445TIP3   OH276825   0.020   1.108   4.902 -0.0736  0.5366 -0.0246
18445TIP3    H176826   0.054   1.021   4.924  0.0189  0.4802 -0.3852
18445TIP3    H276827   0.068   1.168   4.959 -1.0137  0.2314  1.0980
18446TIP3   OH276828   0.086   0.330  14.343  0.1130  0.3886 -0.1517
18446TIP3    H176829   0.178   0.307  14.328 -0.1489  0.5352 -2.1238
18446TIP3    H276830   0.039   0.286  14.272 -0.8854  3.5046 -1.5072
18447TIP3   OH276831   1.111   0.280  11.917  0.3292  0.3920  0.4021
18447TIP3    H176832   1.105   0.249  12.008  3.4858  0.7849  0.7956
18447TIP3    H276833   1.205   0.291  11.902 -0.0772 -0.6503 -3.2642
18448TIP3   OH276834   6.319   6.450   5.677  0.1442 -0.3964 -0.0264
18448TIP3    H176835   6.224   6.455   5.672  0.1007 -0.0248  0.9996
18448TIP3    H276836   6.349   6.462   5.587 -0.7225  0.8234 -0.1534
18449TIP3   OH276837   6.752   0.935   0.207  0.3679  0.0283 -0.4213
18449TIP3    H176838   6.846   0.920   0.196  0.0849 -1.3993 -0.9741
18449TIP3    H276839   6.729   0.889   0.288  0.6372  2.6491  1.2168
18450TIP3   OH276840   2.565   0.967  15.171  0.0760  0.4389 -0.1976
18450TIP3    H176841   2.492   0.986  15.230  0.7680 -0.3294  0.9234
18450TIP3    H276842   2.548   0.877  15.141  0.3082  0.4289 -0.2962
18451TIP3   OH276843   3.880   2.792   3.563  0.3328  0.2913  0.0677
18451TIP3    H176844   3.822   2.770   3.491  1.2975  1.8728 -1.2300
18451TIP3    H276845   3.843   2.746   3.639 -1.9329  0.3617 -0.9610
18452TIP3   OH276846   0.109   1.332  14.498 -0.6473  0.4240  0.1057
18452TIP3    H176847   0.126   1.363  14.586 -3.3975 -0.8314  1.1236
18452TIP3    H276848   0.046   1.394  14.461  2.2910  2.3420 -1.9177
18453TIP3   OH276849   4.353   3.377   2.296  0.5200 -0.0196  0.1658
18453TIP3    H176850   4.264   3.343   2.302 -0.3560  1.5438 -2.8235
18453TIP3    H276851   4.401   3.310   2.249  0.3281  0.1550 -0.2830
18454TIP3   OH276852   0.300   3.164  14.628 -0.1233  0.0491  0.5733
18454TIP3    H176853   0.289   3.091  14.567 -0.1572 -0.3106  1.0051
18454TIP3    H276854   0.211   3.190  14.651 -0.1110  0.2113  0.4363
18455TIP3   OH276855   5.022   1.796  15.100 -0.3892  0.3957  0.0260
18455TIP3    H176856   4.963   1.871  15.097 -0.9309 -0.0246  0.0196
18455TIP3    H276857   4.994   1.747  15.178  1.5788  1.5155  1.4848
18456TIP3   OH276858   3.228   1.107  16.981 -0.9299 -0.6481 -0.0833
18456TIP3    H176859   3.166   1.042  17.015 -1.1259 -0.0471  0.7260
18456TIP3    H276860   3.186   1.192  16.999 -0.7164 -0.2940 -1.2076
18457TIP3   OH276861   0.351   1.883   3.998  0.2836  0.1608  0.1327
18457TIP3    H176862   0.345   1.832   3.918  0.8850  0.1708  0.0796
18457TIP3    H276863   0.434   1.855   4.038  0.4264  0.8108  0.2952
18458TIP3   OH276864   4.829   3.178  11.714 -0.2863 -0.4770  0.1361
18458TIP3    H176865   4.813   3.108  11.650  1.3618 -0.5196 -0.2642
18458TIP3    H276866   4.885   3.240  11.668 -0.3791  0.2832  1.0327
18459TIP3   OH276867   1.479   6.520   2.087  0.3314 -0.3550  0.5471
18459TIP3    H176868   1.571   6.537   2.106  0.4315 -2.2869  1.8921
18459TIP3    H276869   1.479   6.481   2.000  0.5648  1.6953 -0.3932
18460TIP3   OH276870   0.327   3.441  12.205  0.4669  0.3548 -0.1940
18460TIP3    H176871   0.371   3.474  12.127 -1.4528  0.8547 -1.0833
18460TIP3    H276872   0.294   3.519  12.249 -1.7436 -0.1573 -0.8903
18461TIP3   OH276873   4.525   4.332   6.345 -0.1640  0.0384 -0.5647
18461TIP3    H176874   4.463   4.259   6.351 -0.1952  0.1949  1.4771
18461TIP3    H276875   4.472   4.407   6.318 -0.1346 -0.6734 -2.6676
18462TIP3   OH276876   2.685   3.243   4.255  0.2163  0.3632 -0.3441
18462TIP3    H176877   2.700   3.326   4.300 -0.0453  0.3278 -0.1968
18462TIP3    H276878   2.768   3.195   4.267  0.7789  1.0555 -1.3989
18463TIP3   OH276879   0.365   4.649  13.699 -0.0684  0.1659 -0.0449
18463TIP3    H176880   0.411   4.704  13.762  0.2185 -0.7302  0.5480
18463TIP3    H276881   0.273   4.654  13.726  0.5260 -3.8620  3.4282
18464TIP3   OH276882   3.607   3.523  14.317  0.6947 -0.2865  0.2538
18464TIP3    H176883   3.573   3.544  14.404  2.5052 -0.3154  0.9961
18464TIP3    H276884   3.653   3.602  14.290  0.4795 -0.4205 -0.5159
18465TIP3   OH276885   3.569   0.803  12.396 -0.3846  0.6933  0.1378
18465TIP3    H176886   3.588   0.877  12.339  1.0663  0.0372 -0.2558
18465TIP3    H276887   3.634   0.736  12.372 -1.4703 -0.5939  0.6878
18466TIP3   OH276888   3.383   2.979  15.050  0.2163 -0.4941  0.1015
18466TIP3    H176889   3.416   3.044  14.988 -2.1295  1.8406  1.2220
18466TIP3    H276890   3.323   2.925  14.999  0.2021 -0.1747 -0.2226
18467TIP3   OH276891   6.336   6.723   2.750  0.0269 -0.0637  0.2264
18467TIP3    H176892   6.348   6.632   2.724 -0.8119 -0.7231  1.9996
18467TIP3    H276893   6.248   6.746   2.718 -0.9525 -0.8342  2.2411
18468TIP3   OH276894   0.278   3.177   2.333 -0.1447 -0.7432  0.5864
18468TIP3    H176895   0.289   3.151   2.425 -1.2353 -0.0813  0.9081
18468TIP3    H276896   0.197   3.134   2.306  0.7893 -1.8973 -0.4251
18469TIP3   OH276897   5.808   5.004   0.172 -0.0190  0.0398 -0.5754
18469TIP3    H176898   5.896   5.034   0.194 -0.0886  0.4719 -0.8668
18469TIP3    H276899   5.815   4.972   0.082  0.2736 -1.7554  0.0606
18470TIP3   OH276900   4.823   5.044   4.896  0.5536 -0.4767  0.2910
18470TIP3    H176901   4.788   4.957   4.914  1.6448 -1.4136 -1.8982
18470TIP3    H276902   4.822   5.088   4.981 -0.3058 -2.4990  1.3771
18471TIP3   OH276903   2.325   5.833   2.370  0.7614 -0.5963  0.4583
18471TIP3    H176904   2.295   5.923   2.353  1.1158  0.0679  3.0809
18471TIP3    H276905   2.377   5.810   2.293 -1.1359  0.6208 -1.2329
18472TIP3   OH276906   1.407   5.557  15.141  0.1231  0.2073  0.0964
18472TIP3    H176907   1.329   5.586  15.190  0.7901  0.3144  1.0999
18472TIP3    H276908   1.431   5.633  15.088 -0.4540  0.1699 -0.2330
18473TIP3   OH276909   2.008   0.453   0.067 -0.8106  0.0301  0.2652
18473TIP3    H176910   2.072   0.506   0.115  2.4630 -2.2011 -1.4698
18473TIP3    H276911   1.972   0.394   0.133  0.2380  0.1115  0.9259
18474TIP3   OH276912   0.948   5.179  15.093 -0.5866  0.3474  0.0100
18474TIP3    H176913   0.997   5.101  15.067 -0.3500 -0.2988  2.2209
18474TIP3    H276914   0.887   5.147  15.159 -1.4387  1.8041 -0.0560
18475TIP3   OH276915   3.593   5.752  11.440  0.2111 -0.0780 -0.0078
18475TIP3    H176916   3.609   5.846  11.437 -1.5066  0.2214 -0.2578
18475TIP3    H276917   3.658   5.715  11.380  1.5281  0.8363  0.8257
18476TIP3   OH276918   3.155   4.740   3.329 -0.5532  0.0665  0.3595
18476TIP3    H176919   3.092   4.725   3.400  0.1619 -2.5179  0.4624
18476TIP3    H276920   3.113   4.702   3.252  0.2468 -0.3015  0.1098
18477TIP3   OH276921   3.835   6.010   4.935  0.0278  0.1017  0.5412
18477TIP3    H176922   3.828   6.015   5.031  0.5818 -0.5266  0.6200
18477TIP3    H276923   3.795   5.926   4.913 -2.5612  1.4196 -0.0520
18478TIP3   OH276924   2.456   3.759   1.770 -0.1993  0.2323  0.3202
18478TIP3    H176925   2.534   3.813   1.765  1.7788 -2.5734 -0.6110
18478TIP3    H276926   2.433   3.759   1.863  2.1078 -0.4779  0.9330
18479TIP3   OH276927   2.709   1.926   0.078 -0.7896 -0.0107 -0.0805
18479TIP3    H176928   2.788   1.872   0.076 -1.6317 -1.2355 -2.2381
18479TIP3    H276929   2.723   1.992   0.010 -0.6291  1.2744  1.1677
18480TIP3   OH276930   4.939   1.669  11.626  0.5029  0.0592  0.3598
18480TIP3    H176931   4.992   1.602  11.585  0.2107 -0.3119  0.5797
18480TIP3    H276932   4.974   1.678  11.715 -2.0628 -2.8133  1.7745
18481TIP3   OH276933   2.087   2.362   0.273  0.7184  0.2092  0.1981
18481TIP3    H176934   2.146   2.406   0.334  1.1183  0.0682 -0.0875
18481TIP3    H276935   2.004   2.409   0.282  0.4111 -0.5952  1.7697
18482TIP3   OH276936   0.157   1.167  14.999  0.2098 -0.2704  0.2352
18482TIP3    H176937   0.188   1.226  14.930  1.8668 -1.6025 -0.1691
18482TIP3    H276938   0.136   1.086  14.953  2.8008 -1.6980  1.4866
18483TIP3   OH276939   2.086   0.932   2.660 -0.2833 -0.5960 -0.0582
18483TIP3    H176940   2.096   0.844   2.697 -0.1260 -0.2194  0.8114
18483TIP3    H276941   1.996   0.956   2.683 -0.2154 -0.3959 -0.0055
18484TIP3   OH276942   4.376   1.580   4.232  0.3091 -0.1131  0.5618
18484TIP3    H176943   4.468   1.554   4.243  0.1275 -0.8529  0.3600
18484TIP3    H276944   4.357   1.634   4.309  1.2080  0.8981  0.0897
18485TIP3   OH276945   6.596   5.313   6.058  0.1721  0.3133 -0.1850
18485TIP3    H176946   6.522   5.254   6.043  0.5801 -0.8444  2.1446
18485TIP3    H276947   6.597   5.326   6.152  4.2302 -1.4389  0.1220
18486TIP3   OH276948   1.546   6.266   1.211  0.5133  0.0257 -0.3495
18486TIP3    H176949   1.536   6.329   1.283  3.1121 -0.9256  0.9141
18486TIP3    H276950   1.633   6.286   1.175  0.5324 -1.5651 -1.1881
18487TIP3   OH276951   0.829   1.757  12.874 -0.0995  0.6421  0.4063
18487TIP3    H176952   0.757   1.763  12.812  1.4189 -2.9118 -1.8787
18487TIP3    H276953   0.885   1.831  12.853 -1.3980  1.4976 -0.0633
18488TIP3   OH276954   2.231   5.528   6.002  0.4764 -0.0037  0.0007
18488TIP3    H176955   2.286   5.590   6.050  1.8608 -0.8376 -0.4737
18488TIP3    H276956   2.223   5.453   6.061 -1.0574  0.5507  0.5048
18489TIP3   OH276957   2.678   2.992  13.072 -0.7610  0.2693  0.0386
18489TIP3    H176958   2.631   2.911  13.093 -0.4847  0.1088  0.0489
18489TIP3    H276959   2.722   2.973  12.989 -0.8048  0.4551 -0.0260
18490TIP3   OH276960   2.492   4.254  13.136 -0.3678 -0.1412  0.5070
18490TIP3    H176961   2.511   4.263  13.043  0.1310 -1.1370  0.5109
18490TIP3    H276962   2.537   4.328  13.177  1.5739 -1.1252  0.2381
18491TIP3   OH276963   3.838   5.369  15.600 -0.7523 -0.3203 -0.1918
18491TIP3    H176964   3.790   5.380  15.518  0.0623  0.8065 -0.5323
18491TIP3    H276965   3.770   5.354  15.666 -1.4668 -0.3211 -0.9298
18492TIP3   OH276966   0.823   4.829  14.340 -0.0891 -0.0314  0.3417
18492TIP3    H176967   0.865   4.764  14.284 -0.3901 -0.2093  0.3203
18492TIP3    H276968   0.847   4.803  14.429  0.8243  0.5591  0.2723
18493TIP3   OH276969   5.735   5.752   0.104 -0.0931 -0.6763 -0.2589
18493TIP3    H176970   5.714   5.661   0.084  0.7467 -0.5363 -1.7858
18493TIP3    H276971   5.688   5.803   0.038 -1.8792  0.1106  1.5657
18494TIP3   OH276972   4.401   5.857  16.550 -0.1379  0.2477 -0.1677
18494TIP3    H176973   4.495   5.866  16.536  0.1819  0.4225  1.8844
18494TIP3    H276974   4.367   5.946  16.544 -0.2928  0.0932 -1.6571
18495TIP3   OH276975   1.294   5.417  11.806 -0.5331  0.1890  0.0393
18495TIP3    H176976   1.308   5.468  11.727  1.4664 -0.1184  0.1838
18495TIP3    H276977   1.203   5.387  11.799 -0.9082  1.5762 -1.2950
18496TIP3   OH276978   0.932   4.655  13.375 -0.2156 -0.2644 -0.5056
18496TIP3    H176979   0.871   4.585  13.396  0.2877 -0.2508  1.0153
18496TIP3    H276980   0.905   4.684  13.288 -1.3120 -1.3873 -0.5591
18497TIP3   OH276981   0.449   2.682  13.823  0.1509 -0.5981 -0.2956
18497TIP3    H176982   0.422   2.737  13.749  0.1285 -0.7336 -0.3883
18497TIP3    H276983   0.516   2.733  13.868 -1.0884  0.2414  0.6199
18498TIP3   OH276984   3.922   0.675  17.243 -0.1562 -0.6581  0.2554
18498TIP3    H176985   3.992   0.646  17.184 -0.7177 -1.4379 -0.0305
18498TIP3    H276986   3.954   0.652  17.331 -0.7795 -2.5196 -0.0020
18499TIP3   OH276987   3.934   1.611   2.574 -0.1081  0.4360 -0.5508
18499TIP3    H176988   3.931   1.558   2.654  1.4977  1.7142  0.3892
18499TIP3    H276989   3.869   1.680   2.589  0.1870  0.6711 -0.3344
18500TIP3   OH276990   1.726   3.339   0.017  0.5370  0.0515 -0.2920
18500TIP3    H176991   1.656   3.293  -0.031  0.0669 -1.0413  1.3749
18500TIP3    H276992   1.806   3.295  -0.011  0.1866 -1.1444  0.5124
18501TIP3   OH276993   2.607   5.229  11.454  0.3931  0.2623  0.9808
18501TIP3    H176994   2.572   5.146  11.420 -3.0546  1.8000  0.5653
18501TIP3    H276995   2.580   5.231  11.545  0.3773  0.9910  0.9600
18502TIP3   OH276996   5.134   3.236  14.207 -0.7885 -0.1418 -0.3172
18502TIP3    H176997   5.171   3.159  14.163  0.5423 -0.0149  0.5238
18502TIP3    H276998   5.169   3.231  14.296 -1.4684  0.9203  0.0194
18503TIP3   OH276999   1.631   0.772   1.410 -0.3796  0.0460  0.1645
18503TIP3    H177000   1.695   0.716   1.455  0.3266 -1.0418 -2.0952
18503TIP3    H277001   1.665   0.861   1.421 -1.0457 -0.0147  3.0541
18504TIP3   OH277002   3.760   5.253  12.346 -0.2085  0.1239  0.3132
18504TIP3    H177003   3.786   5.328  12.292  1.7499 -0.9792 -0.3104
18504TIP3    H277004   3.753   5.289  12.435  1.1127  0.9824  0.0880
18505TIP3   OH277005   5.174   0.980  12.196  0.9104  0.2106  0.0858
18505TIP3    H177006   5.228   0.939  12.128 -1.1099 -0.0447 -1.4189
18505TIP3    H277007   5.161   1.070  12.166  0.5142  0.2714  0.4290
18506TIP3   OH277008   0.170   1.882   1.462  0.0569  0.1127  0.0010
18506TIP3    H177009   0.202   1.878   1.553 -1.0936  0.5435  0.4277
18506TIP3    H277010   0.089   1.831   1.463  0.8526 -1.1981 -1.1449
18507TIP3   OH277011   5.813   4.455   5.278 -0.3503 -0.1565 -0.3371
18507TIP3    H177012   5.866   4.516   5.227  0.6109 -0.6940  0.0023
18507TIP3    H277013   5.722   4.483   5.263  0.0939  1.6047  0.1715
18508TIP3   OH277014   6.760   3.997  12.805 -0.2713 -0.0663  0.6668
18508TIP3    H177015   6.782   3.927  12.744  1.6712 -0.6715  2.0086
18508TIP3    H277016   6.806   3.974  12.885 -2.5907  0.8439  2.2970
18509TIP3   OH277017   2.954   4.467  17.242 -0.5626 -0.0072 -0.2741
18509TIP3    H177018   3.038   4.470  17.197  0.8464 -2.2649  2.0927
18509TIP3    H277019   2.947   4.378  17.276 -4.7367 -0.4215 -1.8860
18510TIP3   OH277020   5.157   2.737   2.248 -0.5068  0.4481 -0.5032
18510TIP3    H177021   5.184   2.701   2.163  0.4581 -1.7359  0.6722
18510TIP3    H277022   5.227   2.711   2.308 -2.3800 -0.2014  1.4679
18511TIP3   OH277023   2.888   4.353   1.176  0.3848  0.2528 -0.2166
18511TIP3    H177024   2.834   4.351   1.255 -1.0897  3.5523 -1.0625
18511TIP3    H277025   2.851   4.285   1.119 -1.3209  0.8140  0.2046
18512TIP3   OH277026   6.449   2.325   2.208 -0.2036  0.7231 -0.0573
18512TIP3    H177027   6.523   2.319   2.269 -0.5711 -0.8391  0.2530
18512TIP3    H277028   6.375   2.351   2.263 -0.1207  1.2647 -0.1936
18513TIP3   OH277029   3.381   2.064  14.266  0.2746 -0.0721 -0.7121
18513TIP3    H177030   3.322   2.139  14.276  0.7290 -0.0800  2.2735
18513TIP3    H277031   3.342   1.996  14.320  1.9489 -0.7179 -0.2985
18514TIP3   OH277032   3.151   6.259   1.247  0.1886 -0.1447 -0.1667
18514TIP3    H177033   3.073   6.246   1.194  0.5832 -0.5162 -0.6649
18514TIP3    H277034   3.203   6.180   1.233  1.4124  0.8131 -1.1635
18515TIP3   OH277035   2.013   3.241   1.289  0.8817  0.7311  0.0446
18515TIP3    H177036   2.090   3.283   1.328  0.0386  1.4005  1.0421
18515TIP3    H277037   2.016   3.265   1.197  0.9731  2.1720  0.4101
18516TIP3   OH277038   3.694   3.345  13.871  0.0002 -0.3404  0.1300
18516TIP3    H177039   3.767   3.290  13.900 -0.9182 -1.2022  0.8292
18516TIP3    H277040   3.644   3.363  13.951 -1.0985 -0.5670 -0.5034
18517TIP3   OH277041   2.910   1.752   4.958 -0.2824  0.7091 -0.3295
18517TIP3    H177042   2.838   1.776   5.017 -0.2781 -0.1911  0.0490
18517TIP3    H277043   2.987   1.794   4.995 -0.2644  0.0718  0.3583
18518TIP3   OH277044   0.107   5.810  10.907 -0.1290 -0.2011  0.5174
18518TIP3    H177045   0.175   5.828  10.972  0.3871 -0.2631 -0.0037
18518TIP3    H277046   0.024   5.823  10.955  0.2442  0.0722  1.0965
18519TIP3   OH277047   0.971   6.074   2.301 -0.0721  0.1116 -0.0866
18519TIP3    H177048   1.011   6.025   2.373  1.5478  0.9565 -0.3852
18519TIP3    H277049   0.930   6.150   2.343  1.0989  0.7419 -0.0791
18520TIP3   OH277050   3.826   2.439  11.674 -0.0501  0.4764 -0.1272
18520TIP3    H177051   3.812   2.368  11.611 -3.7488  0.7741  0.2452
18520TIP3    H277052   3.839   2.517  11.619 -0.2860  0.2481 -0.5071
18521TIP3   OH277053   3.078   0.091  15.698  0.3622  0.4368  0.2673
18521TIP3    H177054   3.073   0.068  15.605  1.6756 -0.1200  0.3260
18521TIP3    H277055   3.150   0.038  15.732  0.0405  0.8087  1.5617
18522TIP3   OH277056   5.935   6.320   2.162 -0.1977 -0.1336 -0.1764
18522TIP3    H177057   6.019   6.304   2.205 -0.7650 -0.6006  0.7711
18522TIP3    H277058   5.907   6.405   2.195 -0.3364 -0.2026 -0.1189
18523TIP3   OH277059   4.623   1.998  15.676  0.8467  0.2781 -0.0510
18523TIP3    H177060   4.643   1.994  15.770  2.0054 -2.2085 -0.3693
18523TIP3    H277061   4.708   1.990  15.633  0.5040  2.9629 -1.3349
18524TIP3   OH277062   3.737   2.188  13.449  0.1806 -0.1651 -0.3928
18524TIP3    H177063   3.741   2.167  13.356 -1.3184  0.0154 -0.5145
18524TIP3    H277064   3.753   2.104  13.493 -3.0304 -1.1066 -0.8631
18525TIP3   OH277065   2.237   4.325   5.811  0.4814  0.1587 -0.4531
18525TIP3    H177066   2.191   4.335   5.895  0.7276 -2.0334 -0.0095
18525TIP3    H277067   2.186   4.377   5.749 -0.2892  0.9925  0.8494
18526TIP3   OH277068   4.619   0.991   3.404  0.8036  0.3730 -0.1252
18526TIP3    H177069   4.641   0.898   3.415 -1.3053 -0.5023 -2.8090
18526TIP3    H277070   4.647   1.012   3.315  0.2542  2.0237  0.0786
18527TIP3   OH277071   2.616   2.697  15.095 -0.3543 -0.2210 -0.4710
18527TIP3    H177072   2.612   2.725  15.187  0.4969 -0.2445 -0.4201
18527TIP3    H277073   2.698   2.649  15.089 -1.6090 -2.3828 -0.6691
18528TIP3   OH277074   4.465   0.655   1.837  0.3533 -0.0881  0.2544
18528TIP3    H177075   4.548   0.668   1.792 -0.2787  2.2800 -0.2787
18528TIP3    H277076   4.436   0.743   1.862 -3.1957 -0.5711 -1.7700
18529TIP3   OH277077   6.111   5.182   3.455  0.1027 -0.1922 -0.2324
18529TIP3    H177078   6.053   5.113   3.421 -0.1326 -0.1011 -0.0101
18529TIP3    H277079   6.052   5.251   3.484  0.3807  0.7106 -1.7541
18530TIP3   OH277080   3.097   2.701  16.450 -0.0483  0.3170 -0.0601
18530TIP3    H177081   3.005   2.683  16.430 -0.3451  2.0100 -0.3176
18530TIP3    H277082   3.130   2.620  16.488 -1.3709 -0.6438 -0.9333
18531TIP3   OH277083   6.241   0.560  11.775 -0.4400 -0.3218 -0.1121
18531TIP3    H177084   6.234   0.615  11.697  1.7373 -0.0000 -0.0945
18531TIP3    H277085   6.329   0.577  11.809 -0.8063 -1.6222  1.5487
18532TIP3   OH277086   0.733   4.926   4.411 -0.1478  0.0898 -0.1174
18532TIP3    H177087   0.758   4.877   4.333  0.2923  0.9181 -0.5065
18532TIP3    H277088   0.642   4.951   4.396  0.3466  1.4078 -0.9793
18533TIP3   OH277089   5.847   3.224  14.493 -0.3435 -0.0910  0.2272
18533TIP3    H177090   5.782   3.206  14.561  0.6212  0.9476  1.4467
18533TIP3    H277091   5.927   3.182  14.523  0.0115  0.1200 -0.4052
18534TIP3   OH277092   4.868   0.389   5.180 -0.8292 -0.3352  0.1360
18534TIP3    H177093   4.800   0.450   5.209 -0.4590 -0.5643  1.5340
18534TIP3    H277094   4.826   0.338   5.111 -1.7084  0.3121  0.1773
18535TIP3   OH277095   0.037   4.859   1.484 -0.1089 -0.3285  0.2723
18535TIP3    H177096   0.021   4.953   1.470 -0.6183 -0.4692 -0.1106
18535TIP3    H277097   0.012   4.843   1.575 -2.4781 -0.6108 -0.4030
18536TIP3   OH277098   3.351   0.640   1.266 -0.0421 -0.3731  0.0968
18536TIP3    H177099   3.319   0.691   1.340 -1.0640 -0.1104 -0.5166
18536TIP3    H277100   3.301   0.672   1.191  2.6579  1.0852 -1.1804
18537TIP3   OH277101   0.556   5.756   4.473 -0.8346 -0.3561  0.2128
18537TIP3    H177102   0.587   5.845   4.489 -0.6260 -0.5602  0.9570
18537TIP3    H277103   0.628   5.714   4.425  0.4553 -1.1103  2.7580
18538TIP3   OH277104   3.133   6.664  13.817  0.1983 -0.4323 -0.3084
18538TIP3    H177105   3.211   6.643  13.765 -1.6564 -2.7109 -2.2916
18538TIP3    H277106   3.136   6.603  13.891  2.1754  1.9811  1.7324
18539TIP3   OH277107   6.350   5.306  17.258 -0.4102  0.3125  0.2141
18539TIP3    H177108   6.304   5.391  17.260 -1.1854 -0.1192  1.1963
18539TIP3    H277109   6.436   5.327  17.222 -0.3753  1.6357  0.9957
18540TIP3   OH277110   0.051   2.959   2.775 -0.9136 -0.1282  0.2213
18540TIP3    H177111   0.118   2.916   2.827  0.5228  0.6573 -0.9238
18540TIP3    H277112  -0.029   2.910   2.793  0.1583 -1.6773  0.8779
18541TIP3   OH277113   6.538   4.350  13.516 -0.2143  0.2071 -0.4968
18541TIP3    H177114   6.577   4.304  13.442  0.3206 -0.2014  0.0328
18541TIP3    H277115   6.553   4.292  13.591 -2.2048 -0.1547 -0.3458
18542TIP3   OH277116   0.129   5.221  10.823 -0.0606  0.1686 -0.0224
18542TIP3    H177117   0.176   5.183  10.749 -0.3615 -0.1475 -0.0532
18542TIP3    H277118   0.196   5.268  10.873  1.0849 -3.5098  2.1119
18543TIP3   OH277119   6.014   4.916   2.207  0.1268  0.3887  0.1569
18543TIP3    H177120   6.099   4.905   2.164 -0.5667  0.4956 -1.2601
18543TIP3    H277121   6.033   4.905   2.301  1.5660 -0.3879 -0.2097
18544TIP3   OH277122   0.585   3.995  13.759 -0.3625 -0.5178 -0.5013
18544TIP3    H177123   0.554   3.905  13.747 -0.4522 -0.5689  0.1395
18544TIP3    H277124   0.586   4.008  13.853  1.0173 -0.3191 -0.5345
18545TIP3   OH277125   4.798   0.922   1.450  0.2962 -0.1721 -0.0791
18545TIP3    H177126   4.775   1.013   1.471  1.5178  0.3037 -0.7781
18545TIP3    H277127   4.741   0.899   1.377 -0.3547 -0.1352  0.4109
18546TIP3   OH277128   1.556   6.181  15.278 -0.6412  0.2839  0.6345
18546TIP3    H177129   1.649   6.163  15.292 -1.3716 -2.5639  2.1980
18546TIP3    H277130   1.521   6.196  15.366 -2.0691 -0.8301  0.2710
18547TIP3   OH277131   6.092   3.798  16.615 -0.4381 -0.3744 -0.0020
18547TIP3    H177132   6.082   3.818  16.708  0.3696 -1.4905  0.3413
18547TIP3    H277133   6.025   3.732  16.597  0.6404 -1.5786  0.2715
18548TIP3   OH277134   6.176   6.804   0.236 -0.6069 -0.1093 -0.2255
18548TIP3    H177135   6.188   6.838   0.148 -0.7239 -1.3679 -0.7308
18548TIP3    H277136   6.251   6.838   0.285 -0.0004 -0.2470 -1.0587
18549TIP3   OH277137   1.222   3.690  13.873  0.0644 -0.1468  0.2613
18549TIP3    H177138   1.155   3.692  13.942  0.8426 -2.5787  1.1387
18549TIP3    H277139   1.173   3.704  13.792 -1.0868  1.1270  1.1555
18550TIP3   OH277140   5.881   3.427   5.662  0.3206  0.3639  0.7325
18550TIP3    H177141   5.849   3.490   5.727  0.1830  0.6505  0.3885
18550TIP3    H277142   5.889   3.478   5.581  0.8727  0.1048  0.6208
18551TIP3   OH277143   6.236   1.063  15.553  0.0373  0.0708 -0.4148
18551TIP3    H177144   6.173   1.014  15.499 -1.5784  2.6948 -0.9943
18551TIP3    H277145   6.205   1.052  15.642  1.4077 -2.3849 -0.1894
18552TIP3   OH277146   2.800   2.991   1.680 -0.1646  0.7032 -0.6610
18552TIP3    H177147   2.843   2.975   1.597  1.7293 -0.9390  0.5885
18552TIP3    H277148   2.848   3.063   1.720 -0.4397  0.8232 -0.5381
18553TIP3   OH277149   0.681   5.785   4.221 -0.0955 -0.1209 -0.1333
18553TIP3    H177150   0.752   5.786   4.157 -0.9030 -0.8793 -1.0407
18553TIP3    H277151   0.610   5.738   4.178 -0.7920 -0.2712  1.1645
18554TIP3   OH277152   4.194   5.757  14.820 -0.0749  0.0118 -0.0711
18554TIP3    H177153   4.227   5.846  14.832  0.6996 -0.1423 -1.0047
18554TIP3    H277154   4.109   5.769  14.777 -0.4456  0.3330  0.7353
18555TIP3   OH277155   2.733   0.569   2.086 -0.1431 -0.3676  0.2090
18555TIP3    H177156   2.653   0.603   2.126 -0.2308  0.3026 -0.5319
18555TIP3    H277157   2.713   0.564   1.993 -0.1713 -2.5934  0.3082
18556TIP3   OH277158   6.037   2.276  17.216 -0.6816  0.3427 -0.3911
18556TIP3    H177159   6.035   2.230  17.300  4.4569  0.3538 -0.1042
18556TIP3    H277160   6.043   2.206  17.150 -0.4546  0.4048 -0.4397
18557TIP3   OH277161   6.627   2.118   3.348  0.2700 -0.2912  0.1912
18557TIP3    H177162   6.616   2.025   3.366 -0.4807 -0.1305  0.6158
18557TIP3    H277163   6.548   2.142   3.300  0.1700  0.2547  0.6182
18558TIP3   OH277164   2.942   6.196   2.578  0.4245  0.7419  0.5399
18558TIP3    H177165   2.973   6.241   2.656  1.8560  1.3155 -0.3314
18558TIP3    H277166   2.952   6.260   2.508  2.0465 -0.7401 -0.6404
18559TIP3   OH277167   2.326   3.975   6.194  0.4140  0.1487  0.5513
18559TIP3    H177168   2.388   3.997   6.124  0.2187  0.7753  0.5761
18559TIP3    H277169   2.262   3.918   6.152  0.1124  0.7871  0.1297
18560TIP3   OH277170   2.444   3.335   5.519  0.2660  0.0849  0.6162
18560TIP3    H177171   2.500   3.267   5.557  0.9162 -0.9751 -2.1269
18560TIP3    H277172   2.361   3.291   5.503  0.3422  0.2232 -0.1604
18561TIP3   OH277173   4.243   2.089   4.015  0.0944  0.7850 -0.9222
18561TIP3    H177174   4.302   2.069   4.088 -0.4212  1.2615 -0.3782
18561TIP3    H277175   4.168   2.031   4.028  0.7199 -0.3013 -1.9844
18562TIP3   OH277176   1.594   0.178  12.445 -0.2855 -0.4965  0.1143
18562TIP3    H177177   1.629   0.099  12.404 -1.9730 -1.5545  0.6612
18562TIP3    H277178   1.639   0.184  12.529 -0.4908 -1.1606  0.2800
18563TIP3   OH277179   2.409   4.803   0.536  0.4286  0.0280  0.5455
18563TIP3    H177180   2.446   4.719   0.508 -0.9157 -0.4994  0.2946
18563TIP3    H277181   2.335   4.779   0.592 -0.6418  1.0464 -0.4243
18564TIP3   OH277182   0.893   1.515   4.066 -0.2106  0.0399 -0.1316
18564TIP3    H177183   0.931   1.560   3.990  1.8102 -1.9095 -0.3317
18564TIP3    H277184   0.908   1.575   4.139  1.1183  0.3685 -0.6592
18565TIP3   OH277185   2.882   6.810  12.416  0.1661 -0.2690  0.0068
18565TIP3    H177186   2.819   6.757  12.366 -1.0600  0.8469  0.3431
18565TIP3    H277187   2.850   6.807  12.506 -1.2903  2.9606 -0.3390
18566TIP3   OH277188   0.441   0.432  10.662 -0.1395  0.2839 -0.5572
18566TIP3    H177189   0.490   0.411  10.583 -0.4819 -0.0796 -0.6791
18566TIP3    H277190   0.350   0.413  10.639 -0.4629  1.8593 -0.6433
18567TIP3   OH277191   3.352   6.351  13.224 -0.2604  0.3306 -1.2162
18567TIP3    H177192   3.436   6.349  13.270 -0.0478 -0.8514 -1.6372
18567TIP3    H277193   3.372   6.322  13.136 -1.2883 -1.0117 -1.0225
18568TIP3   OH277194   3.763   5.958  11.947  0.0032 -0.0803  0.1740
18568TIP3    H177195   3.830   5.925  12.007  2.3924  0.0740 -2.3110
18568TIP3    H277196   3.730   6.037  11.990  2.0188  0.3119  1.0813
18569TIP3   OH277197   5.392   0.362   3.058  0.3757 -0.0218 -0.4223
18569TIP3    H177198   5.372   0.391   2.969 -0.2235 -0.6962 -0.5133
18569TIP3    H277199   5.382   0.267   3.055  1.0724 -0.1206  0.1860
18570TIP3   OH277200   6.211   4.356  15.840  0.4737 -0.1330  0.3417
18570TIP3    H177201   6.172   4.301  15.907  0.6537  1.1812  1.5394
18570TIP3    H277202   6.140   4.370  15.776 -0.6427  1.1232  1.8169
18571TIP3   OH277203   1.595   5.627   1.634 -0.2719  0.4822  0.1961
18571TIP3    H177204   1.655   5.634   1.559 -0.5889  1.7636  0.0409
18571TIP3    H277205   1.632   5.687   1.699 -0.5032  0.0661  0.7052
18572TIP3   OH277206   3.375   3.343  13.014  0.3828  0.5293 -0.5937
18572TIP3    H177207   3.463   3.308  12.999  0.7499  0.9510  0.4894
18572TIP3    H277208   3.370   3.420  12.957  1.2479  1.3225  0.3856
18573TIP3   OH277209   1.516   1.111   3.411 -0.4043 -0.9219 -0.1669
18573TIP3    H177210   1.516   1.186   3.470 -1.9497 -0.2003 -1.0640
18573TIP3    H277211   1.552   1.144   3.329  0.9796 -1.7197  0.1133
18574TIP3   OH277212   4.208   6.101  12.054 -0.6348 -0.3465  0.8676
18574TIP3    H177213   4.232   6.104  12.147  1.0266 -0.7304  0.4814
18574TIP3    H277214   4.185   6.191  12.032 -1.4442 -0.3338  1.7547
18575TIP3   OH277215   3.723   2.170   1.668  0.2261 -0.2334  0.5288
18575TIP3    H177216   3.660   2.099   1.651 -0.0089  0.0982 -0.0069
18575TIP3    H277217   3.804   2.140   1.629  0.6528 -1.0653  2.0202
18576TIP3   OH277218   5.562   1.015  11.381 -0.8403 -0.3950 -0.1907
18576TIP3    H177219   5.644   0.966  11.389 -0.0239  1.0051  0.2078
18576TIP3    H277220   5.585   1.092  11.329 -1.6237  0.6093  0.9231
18577TIP3   OH277221   1.924   1.503   1.687 -0.0389 -0.9420 -0.3772
18577TIP3    H177222   1.971   1.581   1.659  1.0464 -1.9450 -1.4587
18577TIP3    H277223   1.904   1.457   1.605 -0.1697 -2.0724  0.2789
18578TIP3   OH277224   5.974   2.844   3.824  0.2655  0.7611 -0.9893
18578TIP3    H177225   5.929   2.777   3.773  1.1574 -0.4406 -0.2187
18578TIP3    H277226   5.904   2.898   3.860 -0.4121  0.9583 -2.5681
18579TIP3   OH277227   2.819   1.518   4.750  0.2132 -0.7299 -0.5609
18579TIP3    H177228   2.819   1.590   4.813  0.4310  0.1078 -1.5101
18579TIP3    H277229   2.726   1.502   4.732  0.1915 -0.2479 -0.8614
18580TIP3   OH277230   1.392   0.839   4.964  0.4924  0.1128  0.4599
18580TIP3    H177231   1.360   0.859   5.052  0.6048  2.4387 -0.0170
18580TIP3    H277232   1.316   0.852   4.908  0.7381 -0.2034  0.0522
18581TIP3   OH277233   3.169   5.234  16.825  0.1301 -0.7097 -0.4209
18581TIP3    H177234   3.229   5.244  16.899 -1.3217 -1.4818  0.8997
18581TIP3    H277235   3.143   5.142  16.827  0.2266 -0.7878 -2.0265
18582TIP3   OH277236   5.569   0.162  12.365 -0.2087  0.4476 -0.0202
18582TIP3    H177237   5.589   0.251  12.337 -2.0068  0.5642 -1.0086
18582TIP3    H277238   5.545   0.116  12.284 -0.2717 -0.6588  0.6092
18583TIP3   OH277239   2.479   6.661   0.853 -0.0596 -0.6246  0.3814
18583TIP3    H177240   2.520   6.576   0.833 -0.5350 -0.9141  0.6422
18583TIP3    H277241   2.480   6.707   0.769  1.4055 -0.3636  0.5178
18584TIP3   OH277242   0.203   0.405   1.813  0.0353 -0.1450 -0.0378
18584TIP3    H177243   0.294   0.424   1.789  0.5734 -1.2824  1.0214
18584TIP3    H277244   0.173   0.343   1.747 -0.0772  0.4902 -0.5816
18585TIP3   OH277245   4.368   5.444  11.746  0.0371  0.2653  0.3301
18585TIP3    H177246   4.453   5.412  11.715  1.1022  2.8630  0.3900
18585TIP3    H277247   4.323   5.471  11.666 -1.5845 -2.9048  0.0967
18586TIP3   OH277248   6.309   3.403   0.105  0.2735  0.3517  0.3729
18586TIP3    H177249   6.277   3.490   0.084 -2.2327  0.4675  4.2520
18586TIP3    H277250   6.397   3.418   0.141  0.8377  0.9884 -1.2281
18587TIP3   OH277251   3.110   6.630  12.690  0.7778 -0.1740 -0.7343
18587TIP3    H177252   3.146   6.576  12.620  0.4360 -0.9008 -0.3521
18587TIP3    H277253   3.104   6.572  12.765  1.3668  0.6703 -0.0246
18588TIP3   OH277254   0.825   1.864   5.661 -0.7346 -0.2463 -0.0568
18588TIP3    H177255   0.891   1.832   5.599 -0.6481  0.6851 -0.4509
18588TIP3    H277256   0.852   1.827   5.745  0.1659 -0.0639 -0.2563
18589TIP3   OH277257   3.308   0.230  11.684  0.0335 -0.5132  0.0612
18589TIP3    H177258   3.329   0.268  11.598 -1.7415 -0.6440 -0.4600
18589TIP3    H277259   3.214   0.248  11.696  0.2816 -0.4194  2.0225
18590TIP3   OH277260   2.540   3.408   1.174  0.4298 -0.0467  0.2751
18590TIP3    H177261   2.531   3.321   1.137  0.1376  0.0740  0.0586
18590TIP3    H277262   2.632   3.430   1.162  0.5988 -0.4964  0.7201
18591TIP3   OH277263   6.308   5.206   6.209 -0.0495  0.4518 -0.0142
18591TIP3    H177264   6.328   5.165   6.125  2.2049  0.3428  0.5367
18591TIP3    H277265   6.229   5.161   6.239  0.5676 -1.2862 -0.9026
18592TIP3   OH277266   3.899   3.765  10.902  0.3734 -0.4160 -0.3432
18592TIP3    H177267   3.929   3.771  10.993 -1.1435  1.8987  0.0419
18592TIP3    H277268   3.838   3.691  10.902 -1.6323  1.1973  1.1365
18593TIP3   OH277269   1.516   2.913   2.948 -1.0210 -0.3537 -0.4005
18593TIP3    H177270   1.576   2.896   2.876 -1.0565  0.9272 -0.7562
18593TIP3    H277271   1.452   2.842   2.945  0.5431 -1.8038  0.0762
18594TIP3   OH277272   6.362   0.526   1.561 -0.1680 -0.5962  0.0191
18594TIP3    H177273   6.277   0.534   1.604  0.0479 -0.0576  0.3488
18594TIP3    H277274   6.345   0.470   1.485 -1.5511  2.2078 -1.8481
18595TIP3   OH277275   1.612   1.528   1.568  0.3012 -0.2415  0.4266
18595TIP3    H177276   1.615   1.537   1.664  0.2817 -0.0039  0.4066
18595TIP3    H277277   1.544   1.590   1.541  0.8039  0.2184  0.1991
18596TIP3   OH277278   0.866   3.448   6.168 -0.6879 -0.2166  0.2435
18596TIP3    H177279   0.884   3.356   6.184 -0.5747 -0.3549 -0.6651
18596TIP3    H277280   0.770   3.454   6.167 -0.6949 -0.2880  0.5157
18597TIP3   OH277281   1.169   0.195  10.550  0.1031  0.1025 -0.4724
18597TIP3    H177282   1.222   0.170  10.625 -1.4285 -3.4113 -0.4315
18597TIP3    H277283   1.158   0.290  10.557  1.8908  0.1263  2.4254
18598TIP3   OH277284   0.272   5.234  17.141 -0.0975  0.1920 -0.2605
18598TIP3    H177285   0.253   5.140  17.142  0.9925 -0.0432 -0.8622
18598TIP3    H277286   0.265   5.260  17.233  2.1202 -1.0151  0.3063
18599TIP3   OH277287   5.201   1.098   1.806  0.0169 -0.5687 -0.0635
18599TIP3    H177288   5.109   1.104   1.833  0.6613 -0.5813  2.2711
18599TIP3    H277289   5.249   1.080   1.887  2.5608  3.8714 -0.3887
18600TIP3   OH277290   2.295   0.462  14.654 -0.3009  0.2904  0.1032
18600TIP3    H177291   2.285   0.527  14.723  1.8266 -0.4226  1.1239
18600TIP3    H277292   2.240   0.389  14.683 -0.6050  0.5890  0.2850
18601TIP3   OH277293   5.067   2.634  12.765 -0.2052 -0.2110  0.5136
18601TIP3    H177294   5.067   2.542  12.738  1.3452 -0.2952  0.7516
18601TIP3    H277295   5.088   2.682  12.685  1.2368 -0.2313  0.8766
18602TIP3   OH277296   1.261   3.884   0.630 -0.1940  0.5340 -0.6981
18602TIP3    H177297   1.311   3.965   0.621  0.5810  0.3624  1.8520
18602TIP3    H277298   1.264   3.864   0.723 -3.4625 -0.4748 -0.7462
18603TIP3   OH277299   6.485   4.949  10.858  0.2051 -0.5123  0.2606
18603TIP3    H177300   6.549   4.973  10.791 -1.8375  1.3099 -1.1152
18603TIP3    H277301   6.536   4.937  10.938  2.2735  0.6968 -0.8591
18604TIP3   OH277302   1.972   3.331   4.242 -0.4208  0.0446  0.6156
18604TIP3    H177303   1.893   3.279   4.257 -0.3160 -0.3921 -0.3121
18604TIP3    H277304   2.044   3.268   4.253 -0.2843  0.0320 -0.3268
18605TIP3   OH277305   2.592   0.253   3.394 -0.1047 -0.0032 -0.2663
18605TIP3    H177306   2.611   0.254   3.488  0.8076  1.4953 -0.4560
18605TIP3    H277307   2.675   0.278   3.353 -0.9818  1.0909 -1.3784
18606TIP3   OH277308   1.266   4.627   3.484 -0.1077 -0.7877  0.5513
18606TIP3    H177309   1.222   4.543   3.468 -0.5894 -0.1058 -1.9523
18606TIP3    H277310   1.204   4.693   3.453  1.0472  0.3945  0.7020
18607TIP3   OH277311   3.206   6.555   1.316 -0.3459  0.0209  0.1272
18607TIP3    H177312   3.134   6.556   1.253 -0.5850  0.7536  0.4003
18607TIP3    H277313   3.190   6.478   1.370 -1.7395  0.9660  1.0964
18608TIP3   OH277314   1.274   1.381  10.718  0.3829 -0.8570 -0.1843
18608TIP3    H177315   1.357   1.335  10.733  0.3597 -0.9949 -0.4605
18608TIP3    H277316   1.210   1.331  10.768  0.7637  0.2939  1.4858
18609TIP3   OH277317   2.368   4.510  10.619  0.6487 -0.3883 -0.2688
18609TIP3    H177318   2.462   4.498  10.606  0.4254 -1.3451 -1.1345
18609TIP3    H277319   2.334   4.421  10.632 -0.1667 -0.0726 -0.1851
18610TIP3   OH277320   5.337   1.227  12.677 -0.0167  0.0688 -0.0258
18610TIP3    H177321   5.359   1.209  12.769 -0.0939  1.2192  0.2188
18610TIP3    H277322   5.392   1.166  12.628 -2.0255 -2.5788  0.8603
18611TIP3   OH277323   0.801   4.867   3.723 -0.6665  0.3421  0.6158
18611TIP3    H177324   0.792   4.860   3.628  1.3398  0.6225  0.3906
18611TIP3    H277325   0.740   4.936   3.748 -0.7928  0.6474 -0.5320
18612TIP3   OH277326   2.010   3.038  14.506  0.1490  0.7297  0.0749
18612TIP3    H177327   2.036   2.994  14.587 -0.2911  0.4058  0.0420
18612TIP3    H277328   2.092   3.046  14.456  0.4359  1.0188  0.5879
18613TIP3   OH277329   4.032   5.129   2.160  0.3504 -0.3763 -0.0729
18613TIP3    H177330   3.940   5.134   2.185  0.5194 -0.7480  0.6483
18613TIP3    H277331   4.063   5.046   2.196  1.0268 -0.1465 -0.0971
18614TIP3   OH277332   2.672   5.684  15.251  0.0642 -0.3229  0.0045
18614TIP3    H177333   2.734   5.682  15.177  0.4309 -2.4622  0.3318
18614TIP3    H277334   2.586   5.687  15.210  0.3263  0.4979 -0.4895
18615TIP3   OH277335   5.751   2.305   4.594  0.1484 -0.3540 -0.1826
18615TIP3    H177336   5.834   2.264   4.569 -0.3543 -1.3375 -0.2742
18615TIP3    H277337   5.749   2.387   4.545  1.1688 -0.2158 -0.0012
18616TIP3   OH277338   2.603   5.755  16.497 -0.0900 -0.3599  0.2361
18616TIP3    H177339   2.624   5.722  16.410  1.0091 -0.7603  0.6453
18616TIP3    H277340   2.507   5.750  16.502 -0.1159 -0.9360 -0.7095
18617TIP3   OH277341   5.409   6.310  14.545  0.3160  0.5094  0.3613
18617TIP3    H177342   5.423   6.356  14.462 -0.8157  3.8979  1.9313
18617TIP3    H277343   5.315   6.318  14.561  0.1091 -2.3298  0.7929
18618TIP3   OH277344   4.996   2.511  14.551 -0.1071  0.2459  0.6296
18618TIP3    H177345   5.019   2.437  14.494  1.8127  1.3517 -0.0982
18618TIP3    H277346   4.918   2.482  14.598  0.3669 -2.0719  0.0527
18619TIP3   OH277347   3.637   5.481  13.962  0.0655  0.0163 -0.0190
18619TIP3    H177348   3.702   5.463  14.030 -2.2625  0.5850  2.3953
18619TIP3    H277349   3.650   5.411  13.898  1.3630 -1.3335  1.6723
18620TIP3   OH277350   2.950   1.168   3.830 -0.4836  0.4462 -0.3106
18620TIP3    H177351   2.942   1.210   3.744 -0.9648 -0.3216 -0.6451
18620TIP3    H277352   3.043   1.178   3.852 -0.0313 -0.7023 -1.6233
18621TIP3   OH277353   3.336   5.374   0.073  0.0741 -0.7572  0.2389
18621TIP3    H177354   3.298   5.458   0.047  1.2003 -0.7038 -1.3180
18621TIP3    H277355   3.261   5.322   0.101 -0.8042  0.3079 -0.0933
18622TIP3   OH277356   5.548   4.544  13.499  0.2792  0.2196  0.0172
18622TIP3    H177357   5.540   4.639  13.493  1.8557  0.1953 -4.1945
18622TIP3    H277358   5.636   4.530  13.533  0.2427  0.2157  0.1140
18623TIP3   OH277359   0.085   6.083   4.788  0.3708  0.4648  0.2750
18623TIP3    H177360   0.076   6.030   4.708 -0.4373  0.3518  0.4438
18623TIP3    H277361   0.046   6.029   4.857 -0.3816  1.2549  0.4665
18624TIP3   OH277362   6.079   6.584   2.488 -0.0672  0.0354 -0.0496
18624TIP3    H177363   6.151   6.587   2.425  1.2743  1.4470  1.5158
18624TIP3    H277364   6.111   6.528   2.559  0.1739  1.9743  1.4266
18625TIP3   OH277365   5.345   6.019   4.579 -0.2837  0.0577 -0.7366
18625TIP3    H177366   5.378   6.080   4.514 -1.1781 -0.3238 -1.5804
18625TIP3    H277367   5.383   6.047   4.662  0.2062  1.0604 -1.2999
18626TIP3   OH277368   4.832   0.112   2.111  0.0137  0.6063 -1.0581
18626TIP3    H177369   4.751   0.158   2.088 -1.1864 -0.9871 -0.2123
18626TIP3    H277370   4.873   0.167   2.178 -2.5923 -0.5971  1.6824
18627TIP3   OH277371   4.706   0.825  14.993  0.9784  0.2527  0.1648
18627TIP3    H177372   4.631   0.852  15.046 -0.4121 -2.0105 -0.6068
18627TIP3    H277373   4.704   0.882  14.916 -1.1213 -1.1147 -0.8040
18628TIP3   OH277374   0.385   4.851  16.633 -0.1170  0.7326  0.1089
18628TIP3    H177375   0.443   4.778  16.653 -0.6958  0.0987 -0.5324
18628TIP3    H277376   0.439   4.929  16.649  0.8082  0.1592 -0.1705
18629TIP3   OH277377   6.614   0.357   5.910 -0.4010 -1.1632 -0.3633
18629TIP3    H177378   6.673   0.301   5.960 -0.6935 -0.0212  1.2816
18629TIP3    H277379   6.551   0.296   5.872  0.8075 -2.2086 -0.7204
18630TIP3   OH277380   4.983   4.324  10.695 -0.0140 -0.2428  0.3327
18630TIP3    H177381   5.002   4.234  10.721 -0.9739 -0.6065 -0.1747
18630TIP3    H277382   5.061   4.353  10.648 -0.0696 -1.1549 -0.3435
18631TIP3   OH277383   2.501   0.355   1.380 -0.1982 -0.0902  0.2124
18631TIP3    H177384   2.453   0.428   1.340 -1.3523 -0.8790  0.1585
18631TIP3    H277385   2.527   0.387   1.466 -0.5364  0.4444  0.1146
18632TIP3   OH277386   5.043   5.615   0.703  0.2457  0.5804  0.1193
18632TIP3    H177387   5.114   5.636   0.642 -0.0728  0.5618 -0.2598
18632TIP3    H277388   4.964   5.612   0.648 -0.0195  0.4146  0.5076
18633TIP3   OH277389   1.229   6.365  17.016 -0.1199 -0.4880 -0.0613
18633TIP3    H177390   1.286   6.396  16.945 -0.5452 -0.5412 -0.4251
18633TIP3    H277391   1.290   6.340  17.085  0.2589  0.4151 -0.0603
18634TIP3   OH277392   5.868   4.360  16.323 -0.2703 -0.1246  0.6884
18634TIP3    H177393   5.824   4.300  16.263  1.1490 -1.1515  0.6378
18634TIP3    H277394   5.899   4.431  16.267  0.4057 -0.7138  0.2987
18635TIP3   OH277395   0.219   2.016  14.447 -0.5610  0.0638 -0.1299
18635TIP3    H177396   0.175   2.075  14.386  0.3355  1.5039  0.5957
18635TIP3    H277397   0.312   2.027  14.429 -0.2719  0.8062  1.7514
18636TIP3   OH277398   0.809   4.805  13.690  0.1997  0.5103  0.4699
18636TIP3    H177399   0.729   4.853  13.666  0.8215  1.1676 -0.3066
18636TIP3    H277400   0.859   4.800  13.609  0.5750 -0.6439  0.7626
18637TIP3   OH277401   0.164   3.256   3.694  0.5588 -0.2414  0.3520
18637TIP3    H177402   0.157   3.292   3.783 -0.3955 -0.3935  0.3412
18637TIP3    H277403   0.170   3.333   3.638  3.1704 -0.1484  0.6868
18638TIP3   OH277404   5.726   3.919   3.648 -0.2984  0.1183 -0.6271
18638TIP3    H177405   5.776   3.846   3.614 -3.6120 -1.5677 -2.0946
18638TIP3    H277406   5.750   3.993   3.592  1.6761 -0.2655 -0.3068
18639TIP3   OH277407   0.293   3.048  11.314  0.0452 -0.3303 -0.8999
18639TIP3    H177408   0.261   2.958  11.309  1.0715 -0.6784 -1.3072
18639TIP3    H277409   0.314   3.061  11.407  0.8604 -0.8565 -1.0072
18640TIP3   OH277410   2.035   1.313   3.299 -0.5832  0.4474  0.1399
18640TIP3    H177411   2.111   1.370   3.300 -0.4112  0.2168  0.0772
18640TIP3    H277412   2.058   1.242   3.240 -0.9145  0.4721 -0.0209
18641TIP3   OH277413   6.592   3.261   0.644 -0.4299 -0.4355 -0.3605
18641TIP3    H177414   6.529   3.223   0.583  0.3649 -1.3563 -0.6322
18641TIP3    H277415   6.592   3.355   0.625  0.2303 -0.7863 -2.1925
18642TIP3   OH277416   1.473   6.774   2.221 -0.4967  0.1610 -0.4665
18642TIP3    H177417   1.454   6.692   2.175  2.1675 -0.7378 -0.0072
18642TIP3    H277418   1.517   6.828   2.156 -1.2731  0.8268 -0.4427
18643TIP3   OH277419   3.730   1.484  11.630  0.2477  0.2222  0.1390
18643TIP3    H177420   3.731   1.574  11.663  0.1060  0.0359  0.6509
18643TIP3    H277421   3.808   1.478  11.575 -1.1347  1.4637 -2.0746
18644TIP3   OH277422   4.265   2.704  13.322 -0.0535  0.3549  0.0390
18644TIP3    H177423   4.223   2.666  13.400 -1.2214  2.0591  0.2809
18644TIP3    H277424   4.288   2.629  13.268  0.1156 -0.8250  1.6971
18645TIP3   OH277425   4.293   5.996  15.929 -0.2512 -0.4464  1.3550
18645TIP3    H177426   4.360   5.960  15.986 -1.4216 -4.4761  0.3336
18645TIP3    H277427   4.210   5.964  15.964 -1.1388 -1.2808 -1.3287
18646TIP3   OH277428   1.492   4.989   1.582 -0.1734 -0.1217  0.2833
18646TIP3    H177429   1.584   4.964   1.593 -0.1325  0.1769  0.6703
18646TIP3    H277430   1.491   5.041   1.501  0.0144 -0.0664  0.3152
18647TIP3   OH277431   3.283   4.878  11.382 -0.0784  0.5671  0.4970
18647TIP3    H177432   3.221   4.867  11.454  0.1087  2.3880  0.9744
18647TIP3    H277433   3.305   4.789  11.354 -1.0798 -0.1267  1.8981
18648TIP3   OH277434   1.252   0.991  12.832  0.1228 -0.2176  0.4460
18648TIP3    H177435   1.303   0.963  12.908 -0.0634 -1.2402  0.2032
18648TIP3    H277436   1.261   0.919  12.769 -1.1888 -0.1865  0.1989
18649TIP3   OH277437   4.196   4.449  11.384 -0.1936 -0.6321  0.2194
18649TIP3    H177438   4.193   4.377  11.320 -1.0083 -1.1780  0.8763
18649TIP3    H277439   4.225   4.408  11.465 -0.3589 -0.1507  0.5222
18650TIP3   OH277440   4.175   6.596  11.902 -0.0890  0.4372  0.0959
18650TIP3    H177441   4.253   6.649  11.890  0.7611 -1.0590 -1.0740
18650TIP3    H277442   4.130   6.597  11.817  0.0740 -0.9064 -0.0271
18651TIP3   OH277443   6.681   0.042  15.398 -0.0687 -0.3249  0.3381
18651TIP3    H177444   6.609   0.103  15.411  1.0595  0.9251  0.8017
18651TIP3    H277445   6.682  -0.011  15.478  0.4453  0.6355  0.9794
18652TIP3   OH277446   6.135   6.028  12.625  0.0696 -0.6271  0.0468
18652TIP3    H177447   6.172   5.958  12.571 -2.7704 -0.9037 -1.6732
18652TIP3    H277448   6.153   6.108  12.576 -0.6781 -0.6584 -0.2893
18653TIP3   OH277449   3.343   2.084   2.696 -0.1155  0.3950  0.0139
18653TIP3    H177450   3.314   2.043   2.615  0.7981 -1.3573  0.5397
18653TIP3    H277451   3.351   2.177   2.675 -2.3729  0.3609 -1.1796
18654TIP3   OH277452   1.204   3.383   4.881 -0.1379  0.6206  0.2219
18654TIP3    H177453   1.276   3.435   4.844  0.4463  2.0057  3.1627
18654TIP3    H277454   1.238   3.294   4.885  0.3897  0.7560 -0.9758
18655TIP3   OH277455   1.102   2.748  12.048  0.1890 -0.2899  0.2638
18655TIP3    H177456   1.120   2.656  12.067  0.8801 -0.2432 -0.1595
18655TIP3    H277457   1.135   2.796  12.125 -0.2872 -0.4044  0.5401
18656TIP3   OH277458   5.623   1.653  11.660  0.0798  0.3603  0.0346
18656TIP3    H177459   5.688   1.623  11.596 -0.6245  3.0895 -2.0553
18656TIP3    H277460   5.675   1.694  11.729  0.6746  1.5636 -1.1004
18657TIP3   OH277461   2.339   2.079  12.894  0.1437 -0.2042  0.0562
18657TIP3    H177462   2.370   2.125  12.972 -1.6137 -0.9900  1.2714
18657TIP3    H277463   2.286   2.143  12.848 -2.9995 -1.1020  2.1805
18658TIP3   OH277464   5.281   1.194   2.265  0.3563  0.1763 -0.0598
18658TIP3    H177465   5.302   1.111   2.223 -0.0586  0.1015 -0.1215
18658TIP3    H277466   5.189   1.209   2.245  0.4623  0.7173 -0.1594
18659TIP3   OH277467   2.106   3.673   4.796 -0.6651  0.5123  0.2751
18659TIP3    H177468   2.018   3.640   4.814 -0.5800  1.1160  1.8967
18659TIP3    H277469   2.093   3.757   4.753 -0.8808  0.3650  0.0547
18660TIP3   OH277470   1.784   5.925  12.900  0.5156 -0.0294 -0.4678
18660TIP3    H177471   1.784   5.866  12.825  0.0658  0.3251 -0.7510
18660TIP3    H277472   1.714   5.988  12.881  0.4775  0.1299  0.1928
18661TIP3   OH277473   0.136   5.952  12.029  0.0002  0.5134 -0.1706
18661TIP3    H177474   0.132   5.856  12.028  1.1829  0.4536 -0.9548
18661TIP3    H277475   0.186   5.974  11.951  2.1550  1.6256  1.4679
18662TIP3   OH277476   1.448   1.830   6.538 -0.2626  0.3215 -0.2183
18662TIP3    H177477   1.431   1.895   6.606 -1.1248  0.2702 -0.3712
18662TIP3    H277478   1.424   1.873   6.457 -2.2295 -0.6417 -0.1914
18663TIP3   OH277479   6.813   1.388   2.134  0.3840 -0.1466 -0.2134
18663TIP3    H177480   6.801   1.483   2.141  1.6858 -0.0112  0.3768
18663TIP3    H277481   6.730   1.351   2.165 -0.1389  0.7946 -0.4627
18664TIP3   OH277482   1.526   3.476   3.089  0.1465  0.0473  0.3826
18664TIP3    H177483   1.575   3.485   3.171  0.6111  2.3996 -0.1093
18664TIP3    H277484   1.451   3.534   3.100  0.2222  0.3828 -0.8745
18665TIP3   OH277485   4.666   5.327  12.065  0.2512  0.7288  0.7477
18665TIP3    H177486   4.695   5.392  12.001 -0.2758  0.8878  0.6667
18665TIP3    H277487   4.722   5.342  12.141  1.1505  0.2684  0.1814
18666TIP3   OH277488   4.181   3.262   4.903  0.8841 -0.0010  0.0128
18666TIP3    H177489   4.169   3.284   4.995 -0.5414  0.9228 -0.3764
18666TIP3    H277490   4.144   3.336   4.855 -0.3019 -1.4056 -1.3183
18667TIP3   OH277491   4.401   4.838  12.618  0.3615 -0.0116  0.3229
18667TIP3    H177492   4.450   4.768  12.576 -0.7644 -0.3924 -0.3711
18667TIP3    H277493   4.424   4.917  12.568 -0.1538 -0.2833 -0.3456
18668TIP3   OH277494   1.607   0.413   1.880 -0.0179  0.1764  0.0144
18668TIP3    H177495   1.575   0.324   1.869 -1.4053  0.7845 -1.1033
18668TIP3    H277496   1.545   0.454   1.941  0.6428  0.3723  0.5683
18669TIP3   OH277497   6.741   4.218  10.886 -0.0514 -0.0768 -0.0568
18669TIP3    H177498   6.732   4.205  10.981 -1.0351 -1.5008 -0.3259
18669TIP3    H277499   6.689   4.296  10.867 -0.5787 -0.2955  0.4641
18670TIP3   OH277500   4.687   4.615   2.945 -0.5896 -0.3308 -0.3944
18670TIP3    H177501   4.765   4.561   2.937  0.0945  0.4366  0.9529
18670TIP3    H277502   4.684   4.665   2.863 -0.2228 -1.0787 -0.8663
18671TIP3   OH277503   5.043   2.023  11.923  0.7153  0.4833  0.1877
18671TIP3    H177504   5.052   1.965  11.998  1.4992  0.6085  0.1916
18671TIP3    H277505   5.103   2.095  11.940  1.7640 -0.0687 -1.0967
18672TIP3   OH277506   0.054   6.166  14.934 -0.3804  0.0424 -0.1857
18672TIP3    H177507   0.048   6.258  14.958 -0.1102 -0.1009  0.4399
18672TIP3    H277508   0.131   6.133  14.982 -0.7733 -0.6279 -0.0049
18673TIP3   OH277509   2.174   6.037   5.115  0.5940 -0.6653 -0.4471
18673TIP3    H177510   2.084   6.018   5.088  1.0212 -2.4227 -0.7279
18673TIP3    H277511   2.228   6.011   5.040  1.2792  1.4976 -0.7527
18674TIP3   OH277512   5.722   1.021   2.499  1.2551 -0.4668  0.3823
18674TIP3    H177513   5.788   1.035   2.566  0.8401  0.4266  0.6133
18674TIP3    H277514   5.703   1.108   2.465  1.4909 -0.9061 -0.9360
18675TIP3   OH277515   4.875   3.242   1.199 -0.8205 -0.4068  0.3991
18675TIP3    H177516   4.806   3.203   1.145 -0.2193  0.1956 -0.8277
18675TIP3    H277517   4.956   3.223   1.151 -0.1866 -0.6854  1.5808
18676TIP3   OH277518   2.305   6.089  12.580  0.3533  0.7084 -0.4326
18676TIP3    H177519   2.312   6.184  12.573 -1.4508  0.8779 -0.2611
18676TIP3    H277520   2.375   6.055  12.525 -1.3294  2.1188 -3.5836
18677TIP3   OH277521   0.133   2.639   0.710  0.3616 -0.0118 -0.3380
18677TIP3    H177522   0.113   2.708   0.773  1.9111 -1.6530  1.9920
18677TIP3    H277523   0.117   2.557   0.757  1.4145 -1.2757 -2.1110
18678TIP3   OH277524   0.379   3.392  10.896 -0.5155 -0.4274 -0.3416
18678TIP3    H177525   0.469   3.422  10.904 -0.5361 -0.6672  0.8985
18678TIP3    H277526   0.329   3.472  10.879 -0.3395  0.0176  1.1608
18679TIP3   OH277527   5.203   0.353   2.676  0.0274 -0.0764  0.0748
18679TIP3    H177528   5.139   0.408   2.630  1.4489  1.4821 -0.1072
18679TIP3    H277529   5.271   0.414   2.705  1.5861 -1.7277  0.0126
18680TIP3   OH277530   2.301   4.047  15.721  0.0318 -0.5339  0.6991
18680TIP3    H177531   2.285   4.000  15.640 -1.2569 -0.6536  1.0200
18680TIP3    H277532   2.330   4.134  15.693 -1.7693 -0.1121  0.1094
18681TIP3   OH277533   5.567   4.525   1.351 -0.1802  0.8537 -0.1898
18681TIP3    H177534   5.575   4.618   1.330  1.1504  1.2172  1.7597
18681TIP3    H277535   5.647   4.505   1.400  0.1951 -1.6505 -1.7275
18682TIP3   OH277536   3.436   5.735  11.188 -0.5525  0.1551  0.0633
18682TIP3    H177537   3.454   5.712  11.279  0.2915  0.0130 -0.1351
18682TIP3    H277538   3.446   5.830  11.184  0.0225  0.0930 -0.0126
18683TIP3   OH277539   2.311   1.715  15.330 -0.6708  0.4999  0.7189
18683TIP3    H177540   2.241   1.713  15.265 -1.0061 -0.7881  1.0927
18683TIP3    H277541   2.307   1.628  15.371  3.0068 -0.6641 -1.2137
18684TIP3   OH277542   6.072   4.718  15.139  0.3782  0.2374  0.3636
18684TIP3    H177543   6.062   4.685  15.228  1.7727  1.1618  0.8856
18684TIP3    H277544   5.982   4.726  15.106 -0.0365 -2.8152  0.6469
18685TIP3   OH277545   6.664   6.535  11.890 -0.0199 -0.2607 -0.0938
18685TIP3    H177546   6.574   6.507  11.908 -0.0410 -0.7097 -0.8801
18685TIP3    H277547   6.656   6.628  11.868 -0.0252  0.2432  1.8861
18686TIP3   OH277548   5.042   1.770   0.661  0.0885 -0.3726  0.3379
18686TIP3    H177549   5.111   1.819   0.706  0.3094 -1.0915  0.7820
18686TIP3    H277550   5.089   1.708   0.606 -0.1443  1.2597 -1.7854
18687TIP3   OH277551   3.627   4.117  17.088 -0.4772 -0.0079 -0.2578
18687TIP3    H177552   3.576   4.135  17.167  0.1188 -2.1594  0.6471
18687TIP3    H277553   3.611   4.193  17.032 -2.9891  0.3356  0.8514
18688TIP3   OH277554   1.223   3.290  12.831  0.3711 -0.3340  0.0700
18688TIP3    H177555   1.213   3.286  12.736  2.0934 -0.8220 -0.1176
18688TIP3    H277556   1.251   3.380  12.849  1.7896 -0.7340 -0.0859
18689TIP3   OH277557   4.232   4.300   2.389 -0.1020 -0.0390 -0.2774
18689TIP3    H177558   4.316   4.263   2.414  1.4349  2.8904 -0.8729
18689TIP3    H277559   4.210   4.361   2.459 -2.1033 -1.2470  0.2067
18690TIP3   OH277560   6.081   1.099   4.746  0.2934 -0.1234 -0.2091
18690TIP3    H177561   6.092   1.138   4.660  1.1791 -0.4539 -0.2496
18690TIP3    H277562   5.993   1.126   4.774  0.4151  0.8503 -0.7609
18691TIP3   OH277563   1.572   3.157   0.703 -0.6507 -0.8657 -0.0854
18691TIP3    H177564   1.548   3.091   0.638 -2.9203  0.2789 -0.4550
18691TIP3    H277565   1.566   3.240   0.657 -0.7727 -0.1589  1.1778
18692TIP3   OH277566   0.354   6.611  10.496  0.4611 -0.3503  0.0744
18692TIP3    H177567   0.286   6.678  10.508  0.3947 -0.5031  0.5483
18692TIP3    H277568   0.311   6.529  10.518  0.7021 -0.4898  0.0264
18693TIP3   OH277569   0.735   1.936   1.181  0.2099 -0.9370 -0.3008
18693TIP3    H177570   0.745   2.020   1.224 -3.9770  0.2656 -1.4404
18693TIP3    H277571   0.773   1.873   1.242  1.1083  1.4902  1.7253
18694TIP3   OH277572   0.062   3.538  12.822 -0.4276 -0.8723 -0.2418
18694TIP3    H177573   0.150   3.514  12.851 -0.9999 -1.2693  1.2349
18694TIP3    H277574   0.032   3.464  12.769  0.7008 -0.0623 -2.0564
18695TIP3   OH277575   1.090   5.416  15.128  0.9789  0.1993  0.1514
18695TIP3    H177576   1.139   5.392  15.050  0.8640  0.3301  0.0383
18695TIP3    H277577   1.017   5.353  15.130  0.9048  0.2823  0.0772
18696TIP3   OH277578   3.749   0.187  11.868 -0.3405 -0.0329  0.3946
18696TIP3    H177579   3.716   0.274  11.843 -0.2110  0.3897  1.6759
18696TIP3    H277580   3.826   0.205  11.921  0.3194 -0.9678 -0.2332
18697TIP3   OH277581   1.893   6.327   0.472  0.5908 -0.1341  0.3034
18697TIP3    H177582   1.953   6.329   0.398  0.4339  1.5693  0.2036
18697TIP3    H277583   1.915   6.406   0.522 -2.3721  1.1846 -0.3833
18698TIP3   OH277584   2.888   1.901   4.706 -0.0020 -0.2968  0.8418
18698TIP3    H177585   2.863   1.975   4.762 -0.9485 -0.2753  0.4064
18698TIP3    H277586   2.880   1.824   4.762  1.0306 -0.0662  1.3084
18699TIP3   OH277587   0.693   0.995   3.642  0.1314 -0.1926  0.3426
18699TIP3    H177588   0.625   1.054   3.610  0.6906  0.5478  0.5060
18699TIP3    H277589   0.765   1.004   3.580  0.8601  0.5524  1.2768
18700TIP3   OH277590   6.131   1.366  12.323 -0.0233 -0.1284  0.3658
18700TIP3    H177591   6.086   1.282  12.312  2.6361 -1.6377  0.7604
18700TIP3    H277592   6.183   1.376  12.243  2.3144 -0.5242  1.8056
18701TIP3   OH277593   0.430   2.368  12.198 -0.8245 -0.0633  0.1554
18701TIP3    H177594   0.357   2.322  12.240 -1.0348  0.3729  0.2653
18701TIP3    H277595   0.442   2.447  12.250 -1.4921  0.7910 -0.9790
18702TIP3   OH277596   5.167   2.491   3.081  0.5789  0.4103 -0.3566
18702TIP3    H177597   5.204   2.422   3.026  0.4214  0.1378 -0.1268
18702TIP3    H277598   5.188   2.463   3.171  0.3695  0.5787 -0.2548
18703TIP3   OH277599   5.034   2.261  14.726 -0.5947 -0.2728  0.0912
18703TIP3    H177600   4.960   2.293  14.674  0.5558  0.7765 -0.9506
18703TIP3    H277601   5.099   2.237  14.660  0.1911 -0.6995  1.0218
18704TIP3   OH277602   4.549   6.213   2.024 -1.4412 -0.5304 -0.1980
18704TIP3    H177603   4.551   6.136   2.081 -0.5795 -0.0012  0.4963
18704TIP3    H277604   4.459   6.217   1.993 -2.1496 -0.3675  1.7784
18705TIP3   OH277605   0.711   5.468   6.734  0.1838 -0.5580 -1.1593
18705TIP3    H177606   0.645   5.403   6.709 -0.2675 -0.7729  0.5329
18705TIP3    H277607   0.669   5.552   6.715 -2.0484 -0.5636  3.1523
18706TIP3   OH277608   0.839   3.366  15.289  0.2321  0.0649  0.4235
18706TIP3    H177609   0.839   3.323  15.204 -0.8570  0.0379  0.4388
18706TIP3    H277610   0.854   3.295  15.352 -1.5572 -0.3092  0.4492
18707TIP3   OH277611   6.806   5.152   4.102  0.2518 -0.2168  0.3005
18707TIP3    H177612   6.826   5.130   4.193 -0.3458  2.0961  1.0256
18707TIP3    H277613   6.726   5.204   4.106  0.3737  0.1647 -1.5269
18708TIP3   OH277614   0.319   3.437  11.651  0.2188 -0.0809  0.0652
18708TIP3    H177615   0.400   3.436  11.600  0.2288  0.7085  0.0477
18708TIP3    H277616   0.282   3.350  11.641  1.5785 -0.7721  0.8850
18709TIP3   OH277617   4.994   5.454  11.869 -0.2131  0.7544 -0.2312
18709TIP3    H177618   5.054   5.517  11.910  0.8095  0.5781 -1.4270
18709TIP3    H277619   4.907   5.489  11.886  0.2418  1.2079  1.2234
18710TIP3   OH277620   6.279   0.624   4.160  0.6566 -0.3477 -0.0259
18710TIP3    H177621   6.338   0.630   4.235  0.7289 -2.8768  0.1787
18710TIP3    H277622   6.199   0.585   4.196  0.4816 -1.0429 -1.1380
18711TIP3   OH277623   0.399   5.951   4.101  0.4928  0.1126  0.1170
18711TIP3    H177624   0.393   5.863   4.064 -2.0480 -0.2639  1.3452
18711TIP3    H277625   0.387   6.009   4.026  1.8793 -0.5631 -0.6514
18712TIP3   OH277626   4.589   3.931  13.150 -0.5104 -0.0840  0.0901
18712TIP3    H177627   4.584   4.018  13.110 -1.4452  0.0431  0.4531
18712TIP3    H277628   4.675   3.897  13.125 -1.0027  0.0542 -1.8806
18713TIP3   OH277629   4.705   1.949   0.302  0.3073  0.3174 -0.0504
18713TIP3    H177630   4.665   1.870   0.337  0.2109  0.2560 -0.3012
18713TIP3    H277631   4.738   1.995   0.379  0.1247  0.1647  0.1190
18714TIP3   OH277632   2.253   6.750  13.353 -0.1327 -0.3480 -0.2552
18714TIP3    H177633   2.329   6.800  13.383 -0.4545  0.3422 -0.5850
18714TIP3    H277634   2.183   6.774  13.414  0.0948 -1.5231  0.4829
18715TIP3   OH277635   4.412   1.114   2.510 -0.3257  0.2518  0.7778
18715TIP3    H177636   4.374   1.176   2.572  0.8648  2.1204 -0.3343
18715TIP3    H277637   4.342   1.097   2.447 -0.7219  0.2755  1.2086
18716TIP3   OH277638   0.861   3.691   1.452 -0.3073 -0.7238 -0.0314
18716TIP3    H177639   0.919   3.711   1.525 -1.0822 -2.0149  0.9442
18716TIP3    H277640   0.894   3.608   1.417 -2.7202 -2.5139  1.7720
18717TIP3   OH277641   6.252   6.159  12.985 -0.0497  0.0348  0.2310
18717TIP3    H177642   6.165   6.122  13.003  0.2702 -0.6328  0.3813
18717TIP3    H277643   6.298   6.155  13.068  0.1442  0.3546  0.1414
18718TIP3   OH277644   3.115   6.455  13.317  0.5127  0.7696 -0.1272
18718TIP3    H177645   3.059   6.442  13.240  0.4040  2.8404 -0.4073
18718TIP3    H277646   3.202   6.430  13.287  0.2722  0.4700 -0.5854
18719TIP3   OH277647   2.787   2.482  13.180 -0.3042  0.1086  0.4517
18719TIP3    H177648   2.758   2.558  13.230 -2.0302 -1.2617  1.6270
18719TIP3    H277649   2.705   2.441  13.150  0.6845  0.2674 -2.5206
18720TIP3   OH277650   4.957   1.153  11.456  0.5304  0.2581  0.0910
18720TIP3    H177651   5.002   1.150  11.540  0.9762 -0.7996 -0.1723
18720TIP3    H277652   4.876   1.202  11.473 -0.6778 -2.2008  1.7687
18721TIP3   OH277653   5.400   6.124   5.796  0.1192 -0.5687  0.0852
18721TIP3    H177654   5.339   6.057   5.828  0.1118 -0.1644  0.9404
18721TIP3    H277655   5.441   6.159   5.875 -0.6528  1.1718 -0.2510
18722TIP3   OH277656   0.026   1.032  15.797 -0.1924 -0.3719  0.1782
18722TIP3    H177657   0.022   1.066  15.886 -0.6327  0.1036 -0.0292
18722TIP3    H277658  -0.042   0.964  15.793 -0.4673 -0.0901  0.0702
18723TIP3   OH277659   3.023   2.231  16.449  0.6245  0.4922 -0.0905
18723TIP3    H177660   3.055   2.184  16.372 -0.1281 -0.0565 -0.0705
18723TIP3    H277661   3.031   2.323  16.426  0.1186  0.3243 -0.9406
18724TIP3   OH277662   3.080   1.172   0.482  0.2684 -0.0502  0.0093
18724TIP3    H177663   3.130   1.203   0.558 -0.2680  2.1466 -0.4995
18724TIP3    H277664   2.989   1.195   0.502 -0.3496 -2.4115  0.1230
18725TIP3   OH277665   6.574   5.964   1.728 -0.8515 -0.0980 -0.9090
18725TIP3    H177666   6.604   6.049   1.695 -0.5669 -0.4116 -1.4493
18725TIP3    H277667   6.486   5.954   1.692 -1.4507  0.6128  0.3061
18726TIP3   OH277668   4.301   4.566  14.187 -0.4242  0.5246 -0.0120
18726TIP3    H177669   4.355   4.623  14.131  0.1845 -0.3462 -0.3310
18726TIP3    H277670   4.360   4.537  14.256 -0.3756 -0.6773 -0.5338
18727TIP3   OH277671   2.616   6.232  13.341  0.1065  0.0245 -0.4291
18727TIP3    H177672   2.628   6.201  13.251  0.8432 -1.9030  0.2914
18727TIP3    H277673   2.703   6.226  13.380  0.0201  1.9601  0.0793
18728TIP3   OH277674   1.733   4.401  10.833 -0.1948  0.7317 -0.4466
18728TIP3    H177675   1.760   4.375  10.745  0.0749  0.0277 -0.1575
18728TIP3    H277676   1.786   4.478  10.853 -0.0583  0.7273 -0.7900
18729TIP3   OH277677   6.311   4.247   4.438 -0.0653 -0.3110  0.1770
18729TIP3    H177678   6.248   4.311   4.471 -0.1150  0.4889 -1.4047
18729TIP3    H277679   6.368   4.230   4.512 -0.4567  1.0682  0.8284
18730TIP3   OH277680   1.644   2.198   6.464  0.5205  0.4990  0.0501
18730TIP3    H177681   1.613   2.235   6.546 -2.3433 -2.1370  0.2250
18730TIP3    H277682   1.576   2.137   6.437  2.9019 -1.1309 -2.6138
18731TIP3   OH277683   4.353   1.450   0.392 -0.1662  0.3877 -0.5122
18731TIP3    H177684   4.334   1.544   0.385  1.7121  0.8196 -0.1384
18731TIP3    H277685   4.323   1.425   0.479  0.5833  0.9440 -0.0987
18732TIP3   OH277686   1.719   5.870   4.787 -0.3275 -0.2188 -0.3024
18732TIP3    H177687   1.801   5.854   4.834 -0.0638  2.7717  0.3257
18732TIP3    H277688   1.666   5.792   4.804  0.1264  0.3310  4.1384
18733TIP3   OH277689   4.193   0.829   2.569  0.0311 -0.0123 -0.0645
18733TIP3    H177690   4.147   0.860   2.491  1.6719  1.1484 -0.5974
18733TIP3    H277691   4.195   0.906   2.627  3.0644  0.5860 -0.8881
18734TIP3   OH277692   1.178   5.743  15.858 -0.3200 -0.1436  0.2150
18734TIP3    H177693   1.094   5.761  15.901 -1.1375  2.3474 -2.2146
18734TIP3    H277694   1.159   5.672  15.796 -0.4145 -0.2624  0.3823
18735TIP3   OH277695   2.956   1.864  15.041 -0.3152 -0.7572 -0.6745
18735TIP3    H177696   2.995   1.837  15.124 -0.4281 -0.8277 -0.6444
18735TIP3    H277697   3.001   1.946  15.019 -2.4126  0.9212  1.0025
18736TIP3   OH277698   5.375   0.416  14.601  0.4552  0.0177 -0.6475
18736TIP3    H177699   5.355   0.474  14.675 -0.3569 -2.1520  0.8982
18736TIP3    H277700   5.393   0.331  14.641 -0.9876 -1.4692 -3.0013
18737TIP3   OH277701   3.471   5.540   0.419  0.4177 -0.5603 -0.0020
18737TIP3    H177702   3.432   5.565   0.502  0.3154  0.9760 -0.5026
18737TIP3    H277703   3.564   5.527   0.439  0.7960  1.8759 -0.0491
18738TIP3   OH277704   3.341   6.343   5.937  0.3141 -0.8143 -0.4878
18738TIP3    H177705   3.400   6.411   5.968 -1.4349  1.0743 -1.2040
18738TIP3    H277706   3.357   6.340   5.842 -2.0997  1.1285 -1.0083
18739TIP3   OH277707   4.398   4.823   4.496 -0.0571  0.1945  0.0855
18739TIP3    H177708   4.477   4.769   4.497  1.2832  1.9751 -3.2017
18739TIP3    H277709   4.399   4.867   4.581  2.7787  0.5839 -0.0903
18740TIP3   OH277710   6.411   3.241  10.364 -0.1935 -0.0592  0.0685
18740TIP3    H177711   6.492   3.195  10.384 -1.1236 -2.7722 -2.1921
18740TIP3    H277712   6.437   3.310  10.303  0.5378 -0.4427 -0.0543
18741TIP3   OH277713   5.559   3.967   0.143  0.5120 -0.0641 -0.4260
18741TIP3    H177714   5.584   4.024   0.216  1.6843 -0.8077 -0.2448
18741TIP3    H277715   5.482   4.010   0.105 -0.6622 -0.1220  1.7751
18742TIP3   OH277716   5.595   0.332   2.636 -0.1232 -0.1795 -0.3707
18742TIP3    H177717   5.592   0.241   2.607 -0.1765  0.0038 -0.9536
18742TIP3    H277718   5.611   0.327   2.730  2.2283 -0.7525 -0.7646
18743TIP3   OH277719   1.020   5.658   5.377  0.0065  0.2747  0.2300
18743TIP3    H177720   0.980   5.742   5.355 -0.2945 -0.0025 -0.3098
18743TIP3    H277721   0.955   5.615   5.433  0.5072  0.7298  1.1557
18744TIP3   OH277722   1.965   4.935   2.990 -0.3254  0.4153 -0.0126
18744TIP3    H177723   2.020   4.990   2.933  1.3406 -1.7038 -0.5348
18744TIP3    H277724   1.996   4.955   3.078 -1.1405  1.7998 -0.0206
18745TIP3   OH277725   0.976   3.679  12.252 -0.4270  0.0301 -0.4298
18745TIP3    H177726   0.911   3.725  12.305 -0.2093 -0.6415  0.4293
18745TIP3    H277727   0.986   3.593  12.295  0.7857  0.0088 -0.7304
18746TIP3   OH277728   4.135   2.916  13.966  0.2957  0.1845  0.3167
18746TIP3    H177729   4.189   2.962  13.902  0.2111  2.3683  1.7784
18746TIP3    H277730   4.193   2.904  14.041  0.5267 -2.7386 -0.2475
18747TIP3   OH277731   6.690   3.835  14.419  0.7759  0.0513  0.5239
18747TIP3    H177732   6.681   3.926  14.393 -0.3835  0.7892  3.3028
18747TIP3    H277733   6.780   3.827  14.450  0.8453  0.2753  0.3803
18748TIP3   OH277734   5.085   0.292   3.908  0.1678  0.1037  0.0742
18748TIP3    H177735   5.135   0.213   3.889  0.8744  0.4301  0.5767
18748TIP3    H277736   5.064   0.285   4.001 -0.7654 -0.0534 -0.1439
18749TIP3   OH277737   3.459   3.315   4.816  0.1414 -0.1952 -0.3075
18749TIP3    H177738   3.410   3.252   4.762 -0.6726  1.7529 -1.9200
18749TIP3    H277739   3.392   3.374   4.850  1.2178  1.8990 -1.7030
18750TIP3   OH277740   3.441   3.738  17.199  0.4747 -0.3567  0.0352
18750TIP3    H177741   3.411   3.814  17.249 -0.8763 -0.1062 -1.1027
18750TIP3    H277742   3.395   3.664  17.238 -1.6356  0.0117 -1.6328
18751TIP3   OH277743   4.269   1.446  13.064  0.0183  0.2436 -0.2399
18751TIP3    H177744   4.247   1.379  12.999  1.1839 -0.3263 -0.0613
18751TIP3    H277745   4.211   1.427  13.138 -0.5528  0.2238 -0.6889
18752TIP3   OH277746   3.409   3.924   3.180 -0.3360  0.3142 -0.3344
18752TIP3    H177747   3.390   4.007   3.136 -1.8085 -0.6391 -1.5574
18752TIP3    H277748   3.405   3.946   3.274  0.4734  1.8628 -0.6460
18753TIP3   OH277749   0.515   6.585   1.049  0.1063 -0.3810  0.1314
18753TIP3    H177750   0.583   6.643   1.016  0.1510 -0.1741  0.5870
18753TIP3    H277751   0.544   6.497   1.023  1.8266 -0.5457  2.4578
18754TIP3   OH277752   0.533   3.282   0.333  0.3948 -0.8817 -0.4596
18754TIP3    H177753   0.451   3.239   0.356  0.2827 -1.3536 -1.7044
18754TIP3    H277754   0.558   3.242   0.249  0.6876  0.9016 -1.2485
18755TIP3   OH277755   2.436   2.246   6.271 -0.6951 -0.5401 -0.3961
18755TIP3    H177756   2.410   2.204   6.189 -0.8291 -0.7361 -0.2544
18755TIP3    H277757   2.466   2.174   6.327  0.6412 -0.2493 -0.7370
18756TIP3   OH277758   5.072   6.389  12.660 -0.2001 -0.1730  0.0064
18756TIP3    H177759   5.074   6.306  12.706 -0.5400 -0.4152 -0.4162
18756TIP3    H277760   5.089   6.455  12.728 -1.2861 -0.4813  0.5785
18757TIP3   OH277761   2.582   4.238  10.738 -0.4255  0.2632  0.2148
18757TIP3    H177762   2.486   4.235  10.737 -0.5884  3.2569  1.1229
18757TIP3    H277763   2.609   4.146  10.741 -3.2307 -0.6680 -1.2248
18758TIP3   OH277764   1.324   6.205   2.034 -0.6820  0.3695 -0.1905
18758TIP3    H177765   1.354   6.229   1.946 -0.0455 -0.0366 -0.0870
18758TIP3    H277766   1.385   6.249   2.093 -3.6421  4.2432  0.1991
18759TIP3   OH277767   3.775   2.791  12.714 -0.0217 -0.5311  0.6185
18759TIP3    H177768   3.850   2.759  12.664 -0.8850 -2.2664  0.3598
18759TIP3    H277769   3.811   2.857  12.773  1.6116 -0.9646  0.1345
18760TIP3   OH277770   3.603   3.415  12.411  0.4611 -0.3251 -0.2005
18760TIP3    H177771   3.590   3.490  12.353 -2.6250 -1.0551 -0.5723
18760TIP3    H277772   3.652   3.352  12.359 -0.1348  0.0132 -1.1980
18761TIP3   OH277773   2.358   0.916  13.515 -0.1220 -0.4788  0.1980
18761TIP3    H177774   2.367   1.010  13.503  1.8308 -0.7828 -0.9513
18761TIP3    H277775   2.447   0.882  13.508 -0.7046 -2.3296  1.3668
18762TIP3   OH277776   3.276   5.424  12.002  0.5200  0.4836  0.3021
18762TIP3    H177777   3.268   5.339  12.044  0.7218  0.3588  0.0913
18762TIP3    H277778   3.344   5.469  12.050 -0.8495  1.2300  1.5769
18763TIP3   OH277779   3.257   2.190   6.444  0.2578 -0.0089 -0.5064
18763TIP3    H177780   3.315   2.114   6.452 -0.5858 -0.9700 -2.9540
18763TIP3    H277781   3.308   2.263   6.478  2.0072 -1.2579 -0.3734
18764TIP3   OH277782   4.664   1.621   0.253 -0.4266  0.0546 -0.1229
18764TIP3    H177783   4.631   1.647   0.339  1.3674 -0.0170  0.5957
18764TIP3    H277784   4.585   1.612   0.199 -1.6570 -0.9162  1.7813
18765TIP3   OH277785   4.451   0.775   0.830 -0.2739  0.1167 -0.3390
18765TIP3    H177786   4.387   0.789   0.760  1.2791  2.7848 -1.2824
18765TIP3    H277787   4.452   0.680   0.842 -1.3262 -0.3191 -3.2075
18766TIP3   OH277788   2.588   6.261  11.559 -0.7527 -0.5380 -0.0108
18766TIP3    H177789   2.581   6.233  11.468 -1.3029  0.0154 -0.1381
18766TIP3    H277790   2.665   6.319  11.560 -1.6190  0.6463 -0.4331
18767TIP3   OH277791   4.647   2.240   3.688 -0.0164 -0.4003 -0.2726
18767TIP3    H177792   4.562   2.253   3.731  0.5390 -1.6993  1.2589
18767TIP3    H277793   4.637   2.159   3.638  0.3425 -0.6123 -0.0065
18768TIP3   OH277794   2.196   5.828   5.849 -0.0126 -0.1388  0.3623
18768TIP3    H177795   2.219   5.917   5.875 -0.4824  0.1620 -0.2303
18768TIP3    H277796   2.252   5.810   5.774  1.3465 -1.0059  1.5552
18769TIP3   OH277797   3.450   3.888  16.704  0.4011  0.2042  0.3023
18769TIP3    H177798   3.398   3.828  16.650  1.0929 -0.5563  0.4865
18769TIP3    H277799   3.423   3.870  16.794  0.7882  0.0062  0.3743
18770TIP3   OH277800   6.484   6.734  11.225  0.0008 -0.3005  0.2391
18770TIP3    H177801   6.483   6.702  11.316  0.4322  0.1208  0.3903
18770TIP3    H277802   6.423   6.807  11.225 -0.9612 -1.1009 -0.1023
18771TIP3   OH277803   3.284   0.020  16.834  0.0396  0.0398 -0.5558
18771TIP3    H177804   3.241  -0.030  16.765  0.6952 -0.1761 -0.8158
18771TIP3    H277805   3.357  -0.035  16.862  1.6099  1.3819 -1.7959
18772TIP3   OH277806   2.083   5.361  11.286 -0.1239  0.5279  0.2537
18772TIP3    H177807   2.110   5.310  11.210  0.3494 -1.9510  2.0003
18772TIP3    H277808   2.003   5.319  11.316  0.1139  0.9772  1.5629
18773TIP3   OH277809   0.848   4.136  13.734  0.4079 -0.3338  0.3252
18773TIP3    H177810   0.756   4.118  13.717  0.1065  0.7622  0.7409
18773TIP3    H277811   0.866   4.218  13.687  0.7416  0.3096  1.5537
18774TIP3   OH277812   5.390   5.757   4.731  0.1054  0.1211  0.6467
18774TIP3    H177813   5.406   5.851   4.739 -2.1910  0.4150  2.5094
18774TIP3    H277814   5.318   5.751   4.668  0.0127 -0.3668  0.8009
18775TIP3   OH277815   0.151   1.195   2.045 -0.1777 -0.2105 -0.2422
18775TIP3    H177816   0.223   1.188   2.108  0.4699 -0.9113 -1.0451
18775TIP3    H277817   0.118   1.284   2.056  1.2271  0.3298 -0.3043
18776TIP3   OH277818   3.558   0.952  10.531  0.1030 -0.0222 -0.1294
18776TIP3    H177819   3.478   0.909  10.501  0.0534 -0.1413  0.1789
18776TIP3    H277820   3.532   1.042  10.548  0.2832  0.2251 -1.1144
18777TIP3   OH277821   5.888   4.536  11.429  0.2262 -0.1962 -0.2029
18777TIP3    H177822   5.880   4.631  11.442  1.3326 -0.0635 -0.4401
18777TIP3    H277823   5.842   4.498  11.504 -0.5994  0.5195 -0.3325
18778TIP3   OH277824   2.583   6.077   0.424  0.6587 -0.7257  0.1968
18778TIP3    H177825   2.524   6.011   0.386  0.1990  0.1259 -0.5800
18778TIP3    H277826   2.559   6.079   0.517 -0.5150 -0.4148 -0.1053
18779TIP3   OH277827   2.733   6.581   1.965  0.0721 -0.3978 -0.1181
18779TIP3    H177828   2.783   6.525   2.024  2.7792 -0.0123 -1.9584
18779TIP3    H277829   2.693   6.646   2.023  0.8564 -1.3399  1.5193
18780TIP3   OH277830   0.531   0.088   2.567 -0.9527  0.3190  0.1975
18780TIP3    H177831   0.621   0.081   2.600 -1.9342 -0.0404  2.9821
18780TIP3    H277832   0.524   0.178   2.535  0.4264  0.3155 -0.1521
18781TIP3   OH277833   3.216   4.104   5.178  0.6409 -0.0550  0.0790
18781TIP3    H177834   3.185   4.099   5.269 -0.4903 -0.7334 -0.3331
18781TIP3    H277835   3.196   4.194   5.151  0.4719 -0.0195  0.3213
18782TIP3   OH277836   5.471   1.802   4.003  0.3185 -0.0908 -0.3979
18782TIP3    H177837   5.389   1.765   3.969  0.2883 -0.3689 -0.0283
18782TIP3    H277838   5.488   1.752   4.083  1.0693 -0.3150 -0.6959
18783TIP3   OH277839   1.105   1.035   5.173 -0.0819 -0.3786  0.4811
18783TIP3    H177840   1.175   1.015   5.235  1.4960  0.3063 -1.0434
18783TIP3    H277841   1.061   1.112   5.211  0.6708 -0.1453  0.8840
18784TIP3   OH277842   2.088   5.434   4.577 -0.0494 -0.4792 -0.1235
18784TIP3    H177843   2.183   5.432   4.580  0.1154  1.5408 -2.5053
18784TIP3    H277844   2.060   5.385   4.655  2.9179  1.0313  1.9854
18785TIP3   OH277845   2.068   5.853  16.832 -0.5519  0.1682  0.5531
18785TIP3    H177846   2.148   5.817  16.871 -0.1604 -1.6694 -1.7735
18785TIP3    H277847   2.098   5.929  16.782 -0.1697 -0.7501 -0.6366
18786TIP3   OH277848   6.772   2.790  12.962 -0.6038 -0.0720  0.1189
18786TIP3    H177849   6.677   2.777  12.955 -0.7557  0.4371  1.0816
18786TIP3    H277850   6.806   2.706  12.991 -0.8256 -0.1161  0.2524
18787TIP3   OH277851   5.400   1.368   1.822  0.2625  0.3095  0.2094
18787TIP3    H177852   5.430   1.443   1.874  2.8404  0.0717 -0.8602
18787TIP3    H277853   5.307   1.386   1.806  0.5740  2.7378  0.8602
18788TIP3   OH277854   5.076   6.568  11.355 -0.0939  0.2178  0.4537
18788TIP3    H177855   5.166   6.541  11.377  0.7452  2.0133 -0.6506
18788TIP3    H277856   5.057   6.522  11.272 -0.7732 -1.3144  1.4293
18789TIP3   OH277857   5.043   4.577   2.655 -0.2754 -0.6295 -0.4892
18789TIP3    H177858   5.139   4.582   2.650 -0.1224 -3.0712 -0.3890
18789TIP3    H277859   5.017   4.528   2.577 -1.5127  0.4906 -0.8050
18790TIP3   OH277860   3.183   4.667   6.246 -0.1185  0.3443  0.5127
18790TIP3    H177861   3.191   4.584   6.200 -0.0480 -0.4802  1.9827
18790TIP3    H277862   3.090   4.674   6.267  0.0109  0.2274  1.1324
18791TIP3   OH277863   1.496   1.189   5.453  0.1953  0.1407  0.7775
18791TIP3    H177864   1.529   1.102   5.474  0.6589  0.2468  0.5073
18791TIP3    H277865   1.529   1.245   5.523  0.3828  0.2018  0.6415
18792TIP3   OH277866   0.427   0.556  15.822  0.3076  0.8812 -0.1763
18792TIP3    H177867   0.396   0.646  15.820 -0.8290  0.4872 -1.4279
18792TIP3    H277868   0.520   0.563  15.844  0.1711  2.3398 -0.0119
18793TIP3   OH277869   3.677   3.606  12.771 -0.2761 -0.0953  0.1017
18793TIP3    H177870   3.715   3.527  12.809 -1.0482 -0.5308 -0.0355
18793TIP3    H277871   3.583   3.589  12.767 -0.2364  0.0112 -1.8539
18794TIP3   OH277872   0.850   4.610  11.486  0.6837  0.7197 -0.2495
18794TIP3    H177873   0.936   4.571  11.470  1.3755  1.5332  1.2978
18794TIP3    H277874   0.787   4.546  11.453  1.8644 -0.5853  0.0016
18795TIP3   OH277875   3.269   5.000  11.091  0.6004  0.2369 -0.2019
18795TIP3    H177876   3.205   4.963  11.030  0.4311  1.3698 -0.7248
18795TIP3    H277877   3.216   5.051  11.153  1.0595  1.9402 -1.1868
18796TIP3   OH277878   2.417   6.644  13.961 -0.1696 -0.0498 -1.0479
18796TIP3    H177879   2.498   6.618  13.916  0.3071  1.2608 -0.9722
18796TIP3    H277880   2.361   6.679  13.892 -0.2700 -0.0076 -0.9454
18797TIP3   OH277881   4.684   1.402  12.432  0.2188  1.1319  0.4456
18797TIP3    H177882   4.735   1.436  12.358 -0.4714  0.6649 -0.2479
18797TIP3    H277883   4.658   1.480  12.481  2.2552  1.3323  1.2487
18798TIP3   OH277884   4.513   1.049  12.591  0.4162  0.3154  0.3967
18798TIP3    H177885   4.559   1.012  12.515 -0.7999  0.3418 -0.3566
18798TIP3    H277886   4.443   0.987  12.609  0.8820  0.1488  1.7048
18799TIP3   OH277887   4.067   1.111  11.937 -0.2103 -0.1966 -0.0020
18799TIP3    H177888   4.071   1.096  11.843  0.2138  1.2995 -0.2202
18799TIP3    H277889   4.056   1.205  11.947 -0.3341 -0.3492  1.4458
18800TIP3   OH277890   5.560   5.865   5.037  0.2769 -0.1181 -0.6852
18800TIP3    H177891   5.499   5.823   5.098 -0.8766  2.0634 -0.2589
18800TIP3    H277892   5.566   5.955   5.069  0.4414  0.8024 -3.2029
18801TIP3   OH277893   0.005   3.103   4.532 -0.4072 -0.0211 -0.4637
18801TIP3    H177894   0.003   3.008   4.529  1.2282 -0.0784 -0.3008
18801TIP3    H277895  -0.043   3.126   4.612  0.0849 -0.7735  0.0614
18802TIP3   OH277896   0.572   5.393   3.333 -0.2116 -0.7222 -0.0134
18802TIP3    H177897   0.487   5.426   3.302  0.1901 -0.1746 -0.5420
18802TIP3    H277898   0.636   5.452   3.294  0.3443 -0.4244  1.3467
18803TIP3   OH277899   0.214   4.537   5.586  0.6189 -0.2392 -0.2153
18803TIP3    H177900   0.208   4.485   5.506  1.2077 -0.3438 -0.1962
18803TIP3    H277901   0.124   4.551   5.613  0.4487 -0.9426 -0.4255
18804TIP3   OH277902   1.124   1.494  12.754 -0.0440  0.3679  0.2707
18804TIP3    H177903   1.139   1.403  12.728 -2.2127  0.6961 -2.3170
18804TIP3    H277904   1.065   1.488  12.829  0.5512 -0.3679  0.6901
18805TIP3   OH277905   1.029   0.777   1.736 -0.0957 -0.0665 -0.0275
18805TIP3    H177906   1.101   0.824   1.778 -0.4210 -1.0405  1.7056
18805TIP3    H277907   1.070   0.705   1.689  0.1870  0.3843 -0.4735
18806TIP3   OH277908   0.870   6.293   4.251 -0.3843 -0.3019 -0.5305
18806TIP3    H177909   0.889   6.206   4.285 -0.5652  0.2253  0.9615
18806TIP3    H277910   0.852   6.346   4.329  1.1913  1.4397 -1.3002
18807TIP3   OH277911   6.350   0.811  14.389  0.1175 -0.0695 -0.0032
18807TIP3    H177912   6.348   0.850  14.476 -1.6219  1.3993 -0.6843
18807TIP3    H277913   6.261   0.780  14.374  1.2499 -3.6919  0.1911
18808TIP3   OH277914   1.326   6.586   6.024  0.3579 -0.2288 -0.0875
18808TIP3    H177915   1.296   6.549   6.107 -2.0845  0.2368 -0.7239
18808TIP3    H277916   1.313   6.680   6.033  1.0848 -0.0711 -0.6189
18809TIP3   OH277917   4.631   4.231   6.041 -0.4434 -0.1248 -0.4791
18809TIP3    H177918   4.649   4.326   6.038 -1.0052 -0.0508 -2.0897
18809TIP3    H277919   4.641   4.208   6.133  2.1848  1.0271 -0.4258
18810TIP3   OH277920   5.966   0.694  13.218 -0.1562 -0.2732  0.6839
18810TIP3    H177921   5.936   0.660  13.303 -0.8323 -1.3059  0.0452
18810TIP3    H277922   5.894   0.750  13.189  0.0359  0.0058  0.7436
18811TIP3   OH277923   1.372   3.353   4.147 -0.7020 -0.5662 -0.3101
18811TIP3    H177924   1.395   3.446   4.156  3.5060 -1.2319 -2.9705
18811TIP3    H277925   1.407   3.312   4.226  1.1178 -0.4679 -1.0439
18812TIP3   OH277926   4.517   0.728  14.334 -0.4400 -0.1293 -0.0630
18812TIP3    H177927   4.609   0.752  14.345 -0.4331 -0.2235  0.0859
18812TIP3    H277928   4.516   0.672  14.256 -0.5535  0.9391 -0.8484
18813TIP3   OH277929   5.690   3.290   1.304 -0.1322  0.1118 -0.3138
18813TIP3    H177930   5.631   3.293   1.228  0.7955  0.4377 -1.0272
18813TIP3    H277931   5.775   3.317   1.270  0.0364  1.4395  1.1078
18814TIP3   OH277932   4.924   1.148   1.265 -0.0437  0.2002 -0.1836
18814TIP3    H177933   4.947   1.216   1.200 -0.6081  0.8177  0.2584
18814TIP3    H277934   4.879   1.196   1.334  0.4871 -0.4765  0.6353
18815TIP3   OH277935   0.233   6.539   5.027  0.2162  0.1852 -0.3644
18815TIP3    H177936   0.161   6.499   4.978  0.0241  1.0467 -0.7973
18815TIP3    H277937   0.192   6.570   5.108  0.5987 -1.5367  0.5179
18816TIP3   OH277938   2.220   1.968   4.019 -0.2806 -0.0287 -0.1452
18816TIP3    H177939   2.142   1.990   3.968  0.6219 -1.2904 -2.1375
18816TIP3    H277940   2.281   1.933   3.954  1.2092 -0.8941  1.7005
18817TIP3   OH277941   6.088   6.738   1.097 -0.5586  0.6544 -0.7527
18817TIP3    H177942   6.143   6.759   1.173  1.3133 -0.0542 -1.8649
18817TIP3    H277943   6.000   6.727   1.134 -0.5412  4.6247  0.6493
18818TIP3   OH277944   2.723   6.037   5.757 -0.0901  0.0850  0.4613
18818TIP3    H177945   2.798   6.046   5.815  0.8216 -2.5532 -0.2386
18818TIP3    H277946   2.649   6.071   5.808  1.2138  0.7327  1.9600
18819TIP3   OH277947   2.042   3.949  13.865 -0.1705  0.1103  0.1748
18819TIP3    H177948   2.029   3.974  13.957  0.6641  0.4365  0.2099
18819TIP3    H277949   2.051   3.854  13.867 -1.2432  0.0137  0.3020
18820TIP3   OH277950   2.271   1.461   5.877 -0.3895 -0.1151  0.3650
18820TIP3    H177951   2.323   1.389   5.913 -1.1276  0.1892  2.0998
18820TIP3    H277952   2.183   1.445   5.910 -1.5536 -0.9072 -2.9608
18821TIP3   OH277953   4.228   5.052  11.494  0.4608 -0.1983  0.1950
18821TIP3    H177954   4.321   5.048  11.516  0.6642 -0.2418 -0.6426
18821TIP3    H277955   4.225   5.031  11.401 -0.2505  1.2553 -0.1185
18822TIP3   OH277956   0.132   0.680   2.132 -0.3192  0.2504  0.8873
18822TIP3    H177957   0.047   0.652   2.097 -0.2572  0.6333  0.4400
18822TIP3    H277958   0.195   0.618   2.095 -0.2561  0.6434  0.3471
18823TIP3   OH277959   3.643   4.498  12.854 -0.4213 -0.1985 -0.3261
18823TIP3    H177960   3.686   4.569  12.902 -3.1368  0.7064  0.8960
18823TIP3    H277961   3.702   4.478  12.782  1.2795  2.0308  0.4055
18824TIP3   OH277962   2.861   5.877  12.043  0.5669  0.0197 -0.1892
18824TIP3    H177963   2.918   5.916  11.976 -1.9162  1.2884 -1.6533
18824TIP3    H277964   2.773   5.888  12.007 -0.8521  1.0642  3.4583
18825TIP3   OH277965   1.930   4.366   5.819  0.3226 -0.0228 -0.4992
18825TIP3    H177966   1.953   4.347   5.910 -1.7529 -0.4793 -0.0641
18825TIP3    H277967   1.853   4.421   5.824 -0.0286 -0.3534 -1.9923
18826TIP3   OH277968   5.590   6.573   6.199 -0.1318  0.0629  0.0022
18826TIP3    H177969   5.551   6.599   6.282 -0.3813  0.8207 -0.3472
18826TIP3    H277970   5.516   6.556   6.141  0.0475  1.8816 -0.7806
18827TIP3   OH277971   0.762   4.160   4.772  0.0742 -0.1496 -0.3580
18827TIP3    H177972   0.672   4.126   4.779 -0.1885  0.0750 -2.3417
18827TIP3    H277973   0.815   4.082   4.754  0.3660 -0.3358  1.1669
18828TIP3   OH277974   4.631   5.191   3.087 -0.0392  0.0324  0.3432
18828TIP3    H177975   4.645   5.177   3.181 -0.3397  1.6968  0.6404
18828TIP3    H277976   4.559   5.132   3.065 -0.3145  0.0198  1.2662
18829TIP3   OH277977   2.088   6.284   2.756 -0.2625 -0.0665  0.1016
18829TIP3    H177978   2.066   6.205   2.806  1.7640 -0.6784  0.0634
18829TIP3    H277979   2.074   6.258   2.665 -0.8876  0.0462  0.1628
18830TIP3   OH277980   4.831   2.733   4.006  0.4647 -0.2321 -0.0097
18830TIP3    H177981   4.809   2.823   4.029 -1.4887 -1.2319  2.2228
18830TIP3    H277982   4.825   2.685   4.088  1.5526 -2.4147 -1.1529
18831TIP3   OH277983   2.839   6.375  16.233 -0.2559  0.4022 -0.7950
18831TIP3    H177984   2.800   6.332  16.309  0.6999  0.5327 -0.2176
18831TIP3    H277985   2.862   6.462  16.264 -0.0623  0.5349 -1.3019
18832TIP3   OH277986   5.015   2.863   5.743 -0.0485 -0.2040  0.2968
18832TIP3    H177987   4.945   2.798   5.737 -0.1634 -0.1312  0.8419
18832TIP3    H277988   5.080   2.834   5.679 -0.1182 -0.8318  0.5075
18833TIP3   OH277989   3.284   6.194   0.472  0.0403  0.3691  0.2807
18833TIP3    H177990   3.258   6.271   0.523  0.4378  0.5799  0.1644
18833TIP3    H277991   3.218   6.128   0.493  0.0931  0.5188  0.9171
18834TIP3   OH277992   5.170   5.266   2.276  0.3012  0.6809  0.0331
18834TIP3    H177993   5.209   5.313   2.350 -0.1110 -0.4988  1.0277
18834TIP3    H277994   5.234   5.197   2.256 -0.0077  0.4437 -0.1237
18835TIP3   OH277995   5.282   2.686   6.606 -0.3837 -0.4769  0.2351
18835TIP3    H177996   5.232   2.690   6.687 -2.4397  2.2060 -1.0630
18835TIP3    H277997   5.278   2.595   6.579 -1.5395 -0.9714  2.0127
18836TIP3   OH277998   5.069   6.619   2.967  0.3086 -0.4906 -0.3523
18836TIP3    H177999   5.058   6.696   2.911 -0.6709 -0.4988 -0.1885
18836TIP3    H278000   5.009   6.554   2.930 -0.5610 -0.3946  0.8704
18837TIP3   OH278001   2.425   3.937  14.723 -0.4865 -0.2027 -0.0334
18837TIP3    H178002   2.363   3.934  14.796 -0.3505 -0.0188  0.0904
18837TIP3    H278003   2.414   4.024  14.686 -0.4982 -0.2677 -0.1861
18838TIP3   OH278004   5.142   0.084   4.184 -0.7674  0.4309 -0.3382
18838TIP3    H178005   5.238   0.082   4.183 -0.7465  0.9631  0.3507
18838TIP3    H278006   5.116   0.006   4.134  0.0216  0.7040 -1.2016
18839TIP3   OH278007   3.057   1.203   2.630  0.0511 -0.2927 -0.1028
18839TIP3    H178008   3.021   1.136   2.572  0.2052 -0.3213 -0.1662
18839TIP3    H278009   3.035   1.286   2.587  1.2834 -0.3459 -0.8715
18840TIP3   OH278010   1.508   4.304  16.741  0.3294 -0.6792  0.1422
18840TIP3    H178011   1.565   4.367  16.787  2.2343 -1.4224 -1.1435
18840TIP3    H278012   1.491   4.236  16.806 -0.7836  0.5675  1.1748
18841TIP3   OH278013   4.381   5.672   4.948  0.3349  0.1674 -0.4211
18841TIP3    H178014   4.405   5.765   4.953 -0.7558  0.3959  0.8936
18841TIP3    H278015   4.370   5.646   5.040 -1.8372 -0.5912 -0.8718
18842TIP3   OH278016   4.290   6.469   5.397 -0.4483  0.0936 -0.2565
18842TIP3    H178017   4.232   6.442   5.326 -2.3819  0.7967  1.0001
18842TIP3    H278018   4.368   6.415   5.387  0.5857  2.1513 -4.6365
18843TIP3   OH278019   5.759   3.221  10.741 -0.8237  0.5423 -0.2291
18843TIP3    H178020   5.671   3.252  10.721 -0.5533  2.3686  1.3721
18843TIP3    H278021   5.812   3.300  10.747  0.7492 -0.4905 -0.2970
18844TIP3   OH278022   4.536   0.798   5.061  0.2974  0.3350  0.1384
18844TIP3    H178023   4.586   0.726   5.022  0.2508  0.3958 -0.0359
18844TIP3    H278024   4.462   0.755   5.104  2.2812 -0.0818  3.3375
18845TIP3   OH278025   1.263   4.835   5.244 -0.2838  0.4397  0.0255
18845TIP3    H178026   1.271   4.931   5.240  0.0789  0.5212  2.0655
18845TIP3    H278027   1.179   4.819   5.286 -1.0448 -0.1787 -1.6964
18846TIP3   OH278028   6.030   0.765   0.156 -0.1898 -0.8041  0.2389
18846TIP3    H178029   6.092   0.699   0.128  0.7460  0.0770  0.2176
18846TIP3    H278030   6.022   0.752   0.250  0.0298 -0.9252  0.2407
18847TIP3   OH278031   5.904   4.493  11.783 -0.1820 -0.1524 -0.0755
18847TIP3    H178032   5.828   4.521  11.733 -0.4219 -0.3289  0.1904
18847TIP3    H278033   5.965   4.567  11.779  0.5928 -0.8549 -2.2362
18848TIP3   OH278034   1.086   3.026  15.154 -0.1924  0.5644  0.3848
18848TIP3    H178035   1.108   2.934  15.168  0.1092  0.3882 -1.1206
18848TIP3    H278036   1.081   3.064  15.242 -0.2753 -0.8759  1.0064
18849TIP3   OH278037   3.005   0.850  13.436 -0.4312  0.0910 -0.6651
18849TIP3    H178038   2.998   0.764  13.395 -0.7772  0.3797 -1.2145
18849TIP3    H278039   3.062   0.900  13.379  0.5835 -0.0834  0.1836
18850TIP3   OH278040   4.883   2.050   4.420  0.0021  0.4041  0.0220
18850TIP3    H178041   4.972   2.085   4.432  0.0896 -0.5665  2.3075
18850TIP3    H278042   4.834   2.082   4.496 -0.6626 -2.0660  0.6582
18851TIP3   OH278043   5.567   5.363   0.241  0.2069 -0.5050 -0.2633
18851TIP3    H178044   5.572   5.389   0.149  2.1300 -1.2570 -0.4016
18851TIP3    H278045   5.591   5.442   0.289  0.7796 -0.5469 -0.4754
18852TIP3   OH278046   3.069   6.264  15.301 -0.1767 -0.2632 -0.2995
18852TIP3    H178047   3.134   6.297  15.363  0.0527 -0.4595 -0.4340
18852TIP3    H278048   3.121   6.233  15.227 -0.5027  1.0562 -1.1007
18853TIP3   OH278049   0.285   2.040  13.052  0.1594  0.0654 -0.0368
18853TIP3    H178050   0.370   1.998  13.065  0.0757  0.3939  1.6846
18853TIP3    H278051   0.273   2.042  12.957  1.8269 -0.4659 -0.2660
18854TIP3   OH278052   4.778   6.010  16.716 -0.1583  0.7031  0.0065
18854TIP3    H178053   4.765   6.098  16.751  1.5567  1.8705 -2.1204
18854TIP3    H278054   4.851   5.974  16.767 -0.1346  0.9381  0.1389
18855TIP3   OH278055   4.346   2.875  11.840  0.4124  0.2437 -0.3936
18855TIP3    H178056   4.357   2.952  11.784  1.0476 -0.0809 -0.7194
18855TIP3    H278057   4.284   2.819  11.792  0.2544  0.3731 -0.3429
18856TIP3   OH278058   3.876   3.096  10.505 -0.8915 -0.0999 -0.2048
18856TIP3    H178059   3.965   3.096  10.540 -1.1055  1.0187  0.3805
18856TIP3    H278060   3.884   3.059  10.417  0.0731 -0.4360  0.0201
18857TIP3   OH278061   0.359   2.533   2.386  0.2689 -0.6621 -0.0939
18857TIP3    H178062   0.280   2.523   2.333  0.3627 -1.7929 -0.0421
18857TIP3    H278063   0.430   2.542   2.321 -0.0570  1.7829 -0.1347
18858TIP3   OH278064   1.274   6.008  15.771 -0.1414  0.2852  0.3219
18858TIP3    H178065   1.244   5.917  15.778 -2.2815  0.9691  0.4593
18858TIP3    H278066   1.289   6.035  15.861  0.0575  0.2077  0.3117
18859TIP3   OH278067   2.567   1.562   5.497  0.1846  0.1602 -0.0324
18859TIP3    H178068   2.646   1.616   5.496  0.3122  0.0032  0.9453
18859TIP3    H278069   2.577   1.506   5.574 -0.4147 -0.5645 -0.4739
18860TIP3   OH278070   3.124   6.491   0.911  1.3885  0.3603 -0.1099
18860TIP3    H178071   3.038   6.472   0.948  0.5991  1.2370 -1.4359
18860TIP3    H278072   3.152   6.571   0.955  0.5967  1.2172 -1.1157
18861TIP3   OH278073   4.481   0.576   6.105 -0.0058  0.2705 -0.6569
18861TIP3    H178074   4.567   0.542   6.079  0.7833  1.5345  0.2510
18861TIP3    H278075   4.468   0.544   6.194 -0.2956  0.4301 -0.6410
18862TIP3   OH278076   4.065   3.329  17.128  0.3309  1.0440 -0.1351
18862TIP3    H178077   4.080   3.403  17.187  0.4604  0.6093  0.3812
18862TIP3    H278078   3.972   3.308  17.140  0.3523  0.9681 -0.1067
18863TIP3   OH278079   3.942   4.995  13.995 -0.9140  0.3671  0.2923
18863TIP3    H178080   3.865   5.044  14.027 -1.4832 -0.2480 -0.1334
18863TIP3    H278081   3.948   5.018  13.902 -0.3623  0.6945  0.4036
18864TIP3   OH278082   2.520   6.197  13.604  0.2204  0.2130 -0.1629
18864TIP3    H178083   2.433   6.171  13.637 -0.3978  0.7457 -1.3510
18864TIP3    H278084   2.520   6.169  13.513  0.8100  1.4010 -0.5340
18865TIP3   OH278085   0.444   3.553  11.210 -0.3839  0.0785  0.1175
18865TIP3    H178086   0.381   3.487  11.179  0.8736 -0.2732 -1.7542
18865TIP3    H278087   0.415   3.634  11.169  0.4610 -0.1205 -0.9072
18866TIP3   OH278088   2.226   1.338   1.855  0.1458 -0.6490  0.3930
18866TIP3    H178089   2.142   1.351   1.899 -0.2516  0.3609 -0.6290
18866TIP3    H278090   2.290   1.380   1.912 -0.0015 -1.6956  1.3324
18867TIP3   OH278091   0.713   0.471  12.627  0.1478 -0.4274 -0.2118
18867TIP3    H178092   0.807   0.484  12.641 -0.0155  0.0164  0.5435
18867TIP3    H278093   0.705   0.383  12.590  1.0123  0.2386 -2.0458
18868TIP3   OH278094   0.730   4.218   0.205  0.2913 -0.0736  0.2047
18868TIP3    H178095   0.778   4.142   0.240  0.3948  0.2762  0.8243
18868TIP3    H278096   0.749   4.288   0.267 -1.4413 -0.0573  0.7321
18869TIP3   OH278097   0.459   3.353   1.292 -0.1316  0.5877  1.1618
18869TIP3    H178098   0.517   3.298   1.240 -1.1828 -0.8000  1.4410
18869TIP3    H278099   0.480   3.443   1.264  1.1287  0.0184  0.2372
18870TIP3   OH278100   4.626   0.336   5.444 -0.1918  0.0061 -0.3458
18870TIP3    H178101   4.549   0.391   5.459 -0.0207  0.0335  0.4563
18870TIP3    H278102   4.629   0.325   5.349  0.4758  2.3927 -0.6293
18871TIP3   OH278103   1.633   2.571  17.223 -0.4489  0.1112 -0.1125
18871TIP3    H178104   1.723   2.591  17.199  0.0752  0.3109  1.9244
18871TIP3    H278105   1.610   2.638  17.288 -1.8488 -0.3183 -0.1417
18872TIP3   OH278106   6.336   1.186   2.720 -0.4333 -0.0964  0.6605
18872TIP3    H178107   6.374   1.262   2.675 -0.4115 -0.2905  0.3506
18872TIP3    H278108   6.406   1.120   2.716 -0.8819 -0.5333 -0.1088
18873TIP3   OH278109   5.428   3.696  10.127  0.1192 -0.4311 -0.2849
18873TIP3    H178110   5.363   3.654  10.071  0.5742  0.5697 -1.5895
18873TIP3    H278111   5.510   3.653  10.105  0.1984 -0.4649  0.0722
18874TIP3   OH278112   6.030   3.585  14.538 -0.1054  0.5627  0.0113
18874TIP3    H178113   5.986   3.501  14.523  0.8467 -0.4890  2.8104
18874TIP3    H278114   6.112   3.578  14.489 -0.2950  0.1079 -0.2490
18875TIP3   OH278115   0.001   1.826  16.816  0.0613 -0.1119  0.4921
18875TIP3    H178116   0.013   1.801  16.725 -0.2065  1.9252 -0.1245
18875TIP3    H278117  -0.040   1.750  16.857 -0.0642 -0.9390 -1.1538
18876TIP3   OH278118   3.403   3.148   2.914  0.0762  0.3664 -0.3553
18876TIP3    H178119   3.396   3.054   2.899 -0.3758  0.3582 -0.1308
18876TIP3    H278120   3.403   3.157   3.009  0.9679  0.5364 -0.3726
18877TIP3   OH278121   1.992   6.272   5.653 -0.0794 -0.3230 -0.2282
18877TIP3    H178122   1.915   6.325   5.636  1.5436  2.1099 -0.2893
18877TIP3    H278123   1.992   6.259   5.748 -0.7107 -0.6147 -0.2645
18878TIP3   OH278124   1.303   2.033  11.683 -0.2694 -0.0000  0.2849
18878TIP3    H178125   1.263   1.958  11.641  0.6820 -0.1027 -0.4678
18878TIP3    H278126   1.371   1.996  11.739 -0.9266  0.1946  1.2218
18879TIP3   OH278127   5.995   0.021  14.743  0.1752 -0.2956  0.1160
18879TIP3    H178128   5.957  -0.034  14.674 -1.9579  0.4651  0.6266
18879TIP3    H278129   5.920   0.072  14.776  1.2219 -0.3658  2.6964
18880TIP3   OH278130   0.043   0.598   3.849  0.3201 -0.1190 -0.8534
18880TIP3    H178131   0.114   0.651   3.812 -0.2446  0.8147 -0.6277
18880TIP3    H278132   0.021   0.642   3.931  0.3927 -1.1843 -0.2499
18881TIP3   OH278133   6.804   0.103  16.488  0.3231 -0.3533  0.0313
18881TIP3    H178134   6.894   0.088  16.518 -0.0590 -0.1261  1.3121
18881TIP3    H278135   6.768   0.015  16.476  0.7507 -0.4450 -0.6113
18882TIP3   OH278136   2.353   2.405  16.033 -0.0881 -0.2171 -0.4219
18882TIP3    H178137   2.315   2.396  15.945 -0.0995 -1.8368 -0.2696
18882TIP3    H278138   2.446   2.419  16.018 -0.2136  0.3227 -0.7121
18883TIP3   OH278139   4.579   2.987  13.850 -0.2973 -0.0200  0.5456
18883TIP3    H178140   4.582   2.939  13.767  0.6148  0.2306  0.4228
18883TIP3    H278141   4.646   3.055  13.841 -0.2375  0.0531  1.4579
18884TIP3   OH278142   6.388   4.077  12.386 -0.4756 -0.0378 -0.2288
18884TIP3    H178143   6.442   4.111  12.457 -0.8783 -1.4466  0.7759
18884TIP3    H278144   6.310   4.133  12.386 -0.0074  0.6197 -0.2545
18885TIP3   OH278145   3.163   6.436  11.480 -0.2903 -0.0859  0.0321
18885TIP3    H178146   3.119   6.416  11.398  0.3401 -0.2609 -0.2699
18885TIP3    H278147   3.224   6.507  11.457  1.9338 -2.0473 -0.3105
18886TIP3   OH278148   1.431   0.793  16.364 -0.4430  0.3271  0.0704
18886TIP3    H178149   1.383   0.801  16.446  1.1499 -0.4483  1.0936
18886TIP3    H278150   1.436   0.699  16.347  2.5216  0.2723  1.0863
18887TIP3   OH278151   2.022   3.302   2.680  0.1558 -0.2373 -0.1850
18887TIP3    H178152   2.067   3.329   2.761 -0.6445 -0.2356  0.2637
18887TIP3    H278153   2.091   3.301   2.614  0.8586 -0.3867  0.5320
18888TIP3   OH278154   4.386   4.108   6.270 -0.1657  0.2332 -0.1408
18888TIP3    H178155   4.406   4.032   6.217 -2.2123 -0.7096  0.3855
18888TIP3    H278156   4.291   4.104   6.285 -0.2034  2.4445  0.5469
18889TIP3   OH278157   1.165   3.017  11.023 -0.3429 -0.2773 -0.0153
18889TIP3    H178158   1.236   3.017  11.087 -1.2956  0.8859  1.0645
18889TIP3    H278159   1.091   2.977  11.069 -0.9284  0.2371 -0.4970
18890TIP3   OH278160   6.576   3.824  16.475 -0.2359 -0.2700 -0.0532
18890TIP3    H178161   6.561   3.906  16.522 -0.1215  1.3528 -2.7502
18890TIP3    H278162   6.669   3.808  16.484 -0.5087 -0.9391  1.7673
18891TIP3   OH278163   2.783   4.826  11.037 -0.0616 -0.7561 -0.5638
18891TIP3    H178164   2.785   4.736  11.005 -2.7130 -1.3769  0.8991
18891TIP3    H278165   2.693   4.854  11.024  0.6306  1.5631 -0.5956
18892TIP3   OH278166   5.005   1.150  10.753  0.9245 -0.4177  0.1732
18892TIP3    H178167   4.932   1.120  10.807  0.9768  1.6585  1.4268
18892TIP3    H278168   5.050   1.069  10.728 -2.3024 -1.8614 -1.4497
18893TIP3   OH278169   1.295   2.393   3.775 -0.6499 -0.1851 -0.5719
18893TIP3    H178170   1.352   2.455   3.730  1.2815  0.1585  2.1936
18893TIP3    H278171   1.238   2.448   3.829  0.2402 -0.7297  0.9555
18894TIP3   OH278172   0.233   0.436  14.994 -0.6213 -0.4018 -0.2716
18894TIP3    H178173   0.303   0.411  14.933 -0.6904  0.1666 -0.5866
18894TIP3    H278174   0.189   0.509  14.951 -0.2707  0.4181  0.7565
18895TIP3   OH278175   3.929   2.327   1.322 -0.1903  0.3301 -0.2840
18895TIP3    H178176   4.005   2.362   1.276 -0.0449 -0.2595 -0.4883
18895TIP3    H278177   3.856   2.343   1.263 -0.2253  0.8434 -0.1120
18896TIP3   OH278178   2.086   5.744   2.528 -0.2337 -0.0277 -0.9137
18896TIP3    H178179   2.163   5.717   2.478  0.1643 -0.5466 -0.0217
18896TIP3    H278180   2.012   5.727   2.469  0.3345  0.5445 -1.8018
18897TIP3   OH278181   1.227   2.203   5.188 -0.7684  0.1779  0.0371
18897TIP3    H178182   1.189   2.145   5.255  0.3680  0.6259  1.0788
18897TIP3    H278183   1.158   2.267   5.171 -0.8411  0.4408  1.2588
18898TIP3   OH278184   1.394   1.947   0.043 -0.7157  0.3801 -0.1744
18898TIP3    H178185   1.327   1.923  -0.021 -0.1655  1.1052 -1.0493
18898TIP3    H278186   1.352   2.011   0.099 -1.6091 -1.2141  1.0170
18899TIP3   OH278187   3.817   4.653   4.859 -0.5915  0.5214 -0.1950
18899TIP3    H178188   3.764   4.674   4.936 -0.8431 -0.7904 -0.0097
18899TIP3    H278189   3.771   4.581   4.817  2.0000 -1.8807  0.9659
18900TIP3   OH278190   3.648   5.947   1.337 -0.1023  0.2360 -0.0791
18900TIP3    H178191   3.633   5.861   1.298 -1.0408  0.6759 -0.7202
18900TIP3    H278192   3.696   5.929   1.417 -0.5411 -0.9153 -0.0614
18901TIP3   OH278193   0.733   5.967  14.926  0.2798 -0.3304 -0.5028
18901TIP3    H178194   0.649   5.928  14.950 -0.3653  1.1983 -0.2378
18901TIP3    H278195   0.712   6.029  14.856  0.6654  2.3264  1.6193
18902TIP3   OH278196   6.080   2.141   4.014  0.8890  0.5130  0.1078
18902TIP3    H178197   6.067   2.199   4.088  0.2082  1.7569 -0.9783
18902TIP3    H278198   6.154   2.178   3.966  0.5204  0.4374 -0.5316
18903TIP3   OH278199   1.107   4.130   1.210  0.2710 -0.0124  0.1990
18903TIP3    H178200   1.129   4.193   1.278  1.0471 -0.4850  0.3980
18903TIP3    H278201   1.130   4.174   1.128  2.4767 -0.6741  0.4270
18904TIP3   OH278202   1.333   5.955  13.935  0.4650  0.3620  0.1341
18904TIP3    H178203   1.380   5.995  13.862 -0.3863  1.5752  0.2344
18904TIP3    H278204   1.261   5.906  13.894 -0.2338  1.3464  0.1676
18905TIP3   OH278205   0.976   0.266   6.912  0.0429  0.2812  0.5859
18905TIP3    H178206   0.881   0.274   6.899  0.2198  1.5175 -0.0609
18905TIP3    H278207   0.993   0.172   6.911 -1.4150 -0.0236  2.5357
18906TIP3   OH278208   2.746   3.409   1.436 -0.0015 -0.1359 -0.2418
18906TIP3    H178209   2.832   3.378   1.464 -1.4274 -3.0077  1.1894
18906TIP3    H278210   2.744   3.394   1.342  0.2580 -2.1905  0.0555
18907TIP3   OH278211   4.022   2.781   5.171 -1.0763 -0.4744 -0.1139
18907TIP3    H178212   4.099   2.744   5.215 -0.7133 -0.7424 -0.9562
18907TIP3    H278213   4.051   2.867   5.141 -1.8863  0.4739  1.7431
18908TIP3   OH278214   6.032   2.656   0.331 -0.4028 -0.3808 -0.2077
18908TIP3    H178215   6.094   2.634   0.401  0.4113  1.7983 -0.2042
18908TIP3    H278216   6.032   2.580   0.274  1.0948 -1.0318  0.6320
18909TIP3   OH278217   2.431   4.497   1.758  0.0742  0.0290  0.5912
18909TIP3    H178218   2.430   4.554   1.835 -0.6671  1.2368 -0.2769
18909TIP3    H278219   2.446   4.409   1.792 -1.7809  0.3207  2.2639
18910TIP3   OH278220   1.307   0.931   3.299 -0.6498 -0.3914  0.0950
18910TIP3    H178221   1.316   0.951   3.206  1.2460 -1.4705  0.0285
18910TIP3    H278222   1.390   0.956   3.338 -0.1927 -3.0247  0.9175
18911TIP3   OH278223   6.600   5.217   3.521 -0.2551 -0.2615  0.0785
18911TIP3    H178224   6.564   5.298   3.485  0.3847 -0.3723 -0.8403
18911TIP3    H278225   6.611   5.160   3.445 -0.2121 -1.0211  0.6519
18912TIP3   OH278226   4.256   5.126  15.490 -0.3410 -0.1253 -0.5957
18912TIP3    H178227   4.161   5.125  15.499 -0.3848 -1.3243 -1.0906
18912TIP3    H278228   4.284   5.040  15.521  0.4216 -0.4202 -2.0362
18913TIP3   OH278229   6.766   3.704   0.622  0.0483 -0.0487  0.1242
18913TIP3    H178230   6.730   3.762   0.689 -3.3521 -1.1466 -0.6586
18913TIP3    H278231   6.795   3.627   0.671 -0.1281  0.1998  0.6271
18914TIP3   OH278232   2.428   4.526  17.048 -0.1144 -0.5428 -0.3482
18914TIP3    H178233   2.404   4.614  17.078 -1.1241  0.1626 -3.0912
18914TIP3    H278234   2.523   4.524  17.053 -0.0704  0.7621 -0.4027
18915TIP3   OH278235   0.273   2.400   0.881  0.5190 -0.2586 -0.1265
18915TIP3    H178236   0.338   2.455   0.837 -0.1356  0.7099  0.0937
18915TIP3    H278237   0.224   2.360   0.809 -0.8299  1.6559 -0.2993
18916TIP3   OH278238   1.952   4.442  16.755  1.0135 -0.0283 -0.7424
18916TIP3    H178239   1.981   4.406  16.671  1.4801  1.0233 -1.0318
18916TIP3    H278240   2.027   4.492  16.787  0.7776 -0.2790  0.2227
18917TIP3   OH278241   3.472   0.231   3.374  0.5888 -0.4421 -0.5141
18917TIP3    H178242   3.530   0.306   3.384 -0.5598  0.4479 -0.4292
18917TIP3    H278243   3.394   0.254   3.425  0.1108 -1.5737 -0.7153
18918TIP3   OH278244   0.398   4.308  14.757  0.1022  0.1989  0.6244
18918TIP3    H178245   0.401   4.364  14.834  2.7712  0.3080  0.5124
18918TIP3    H278246   0.479   4.329  14.710  0.5683 -2.8672 -0.0298
18919TIP3   OH278247   6.416   2.183   0.237  0.5181  0.3073 -0.0134
18919TIP3    H178248   6.441   2.145   0.152  1.0770  1.2898 -0.3069
18919TIP3    H278249   6.491   2.166   0.294  0.9547  1.3128 -0.2666
18920TIP3   OH278250   2.255   1.263  15.566  0.2785  0.0784 -0.0569
18920TIP3    H178251   2.171   1.300  15.590  1.1795  1.4006  1.1577
18920TIP3    H278252   2.275   1.200  15.636  0.2717 -0.2675 -0.3648
18921TIP3   OH278253   1.642   1.179  13.554  0.0711 -0.2632 -0.2330
18921TIP3    H178254   1.684   1.224  13.627 -1.6737 -0.0724  0.6659
18921TIP3    H278255   1.588   1.112  13.596 -0.9368 -0.1513 -1.3483
18922TIP3   OH278256   1.192   0.410   3.349  0.4194 -0.8931 -0.9758
18922TIP3    H178257   1.209   0.318   3.370  0.6517 -1.0756 -1.9553
18922TIP3    H278258   1.212   0.418   3.256 -0.6359 -0.1006 -1.1463
18923TIP3   OH278259   3.194   2.683   4.523  0.0026  0.4487 -0.0415
18923TIP3    H178260   3.268   2.626   4.544  0.6797  1.5108  0.5070
18923TIP3    H278261   3.139   2.631   4.464  1.1720 -0.3602 -0.4270
18924TIP3   OH278262   3.730   2.505  12.296 -0.2269  0.4193  0.2772
18924TIP3    H178263   3.721   2.430  12.238  1.3254  1.3639 -1.2470
18924TIP3    H278264   3.805   2.485  12.352 -0.3099  0.4887  0.4154
18925TIP3   OH278265   5.582   0.375  17.286  0.3662 -0.3569  0.4437
18925TIP3    H178266   5.549   0.440  17.347 -1.4749 -1.6088  0.8187
18925TIP3    H278267   5.574   0.292  17.333 -0.2298 -1.2217 -1.1488
18926TIP3   OH278268   6.396   2.794  16.507 -0.2126 -0.3566 -1.2275
18926TIP3    H178269   6.460   2.825  16.571 -0.0935 -0.3278 -1.3603
18926TIP3    H278270   6.410   2.700  16.502 -2.3688 -0.8629  1.1700
18927TIP3   OH278271   1.328   5.576  11.592 -0.8848 -0.1636  0.3337
18927TIP3    H178272   1.393   5.521  11.548 -0.5020  1.0327 -0.6280
18927TIP3    H278273   1.257   5.585  11.528 -1.2271 -0.0645  0.7287
18928TIP3   OH278274   1.838   6.042   4.616  0.1161 -0.1152  0.0405
18928TIP3    H178275   1.776   5.973   4.640 -1.0014  0.9516  0.2886
18928TIP3    H278276   1.798   6.122   4.650  0.0678  1.0032 -2.5412
18929TIP3   OH278277   3.140   2.689  17.000 -0.5979 -0.2152 -0.4996
18929TIP3    H178278   3.186   2.707  16.918 -1.5032 -1.6840 -1.3497
18929TIP3    H278279   3.053   2.728  16.988  0.0145  1.5710  0.6698
18930TIP3   OH278280   3.352   1.151   2.830 -0.5022  0.1013  0.5512
18930TIP3    H178281   3.416   1.146   2.758  0.5786 -0.9528  1.5504
18930TIP3    H278282   3.278   1.199   2.793  0.3276  0.2007 -1.0471
18931TIP3   OH278283   4.406   0.239  16.214 -0.3199  0.0902  0.2011
18931TIP3    H178284   4.427   0.314  16.158 -0.0202 -0.2338 -0.1223
18931TIP3    H278285   4.359   0.277  16.289  0.5131  0.6999  0.4227
18932TIP3   OH278286   1.735   6.455  15.154 -0.1797  0.7315 -0.5751
18932TIP3    H178287   1.683   6.473  15.075 -1.9416  2.1041  0.8519
18932TIP3    H278288   1.785   6.376  15.132 -2.6202 -0.4646 -2.1460
18933TIP3   OH278289   2.305   2.126  15.302 -0.0381 -0.4243 -0.4299
18933TIP3    H178290   2.327   2.114  15.395  1.1369  2.2897 -0.3125
18933TIP3    H278291   2.344   2.210  15.279 -2.3790  0.0936 -2.7653
18934TIP3   OH278292   2.488   6.715  12.002  0.3197  0.4076 -0.4731
18934TIP3    H178293   2.420   6.651  12.023  0.8558 -0.8872 -2.5953
18934TIP3    H278294   2.570   6.669  12.018  0.7192  1.3142  0.1407
18935TIP3   OH278295   3.168   2.403  12.755  0.0526 -0.0325 -0.3072
18935TIP3    H178296   3.129   2.368  12.835  0.8677 -0.0050  0.1070
18935TIP3    H278297   3.185   2.326  12.701 -0.1625 -0.0875 -0.2946
18936TIP3   OH278298   4.655   0.092  17.017  0.3671 -0.0734 -0.2443
18936TIP3    H178299   4.575   0.062  16.974  0.7083  0.0055 -0.9406
18936TIP3    H278300   4.632   0.097  17.110 -0.2411 -0.6821 -0.3568
18937TIP3   OH278301   5.440   2.784   6.405  0.0414 -0.0382 -0.2085
18937TIP3    H178302   5.408   2.765   6.493 -0.2616  0.4159 -0.2214
18937TIP3    H278303   5.522   2.831   6.419 -0.6501  1.1791 -0.1514
18938TIP3   OH278304   5.888   0.181   2.471 -0.1192 -0.0983  0.1902
18938TIP3    H178305   5.923   0.121   2.404 -0.0497  0.3165 -0.1514
18938TIP3    H278306   5.793   0.178   2.459 -0.1516 -0.5749  0.5524
18939TIP3   OH278307   1.571   2.017   0.824  0.7813 -0.1342  0.2286
18939TIP3    H178308   1.618   1.940   0.790  1.1549 -0.3627  1.2365
18939TIP3    H278309   1.641   2.075   0.855  0.3917 -0.8481  2.5314
18940TIP3   OH278310   5.680   0.772   0.692  0.5215 -0.0007  0.4250
18940TIP3    H178311   5.624   0.833   0.740  1.6582  0.4734  1.1802
18940TIP3    H278312   5.756   0.759   0.749 -0.5374 -3.6078  1.1687
18941TIP3   OH278313   5.700   6.646  16.852  0.0336 -0.2709 -0.4908
18941TIP3    H178314   5.696   6.734  16.815 -1.4735  1.1177  2.7953
18941TIP3    H278315   5.786   6.642  16.896 -0.9896  0.6086  1.6823
18942TIP3   OH278316   4.751   1.777   2.438 -0.1665 -0.2186 -0.0563
18942TIP3    H178317   4.743   1.722   2.360 -0.8224  0.3739 -0.4175
18942TIP3    H278318   4.843   1.772   2.462 -0.5035 -2.7363  0.8545
18943TIP3   OH278319   1.456   0.542   0.502  0.1314  0.0298  0.2160
18943TIP3    H178320   1.402   0.493   0.564 -0.1613  0.4375  0.2902
18943TIP3    H278321   1.485   0.619   0.551 -1.8120  1.4324 -0.7507
18944TIP3   OH278322   4.131   0.102  11.148 -0.3557  0.2399 -0.1762
18944TIP3    H178323   4.177   0.184  11.164 -0.7868  0.4041  0.2345
18944TIP3    H278324   4.189   0.034  11.182  0.1987  0.3353 -0.9128
18945TIP3   OH278325   5.280   3.485   5.256 -0.6824  0.4818  0.2976
18945TIP3    H178326   5.335   3.410   5.276 -0.3266  0.5515 -0.3744
18945TIP3    H278327   5.191   3.457   5.276 -0.4024  0.3745  1.4059
18946TIP3   OH278328   5.450   1.392  12.947 -0.0368 -0.0270 -0.4604
18946TIP3    H178329   5.499   1.323  12.993  0.7527  1.3865  0.8537
18946TIP3    H278330   5.503   1.412  12.871  1.8295  1.9635  1.3048
18947TIP3   OH278331   1.203   4.887   0.328 -0.5672 -0.0623  0.3058
18947TIP3    H178332   1.151   4.851   0.400 -1.5536  1.4618  0.3919
18947TIP3    H278333   1.140   4.896   0.256 -0.1287  0.6224  0.0059
18948TIP3   OH278334   2.053   1.998  14.482 -1.0791 -0.1580  0.4853
18948TIP3    H178335   1.988   2.058  14.446 -0.4784  1.8361  2.5713
18948TIP3    H278336   2.002   1.922  14.510 -2.0666  0.0181 -0.7735
18949TIP3   OH278337   3.184   0.235   5.747 -0.0733  0.3753  0.1318
18949TIP3    H178338   3.152   0.326   5.753  1.0759  0.7841  0.1554
18949TIP3    H278339   3.274   0.243   5.717 -0.3010 -0.8284 -0.9203
18950TIP3   OH278340   4.097   0.261   1.839  0.1613 -0.2064 -0.1265
18950TIP3    H178341   4.149   0.214   1.774  0.3376 -0.1439 -0.0297
18950TIP3    H278342   4.007   0.233   1.823  0.3642 -1.2480  0.4929
18951TIP3   OH278343   4.915   6.360  13.384  0.7537 -0.1286  0.4744
18951TIP3    H178344   4.915   6.310  13.302 -1.9767  0.0032  0.3263
18951TIP3    H278345   4.888   6.448  13.358 -3.8905 -0.9857  1.8994
18952TIP3   OH278346   4.271   4.614  15.259 -0.1181  0.0632 -0.2483
18952TIP3    H178347   4.226   4.663  15.190  0.6399  1.1931  0.0457
18952TIP3    H278348   4.294   4.531  15.218  1.6516  1.3018 -1.8360
18953TIP3   OH278349   0.220   3.008  12.124 -0.1306 -0.0514 -0.3939
18953TIP3    H178350   0.275   2.931  12.111  2.6531  2.0550 -1.6564
18953TIP3    H278351   0.244   3.040  12.212  1.8586  1.6974 -1.5148
18954TIP3   OH278352   3.717   3.637  16.085  0.3338 -0.0612 -0.5122
18954TIP3    H178353   3.672   3.556  16.109 -0.3151  0.3360 -0.3967
18954TIP3    H278354   3.704   3.645  15.991 -3.3600  2.1842  0.1126
18955TIP3   OH278355   6.057   4.255   3.324 -0.1219  0.8036  0.1059
18955TIP3    H178356   6.136   4.264   3.379 -0.7203  0.0580  1.1095
18955TIP3    H278357   5.986   4.290   3.379 -0.8801 -0.8332  0.1996
18956TIP3   OH278358   3.935   1.603  12.728  0.7475 -0.1494  0.3686
18956TIP3    H178359   3.865   1.583  12.667  0.8632  0.8937 -0.1020
18956TIP3    H278360   4.015   1.594  12.676  0.7632  2.3459 -0.0715
18957TIP3   OH278361   2.245   5.013   3.243 -0.3890 -0.3426 -1.0399
18957TIP3    H178362   2.277   4.933   3.285  0.4879 -0.0088 -1.0751
18957TIP3    H278363   2.150   5.011   3.259 -0.2604 -0.9430 -0.2839
18958TIP3   OH278364   4.920   5.493  14.629 -0.1606  0.2498 -0.5399
18958TIP3    H178365   4.955   5.482  14.541  0.2117  1.0575 -0.5049
18958TIP3    H278366   4.935   5.410  14.673  0.1634  0.0349 -1.0634
18959TIP3   OH278367   1.034   1.412  12.430  0.5949  0.4702  0.2700
18959TIP3    H178368   1.078   1.328  12.437 -0.2153  0.2025  2.4583
18959TIP3    H278369   0.953   1.393  12.381  0.0210 -0.1840  1.4672
18960TIP3   OH278370   1.417   3.263   1.597 -0.0926  0.3115 -0.7124
18960TIP3    H178371   1.404   3.226   1.684 -1.9711  2.2604 -0.1371
18960TIP3    H278372   1.420   3.187   1.539  3.0352 -1.1316  1.2103
18961TIP3   OH278373   1.450   2.242   5.798 -0.4386  0.0170 -0.7051
18961TIP3    H178374   1.478   2.332   5.818 -2.6103  0.6297 -0.3278
18961TIP3    H278375   1.374   2.227   5.854  0.7753 -2.6179  0.3306
18962TIP3   OH278376   1.637   4.132   2.180 -0.5168  0.3450 -0.3281
18962TIP3    H178377   1.699   4.183   2.232 -0.3296  0.3935 -0.5954
18962TIP3    H278378   1.671   4.138   2.091  0.9955 -2.4346  0.0136
18963TIP3   OH278379   4.264   1.749  12.647  0.0198 -0.6130  0.7772
18963TIP3    H178380   4.324   1.694  12.698 -0.5125 -1.7247  0.2213
18963TIP3    H278381   4.247   1.698  12.567  1.5746  1.5036 -0.9538
18964TIP3   OH278382   4.606   1.611  14.764 -0.1721  0.6267  0.5517
18964TIP3    H178383   4.678   1.600  14.702 -2.2475  1.0054 -2.0171
18964TIP3    H278384   4.620   1.698  14.802  0.8060  0.6530  0.1481
18965TIP3   OH278385   3.103   5.093  17.253 -0.5507 -0.0472  0.1185
18965TIP3    H178386   3.104   4.998  17.257  0.1057 -0.1626 -2.2605
18965TIP3    H278387   3.019   5.115  17.213 -0.7451  0.3910  0.7466
18966TIP3   OH278388   3.515   5.219   4.635  0.5842  0.1615 -0.5130
18966TIP3    H178389   3.518   5.140   4.689  2.2572  0.1763 -0.5556
18966TIP3    H278390   3.482   5.190   4.550  0.1781 -0.2852 -0.2044
18967TIP3   OH278391   1.506   6.292  12.030  0.1538 -0.5529  0.0889
18967TIP3    H178392   1.545   6.233  11.966 -0.9019  2.9706 -3.9952
18967TIP3    H278393   1.411   6.282  12.017 -0.2070 -1.8787  3.1837
18968TIP3   OH278394   6.283   4.003   6.513 -0.1418 -0.1229 -0.2315
18968TIP3    H178395   6.295   3.915   6.549  1.3121  0.6912  1.3795
18968TIP3    H278396   6.308   3.995   6.421 -0.1817 -1.4439 -0.1345
18969TIP3   OH278397   2.981   4.794   2.512  0.3667  0.1694  0.3674
18969TIP3    H178398   2.976   4.871   2.567 -0.2920  0.0571  0.4799
18969TIP3    H278399   2.916   4.734   2.550 -0.5568  0.3384 -0.8957
18970TIP3   OH278400   6.779   4.716   2.287 -0.2105  0.1697  0.1308
18970TIP3    H178401   6.711   4.650   2.274 -0.7028  0.6269  0.3629
18970TIP3    H278402   6.852   4.668   2.325 -0.3759 -0.3386 -0.1825
18971TIP3   OH278403   3.911   5.312   4.998  0.1826  0.7640 -0.2049
18971TIP3    H178404   4.003   5.285   5.000  0.3719  1.4742  1.3374
18971TIP3    H278405   3.862   5.230   4.993  0.8589  0.2939  0.7214
18972TIP3   OH278406   4.130   4.476  11.048  0.4350 -0.4555  0.0047
18972TIP3    H178407   4.047   4.497  11.091  0.5549  0.9269 -0.3932
18972TIP3    H278408   4.105   4.454  10.958  0.6089  1.3430 -0.5028
18973TIP3   OH278409   1.892   0.915   1.994  0.0367  0.2743 -0.3829
18973TIP3    H178410   1.842   0.882   1.919 -0.9378  1.1325 -0.1250
18973TIP3    H278411   1.840   0.988   2.028  1.5305  1.2708 -0.1753
18974TIP3   OH278412   0.583   0.089  12.101 -0.1989 -0.1513  0.1524
18974TIP3    H178413   0.530   0.135  12.036  0.5344  1.1222  0.4434
18974TIP3    H278414   0.659   0.056  12.053 -0.1056  0.0051  0.1946
18975TIP3   OH278415   0.489   2.846   2.434  0.3081  0.3748  0.0038
18975TIP3    H178416   0.405   2.870   2.395  1.3746 -0.7715 -3.1870
18975TIP3    H278417   0.467   2.810   2.520 -2.6377 -1.4418 -1.4383
18976TIP3   OH278418   2.345   4.767  16.505 -1.1407 -0.0507  0.6030
18976TIP3    H178419   2.383   4.699  16.448 -2.6046 -1.1031  0.8483
18976TIP3    H278420   2.404   4.841  16.497 -0.6931 -0.6023 -1.3939
18977TIP3   OH278421   1.935   3.405  15.208 -0.3115  0.0388 -0.0061
18977TIP3    H178422   1.896   3.477  15.159 -1.2838 -1.5480 -1.6102
18977TIP3    H278423   1.962   3.342  15.141  0.4137 -1.1424  1.3683
18978TIP3   OH278424   1.593   2.137   1.311  0.0716  0.0720  0.2090
18978TIP3    H178425   1.639   2.053   1.319  0.3825  0.1875 -0.3299
18978TIP3    H278426   1.551   2.134   1.225  0.0091  0.4311  0.2240
18979TIP3   OH278427   5.912   0.545  10.775 -0.1347  0.6461 -0.0895
18979TIP3    H178428   5.914   0.636  10.744 -1.8134  0.4274 -0.8925
18979TIP3    H278429   5.823   0.516  10.757 -0.0346 -0.6978  1.5236
18980TIP3   OH278430   0.546   0.182   0.939  0.8428  0.0139  0.2718
18980TIP3    H178431   0.587   0.121   1.000  0.7969 -0.8915 -0.5994
18980TIP3    H278432   0.554   0.140   0.853  0.8691  1.2605 -0.3411
18981TIP3   OH278433   1.681   1.590  14.455 -0.7558 -0.4868  0.1842
18981TIP3    H178434   1.655   1.682  14.454 -1.5605 -0.7115 -1.3623
18981TIP3    H278435   1.700   1.572  14.547  0.0110  1.3853  0.4174
18982TIP3   OH278436   1.105   1.998   6.093  0.2315 -0.1266  0.2997
18982TIP3    H178437   1.027   1.954   6.058  0.1620 -0.3081  0.6796
18982TIP3    H278438   1.088   2.006   6.187 -0.0327  1.2946  0.1368
18983TIP3   OH278439   0.351   1.288  12.821 -0.0814  0.3330  0.3175
18983TIP3    H178440   0.259   1.293  12.795 -0.7129  1.8984  2.6226
18983TIP3    H278441   0.360   1.201  12.859 -1.0445  0.6808  1.4134
18984TIP3   OH278442   6.590   3.606   4.256 -0.5599  0.3339 -0.1462
18984TIP3    H178443   6.519   3.638   4.313 -1.1465  0.0278 -0.7062
18984TIP3    H278444   6.562   3.630   4.168 -0.5212 -0.8288 -0.4783
18985TIP3   OH278445   6.771   4.371  16.132  0.0096 -0.3219  0.0799
18985TIP3    H178446   6.851   4.394  16.180  0.3173 -1.0782 -0.0671
18985TIP3    H278447   6.701   4.412  16.183  0.5352  0.9643 -0.1865
18986TIP3   OH278448   4.599   1.653  12.515  0.5280 -0.2882  0.2813
18986TIP3    H178449   4.678   1.706  12.520 -0.9182  2.1093 -0.8093
18986TIP3    H278450   4.550   1.676  12.594 -1.3159  2.1668 -1.4757
18987TIP3   OH278451   0.699   0.234   6.035 -0.0422 -0.1574 -0.1030
18987TIP3    H178452   0.646   0.202   6.108  1.1261 -2.5642 -0.2720
18987TIP3    H278453   0.774   0.277   6.076 -0.1846 -0.1215  0.1189
18988TIP3   OH278454   5.381   4.275   2.684 -0.6338  0.5266  0.3480
18988TIP3    H178455   5.345   4.193   2.718 -0.3915 -0.6938 -2.2826
18988TIP3    H278456   5.471   4.276   2.715 -0.9735  0.4054  1.3769
18989TIP3   OH278457   6.616   5.569   5.613  0.0733 -0.3436  0.2555
18989TIP3    H178458   6.598   5.552   5.520 -0.1702  0.4549  0.1508
18989TIP3    H278459   6.598   5.486   5.656  0.6138 -0.8438 -0.4736
18990TIP3   OH278460   2.833   1.860  13.900  0.2387  0.1610 -0.3014
18990TIP3    H178461   2.882   1.779  13.888 -0.1493 -0.4724  2.0723
18990TIP3    H278462   2.885   1.910  13.962 -0.7970  0.6222  0.2006
18991TIP3   OH278463   5.978   1.029  12.506  0.0599  0.6095  0.2314
18991TIP3    H178464   5.958   1.033  12.412 -2.0342  2.8291  0.7342
18991TIP3    H278465   6.073   1.020  12.510  0.1938  0.7822 -2.1063
18992TIP3   OH278466   6.675   3.385   4.657  0.0488  0.5974  0.0190
18992TIP3    H178467   6.623   3.326   4.603 -0.1992 -0.9852  1.9595
18992TIP3    H278468   6.716   3.444   4.594 -2.5350  0.6614 -1.6925
18993TIP3   OH278469   0.201   2.347   0.441 -0.1021 -0.0580  0.0043
18993TIP3    H178470   0.247   2.427   0.466 -1.6527  0.8917 -0.1300
18993TIP3    H278471   0.216   2.287   0.515 -0.1344  0.8424  0.7523
18994TIP3   OH278472   3.965   3.306  15.094  0.2295  0.3232  0.1285
18994TIP3    H178473   3.909   3.312  15.017 -0.0178  1.5921  0.3980
18994TIP3    H278474   3.947   3.219  15.130 -0.4730  0.1546 -0.6118
18995TIP3   OH278475   3.307   0.322  14.692  0.7530 -1.0082 -0.6726
18995TIP3    H178476   3.243   0.291  14.756  1.8840 -1.3088  0.3317
18995TIP3    H278477   3.378   0.357  14.745  1.5442 -0.9334 -1.7773
18996TIP3   OH278478   4.746   1.072   4.402 -0.1376  0.0812  0.0852
18996TIP3    H178479   4.717   1.094   4.313 -0.2300 -1.2258 -0.2155
18996TIP3    H278480   4.694   0.996   4.426  0.2667  0.1124  1.0652
18997TIP3   OH278481   5.944   2.472  14.082 -0.3934 -0.0024 -0.1967
18997TIP3    H178482   5.891   2.550  14.066 -0.8823 -0.6323 -1.7811
18997TIP3    H278483   5.888   2.415  14.134 -0.3368  0.3632  0.2692
18998TIP3   OH278484   4.359   2.177  16.299  0.0232 -0.0097  0.1460
18998TIP3    H178485   4.321   2.265  16.296  1.2362  0.4890 -1.4298
18998TIP3    H278486   4.432   2.184  16.361  0.8329  0.4049 -0.8397
18999TIP3   OH278487   0.266   2.694  12.481 -0.4963  0.3869  0.3400
18999TIP3    H178488   0.193   2.714  12.421 -0.8956  0.0613  0.7155
18999TIP3    H278489   0.281   2.777  12.528  1.0212  1.1832 -1.4705
19000TIP3   OH278490   0.353   5.446   3.035  0.6398 -0.1173 -0.6535
19000TIP3    H178491   0.296   5.393   3.091  1.4083 -0.7278 -0.4511
19000TIP3    H278492   0.310   5.446   2.950  0.2732 -0.4749 -0.4674
19001TIP3   OH278493   5.971   3.537   2.427  0.0657  0.1423 -0.3966
19001TIP3    H178494   5.906   3.608   2.428 -0.3162 -0.2149  0.5431
19001TIP3    H278495   6.045   3.573   2.378  0.5149  1.7611  1.4033
19002TIP3   OH278496   3.964   2.377   3.898  0.0925 -0.2882  0.0315
19002TIP3    H178497   3.895   2.315   3.923 -0.2917 -0.3252 -1.0890
19002TIP3    H278498   4.033   2.363   3.963 -0.7621 -0.5789  0.8958
19003TIP3   OH278499   4.481   3.521  15.247 -0.4308 -0.4183 -0.2911
19003TIP3    H178500   4.441   3.447  15.201  0.1894  0.8606 -3.0296
19003TIP3    H278501   4.517   3.576  15.177  1.5967  1.0564  1.8190
19004TIP3   OH278502   2.392   5.208   5.814 -0.5376 -0.3692  0.2718
19004TIP3    H178503   2.378   5.113   5.813 -2.8500 -0.0631  0.2407
19004TIP3    H278504   2.484   5.218   5.837 -0.6810 -2.5910  2.0688
19005TIP3   OH278505   3.478   3.327  16.663  0.4836 -0.2226 -0.5934
19005TIP3    H178506   3.416   3.261  16.631 -0.6851  0.1276  0.9113
19005TIP3    H278507   3.458   3.336  16.756  1.1366  1.7247 -0.6279
19006TIP3   OH278508   6.452   5.585  16.705  0.2072  0.3736  0.0274
19006TIP3    H178509   6.446   5.505  16.757 -0.8545  1.2590  1.3281
19006TIP3    H278510   6.457   5.555  16.614 -1.4920 -1.1412  0.3964
19007TIP3   OH278511   1.102   5.001  15.536 -0.1241 -0.3214  0.5386
19007TIP3    H178512   1.011   5.032  15.536 -0.2393 -0.6010 -1.4531
19007TIP3    H278513   1.148   5.060  15.476  0.3521 -1.9316 -0.7469
19008TIP3   OH278514   6.293   2.974   3.430 -0.1322 -0.3328  0.1764
19008TIP3    H178515   6.378   2.973   3.473 -0.1608 -1.8103  0.2339
19008TIP3    H278516   6.253   3.057   3.456  2.6977  2.0689 -2.6543
19009TIP3   OH278517   4.972   2.531   4.682 -0.4624 -0.2135  0.2008
19009TIP3    H178518   4.987   2.448   4.636 -0.4725 -0.7268  1.0975
19009TIP3    H278519   5.035   2.530   4.754  0.9920  1.5363 -0.9911
19010TIP3   OH278520   0.478   2.330  14.523  0.2687 -0.1315 -0.1267
19010TIP3    H178521   0.531   2.313  14.445  2.2647 -0.1278  1.1762
19010TIP3    H278522   0.493   2.254  14.579  2.4924  1.8566  2.1262
19011TIP3   OH278523   0.798   3.648   5.389 -0.2292  0.5805 -0.0131
19011TIP3    H178524   0.727   3.589   5.363 -0.3681  0.9392 -0.4467
19011TIP3    H278525   0.828   3.613   5.473  0.5701 -0.8940 -0.8720
19012TIP3   OH278526   3.997   0.074  13.291 -0.4742  0.0130 -0.2138
19012TIP3    H178527   4.057   0.022  13.237 -0.6027  1.0716 -1.4003
19012TIP3    H278528   4.024   0.055  13.381 -1.5589 -3.3373 -0.5177
19013TIP3   OH278529   1.956   4.612   2.195 -0.0751  0.7128  0.0776
19013TIP3    H178530   2.024   4.548   2.214 -1.6903 -1.6438 -1.8428
19013TIP3    H278531   1.990   4.694   2.232  2.4742 -0.9907  1.6904
19014TIP3   OH278532   4.711   2.771   1.962 -0.3742  0.2714  0.5784
19014TIP3    H178533   4.697   2.854   2.008 -0.9227  1.3773 -1.5634
19014TIP3    H278534   4.807   2.766   1.953 -0.2379 -0.1169  2.1157
19015TIP3   OH278535   5.365   5.819   1.593  0.1855 -0.6094  0.2033
19015TIP3    H178536   5.459   5.812   1.611  0.2409 -0.2475  0.0577
19015TIP3    H278537   5.345   5.912   1.605 -0.0317 -0.5834 -0.3642
19016TIP3   OH278538   2.690   6.708   4.053  0.2224  0.3639  0.1462
19016TIP3    H178539   2.602   6.675   4.032  0.4187  0.1927 -0.4230
19016TIP3    H278540   2.675   6.798   4.083 -0.2919 -0.1323  1.4449
19017TIP3   OH278541   3.401   4.019   3.447 -0.0411  0.1821  0.4214
19017TIP3    H178542   3.455   4.088   3.409  1.2721 -2.0070 -1.8886
19017TIP3    H278543   3.458   3.975   3.510 -0.1630 -0.1460  0.3057
19018TIP3   OH278544   4.334   5.870   2.400 -0.2088  0.3794 -0.3873
19018TIP3    H178545   4.354   5.794   2.345  0.2501  0.7032 -0.6720
19018TIP3    H278546   4.400   5.867   2.469 -0.8216 -0.0596  0.1773
19019TIP3   OH278547   1.225   1.858   3.962 -0.2243  0.0441  0.2014
19019TIP3    H178548   1.244   1.927   3.899 -0.0226 -0.3069 -0.1276
19019TIP3    H278549   1.161   1.896   4.022 -0.0482  0.5426  0.0739
19020TIP3   OH278550   2.797   0.499   6.536 -0.2671 -0.4082 -0.3103
19020TIP3    H178551   2.743   0.565   6.492 -1.0162 -1.3062 -0.7792
19020TIP3    H278552   2.886   0.516   6.506 -0.5053  0.1876 -0.6836
19021TIP3   OH278553   4.676   2.014   5.037  0.4954 -0.6872  0.9579
19021TIP3    H178554   4.666   2.084   4.972 -0.1506  0.5266  2.3354
19021TIP3    H278555   4.595   1.963   5.028  1.0857 -1.4232 -0.2337
19022TIP3   OH278556   1.692   3.649  15.216 -0.0855 -0.1692 -0.2257
19022TIP3    H178557   1.729   3.621  15.300 -1.6242 -1.8099 -0.0358
19022TIP3    H278558   1.649   3.570  15.182 -1.5481  1.0985 -1.4044
19023TIP3   OH278559   4.581   5.358   4.790 -0.2603 -0.2673  0.3289
19023TIP3    H178560   4.673   5.359   4.763 -0.7126 -1.6681 -1.3510
19023TIP3    H278561   4.557   5.450   4.796  0.8102  0.1126 -0.8695
19024TIP3   OH278562   5.373   6.173  14.937  0.4058 -0.4400  0.7550
19024TIP3    H178563   5.382   6.230  15.013  0.2619  0.8151 -0.1520
19024TIP3    H278564   5.444   6.198  14.878  0.4760 -1.3525  0.4306
19025TIP3   OH278565   5.042   2.968  11.964 -0.3782  0.2482 -0.1447
19025TIP3    H178566   4.980   2.988  12.034 -1.8373 -1.2911 -0.9818
19025TIP3    H278567   5.090   2.892  11.996  0.0847  0.5517 -0.1161
19026TIP3   OH278568   3.406   6.255  16.737  0.1946 -0.7003  0.3442
19026TIP3    H178569   3.380   6.208  16.658  0.4290  0.7438 -0.6089
19026TIP3    H278570   3.485   6.209  16.767  1.5238  0.1877 -1.6338
19027TIP3   OH278571   4.254   4.173  16.532 -0.1929 -0.2547 -0.3194
19027TIP3    H178572   4.183   4.124  16.574  0.1543  0.3099  0.9226
19027TIP3    H278573   4.323   4.178  16.598 -0.1240  1.7068 -0.5189
19028TIP3   OH278574   0.984   0.850   2.965 -0.0174  0.2628 -0.1489
19028TIP3    H178575   1.004   0.807   3.048  1.2521  0.3491 -0.4083
19028TIP3    H278576   0.897   0.816   2.941 -0.3750  0.2112  1.1861
19029TIP3   OH278577   2.677   4.096   3.347 -0.2820  0.1917  0.0849
19029TIP3    H178578   2.762   4.052   3.346 -0.6568 -0.5371 -0.1279
19029TIP3    H278579   2.623   4.044   3.407 -1.2059 -0.5804 -1.3796
19030TIP3   OH278580   2.353   0.263  14.206  0.4078 -0.2393  0.7478
19030TIP3    H178581   2.282   0.311  14.249  0.0978 -1.1111  1.2384
19030TIP3    H278582   2.391   0.210  14.276  2.8045  1.6472  0.9237
19031TIP3   OH278583   1.955   4.220  12.456 -0.3225  0.0705 -0.3258
19031TIP3    H178584   1.908   4.137  12.444 -1.2945  0.3707  1.1866
19031TIP3    H278585   2.041   4.205  12.418 -0.0445 -2.0716  1.0668
19032TIP3   OH278586   4.042   1.081  11.015 -0.3873  0.3982  0.2832
19032TIP3    H178587   4.123   1.131  11.008  0.9281 -1.5966  0.7805
19032TIP3    H278588   4.070   0.989  11.016 -2.6374 -0.3295  0.6366
19033TIP3   OH278589   6.213   6.043   2.044  0.0544 -0.7750 -0.4129
19033TIP3    H178590   6.220   6.002   1.958 -0.7199 -1.7918 -0.0175
19033TIP3    H278591   6.258   5.982   2.103 -0.4020 -0.6517  0.0654
19034TIP3   OH278592   0.377   1.804   5.562  0.3258 -0.1260  0.2281
19034TIP3    H178593   0.285   1.818   5.538  0.0228 -0.9849  0.8603
19034TIP3    H278594   0.426   1.862   5.504 -0.5672 -0.1694 -0.5821
19035TIP3   OH278595   2.367   1.757  11.757 -0.0768 -0.1250 -0.1436
19035TIP3    H178596   2.289   1.706  11.735 -0.8564 -0.2485  2.7250
19035TIP3    H278597   2.434   1.724  11.698 -1.1376 -2.9365  0.1514
19036TIP3   OH278598   5.604   6.041   2.993  0.6663  0.3655 -0.6793
19036TIP3    H178599   5.537   6.109   2.988  1.1638  0.8455 -0.9287
19036TIP3    H278600   5.676   6.081   3.043  0.3984 -0.4635  0.3904
19037TIP3   OH278601   6.687   6.021   5.277 -0.0340  0.3671  0.1977
19037TIP3    H178602   6.617   6.064   5.227 -1.6627 -1.0748  1.1531
19037TIP3    H278603   6.646   5.999   5.361  0.9692 -2.2849  0.0460
19038TIP3   OH278604   5.290   2.664   1.605  0.0251  0.2506 -0.1089
19038TIP3    H178605   5.299   2.572   1.581  1.5240  0.2533  0.3664
19038TIP3    H278606   5.222   2.698   1.548 -1.1832 -1.3777  0.3553
19039TIP3   OH278607   1.461   4.609  13.734  0.3523 -0.6612  0.5806
19039TIP3    H178608   1.535   4.663  13.760  0.4059 -0.7877  0.6903
19039TIP3    H278609   1.444   4.553  13.810  0.3786 -0.8880  0.4202
19040TIP3   OH278610   1.493   4.323  14.779 -0.0767 -0.1509 -0.4850
19040TIP3    H178611   1.439   4.335  14.701 -0.9748 -2.0555 -0.1919
19040TIP3    H278612   1.545   4.245  14.761  1.9872  1.1801 -0.4158
19041TIP3   OH278613   2.669   5.835  12.261 -0.0382  0.4626  0.0447
19041TIP3    H178614   2.622   5.780  12.198  0.8262  0.4406 -0.5915
19041TIP3    H278615   2.713   5.773  12.318  0.5477  0.4834 -0.3772
19042TIP3   OH278616   0.473   0.039   4.967  0.5252  0.2994 -0.0907
19042TIP3    H178617   0.448  -0.017   5.040 -0.6330  2.4443  1.2063
19042TIP3    H278618   0.452  -0.013   4.889 -1.0047 -0.8710  1.0621
19043TIP3   OH278619   3.296   2.708   3.882  0.8381 -0.0932 -0.4582
19043TIP3    H178620   3.320   2.655   3.806  2.1960 -0.8031  0.4390
19043TIP3    H278621   3.265   2.645   3.947 -0.0934  0.4861 -0.3340
19044TIP3   OH278622   3.505   2.019  13.525 -0.2720  0.6697 -0.3978
19044TIP3    H178623   3.525   1.974  13.443  0.0164  0.5051 -0.2354
19044TIP3    H278624   3.580   2.076  13.540  0.2630 -0.2279  0.4047
19045TIP3   OH278625   0.752   5.725  13.579  0.1987 -0.4837  0.0387
19045TIP3    H178626   0.739   5.652  13.518 -0.1721 -0.6380  0.2953
19045TIP3    H278627   0.672   5.726  13.632  0.4358 -0.2302  0.3932
19046TIP3   OH278628   0.378   3.392   2.131  0.3142 -0.3249 -0.4186
19046TIP3    H178629   0.361   3.311   2.178  1.2177 -0.7183 -0.7559
19046TIP3    H278630   0.451   3.371   2.072  1.1093  0.9444  0.0735
19047TIP3   OH278631   0.356   5.779  15.285  0.1138 -0.2778 -0.2467
19047TIP3    H178632   0.283   5.827  15.246  0.6872  1.2010  0.4907
19047TIP3    H278633   0.323   5.689  15.293 -1.0467  0.0181 -1.4176
19048TIP3   OH278634   2.201   5.026  12.809  0.1913 -0.3777 -0.4203
19048TIP3    H178635   2.239   4.950  12.765 -1.5131  0.1240 -2.8588
19048TIP3    H278636   2.124   5.048  12.757  0.0203  2.3579  0.8919
19049TIP3   OH278637   2.121   0.476   4.429  0.7379  0.3018 -0.7607
19049TIP3    H178638   2.099   0.385   4.409  1.5502 -0.1126  0.1815
19049TIP3    H278639   2.198   0.470   4.486 -2.6275  1.3478  4.1952
19050TIP3   OH278640   3.376   4.285   2.806  0.1553  0.2712 -0.2060
19050TIP3    H178641   3.454   4.325   2.768 -2.4056  2.5656 -3.3802
19050TIP3    H278642   3.347   4.222   2.740 -1.0035 -0.1103  0.6442
19051TIP3   OH278643   2.071   6.124   1.205  0.7816 -0.3038  0.1683
19051TIP3    H178644   2.134   6.087   1.267  1.6520  0.6117 -0.1462
19051TIP3    H278645   2.074   6.218   1.222 -0.7718 -0.2810  0.3818
19052TIP3   OH278646   1.129   0.245  12.214  0.2824 -0.0156 -0.1215
19052TIP3    H178647   1.218   0.271  12.239 -0.4243  1.5805  0.8135
19052TIP3    H278648   1.076   0.263  12.292 -1.2861  1.3670 -1.4832
19053TIP3   OH278649   0.838   5.513  16.759  0.1437  0.3157 -0.1004
19053TIP3    H178650   0.769   5.456  16.727  1.0692 -1.2573  0.6495
19053TIP3    H278651   0.832   5.508  16.854 -0.3287  2.1913 -0.0088
19054TIP3   OH278652   6.037   1.783   4.570  0.1554  0.3670 -0.0902
19054TIP3    H178653   6.034   1.767   4.475 -0.9363  3.3119 -0.6043
19054TIP3    H278654   5.987   1.710   4.607  0.8933 -1.0298 -1.7228
19055TIP3   OH278655   5.395   1.806   6.411  0.4409 -0.4760  0.3824
19055TIP3    H178656   5.318   1.863   6.402 -0.4003 -1.4665  1.2108
19055TIP3    H278657   5.399   1.785   6.504  1.6512 -0.5511  0.3295
19056TIP3   OH278658   6.689   2.137  16.897 -0.5563 -0.6481 -0.3251
19056TIP3    H178659   6.679   2.226  16.862  1.0394  0.1887  1.2493
19056TIP3    H278660   6.658   2.080  16.827  1.9973  0.9709 -2.8988
19057TIP3   OH278661   3.048   3.497  12.900  0.2352  0.2274  0.4038
19057TIP3    H178662   3.068   3.406  12.879  0.4048  0.2477  0.4759
19057TIP3    H278663   2.954   3.505  12.888 -0.0699 -0.4288  2.1410
19058TIP3   OH278664   1.630   1.562  12.757  0.4229 -0.3977 -0.0604
19058TIP3    H178665   1.580   1.480  12.759 -1.7232  0.8648 -0.0344
19058TIP3    H278666   1.682   1.560  12.838  0.4976 -1.7896 -0.1267
19059TIP3   OH278667   1.762   2.368   5.795 -0.5972  0.1907 -0.0046
19059TIP3    H178668   1.743   2.459   5.818 -1.8146  0.2637 -1.2185
19059TIP3    H278669   1.846   2.371   5.750 -1.0266  0.8294 -0.7658
19060TIP3   OH278670   0.640   4.450   5.465  0.3513  0.2102 -0.6465
19060TIP3    H178671   0.581   4.525   5.470 -0.3737 -0.4308  1.2271
19060TIP3    H278672   0.625   4.413   5.378 -1.2087  0.7250 -0.6152
19061TIP3   OH278673   0.937   0.140   5.580 -0.3481 -0.1691  0.4254
19061TIP3    H178674   1.028   0.141   5.611  0.3306 -0.2703 -1.5079
19061TIP3    H278675   0.930   0.219   5.526 -1.3138 -0.3667  0.2622
19062TIP3   OH278676   4.450   2.161  12.035  0.1300  0.7095  0.3375
19062TIP3    H178677   4.540   2.131  12.018  0.0611  1.7067 -1.9311
19062TIP3    H278678   4.454   2.255  12.021 -1.0285  0.9385  1.4580
19063TIP3   OH278679   0.341   4.127  15.764  1.0039  0.2380  0.5621
19063TIP3    H178680   0.261   4.094  15.721  1.2695 -0.9720  0.9824
19063TIP3    H278681   0.313   4.151  15.852  1.0919 -0.1317  0.6911
19064TIP3   OH278682   3.203   5.033   0.261 -0.0254  0.0735 -0.4760
19064TIP3    H178683   3.172   5.095   0.196  1.3330  0.8378 -0.4030
19064TIP3    H278684   3.204   4.949   0.215 -0.7641  0.3005 -0.9103
19065TIP3   OH278685   1.438   2.067   4.093 -0.0578 -0.3597 -0.1263
19065TIP3    H178686   1.349   2.030   4.096  0.7659 -2.3456  1.1808
19065TIP3    H278687   1.495   1.991   4.099  1.7422  1.0596  1.1390
19066TIP3   OH278688   0.677   4.732  15.371 -0.5965  0.6194  0.7236
19066TIP3    H178689   0.660   4.717  15.464 -0.8252 -1.8260  0.3266
19066TIP3    H278690   0.593   4.715  15.329 -0.1539  0.3454 -0.0560
19067TIP3   OH278691   4.643   6.561   5.309  0.0465 -0.2565 -0.0995
19067TIP3    H178692   4.649   6.602   5.395 -0.1143  2.7669 -1.4591
19067TIP3    H278693   4.612   6.472   5.327  1.7583 -0.2915  3.0772
19068TIP3   OH278694   3.550   2.346  14.039  0.1935  1.3907 -0.1781
19068TIP3    H178695   3.456   2.331  14.045  0.5610 -0.6320  0.8531
19068TIP3    H278696   3.574   2.383  14.124  0.8389 -1.1398  0.7703
19069TIP3   OH278697   1.545   4.085   4.734  0.3804  0.3082 -0.0482
19069TIP3    H178698   1.522   4.066   4.825  0.7781  1.0260  0.2029
19069TIP3    H278699   1.466   4.063   4.685  0.0041  0.3589  0.5280
19070TIP3   OH278700   2.207   1.815  15.639  0.2971  0.6573  0.1230
19070TIP3    H178701   2.218   1.807  15.545  0.7563 -0.2186  0.2416
19070TIP3    H278702   2.174   1.730  15.667  1.9086  0.2762  0.9864
19071TIP3   OH278703   4.215   1.851  15.983  0.2572 -0.1793 -0.0752
19071TIP3    H178704   4.197   1.932  15.935 -3.0271 -0.3115  0.8312
19071TIP3    H278705   4.226   1.880  16.074  3.5823 -0.2650 -0.4012
19072TIP3   OH278706   4.274   5.615   3.994 -0.1621  0.0122  0.3431
19072TIP3    H178707   4.315   5.701   3.982  0.2618 -0.1988  0.2723
19072TIP3    H278708   4.300   5.565   3.917 -1.5648  0.2652 -0.3185
19073TIP3   OH278709   4.236   2.909   5.030 -0.4347 -0.2177 -0.1037
19073TIP3    H178710   4.177   2.911   4.955 -0.2052  1.2285 -0.2572
19073TIP3    H278711   4.304   2.972   5.008 -1.8501  2.3412  2.5205
19074TIP3   OH278712   0.235   3.904  17.229  0.8533  0.2102 -0.0222
19074TIP3    H178713   0.224   3.834  17.165  0.6023 -0.0395  0.2936
19074TIP3    H278714   0.245   3.859  17.313  0.5676  0.5584  0.1987
19075TIP3   OH278715   5.077   2.488  10.898  0.3772 -0.6406 -0.0389
19075TIP3    H178716   4.984   2.489  10.876  0.3160  1.4415  0.1920
19075TIP3    H278717   5.120   2.524  10.820  1.0913 -2.4006 -0.4832
19076TIP3   OH278718   5.590   0.084  16.076  0.8997 -0.0249  0.1512
19076TIP3    H178719   5.611   0.062  16.167  1.4362  0.8963  0.2508
19076TIP3    H278720   5.672   0.115  16.039  0.9824 -1.5339 -1.0063
19077TIP3   OH278721   3.719   4.344   5.471  0.3765  0.9417 -0.3371
19077TIP3    H178722   3.647   4.407   5.479  0.5328  1.0650  0.1492
19077TIP3    H278723   3.767   4.353   5.553  0.0825 -0.2107 -0.0368
19078TIP3   OH278724   3.590   0.754   5.619 -0.2406  0.2859  0.1889
19078TIP3    H178725   3.532   0.752   5.695  1.0811 -1.1991  1.1802
19078TIP3    H278726   3.621   0.664   5.610  1.1808  0.8630 -0.8992
19079TIP3   OH278727   3.335   3.495   2.894 -0.0744  0.3279  0.4249
19079TIP3    H178728   3.368   3.470   2.980  0.1713 -1.0790 -0.0632
19079TIP3    H278729   3.410   3.483   2.835 -0.5653  0.1631 -0.1711
19080TIP3   OH278730   4.266   6.270   4.727 -0.3117 -0.0674  0.0422
19080TIP3    H178731   4.214   6.212   4.782 -0.1907 -1.2111 -1.0166
19080TIP3    H278732   4.355   6.264   4.762 -0.0231 -1.6157 -0.8983
19081TIP3   OH278733   4.203   3.783   5.157 -0.3705  0.8601  0.8729
19081TIP3    H178734   4.187   3.838   5.234 -1.1407 -0.3551  1.5984
19081TIP3    H278735   4.274   3.827   5.111  1.4665  0.5788  3.3241
19082TIP3   OH278736   4.595   5.249  11.718 -0.6442 -0.0557 -0.3448
19082TIP3    H178737   4.668   5.309  11.735  0.8304 -1.4697 -1.5990
19082TIP3    H278738   4.588   5.197  11.798  0.2095 -0.3980 -0.4836
19083TIP3   OH278739   4.288   5.278  17.278 -0.0748  0.0598  0.2838
19083TIP3    H178740   4.378   5.307  17.262 -0.4267  0.4316 -1.1055
19083TIP3    H278741   4.250   5.269  17.191 -0.5896 -2.6790  0.7417
19084TIP3   OH278742   4.212   5.673   0.744  0.2161  0.6250  0.0517
19084TIP3    H178743   4.175   5.760   0.728  0.3377  0.3613 -1.7844
19084TIP3    H278744   4.167   5.616   0.681  0.8168 -0.4720  0.5957
19085TIP3   OH278745   0.111   1.613   3.701 -0.1481 -0.0207 -0.0452
19085TIP3    H178746   0.165   1.547   3.745  0.1836 -0.1547 -0.6471
19085TIP3    H278747   0.146   1.616   3.612 -1.5183 -0.5196 -0.5995
19086TIP3   OH278748   3.854   2.713   6.704 -0.2152  0.4588 -0.3049
19086TIP3    H178749   3.823   2.642   6.761 -1.3818  1.4095  0.2578
19086TIP3    H278750   3.948   2.699   6.699 -0.4790 -1.4290 -0.5981
19087TIP3   OH278751   2.140   5.980  12.188  0.0485  0.2828 -0.0012
19087TIP3    H178752   2.090   5.973  12.107 -1.1500 -0.5642  0.7874
19087TIP3    H278753   2.167   5.890  12.208 -0.6423  0.3149  1.1262
19088TIP3   OH278754   1.729   2.876   2.755 -0.1706 -0.6594  0.0680
19088TIP3    H178755   1.767   2.794   2.786 -0.4558 -0.4894  0.8891
19088TIP3    H278756   1.787   2.944   2.789  0.5830 -0.5597 -1.3869
19089TIP3   OH278757   4.209   3.481   3.534  0.1935 -0.1389  0.1369
19089TIP3    H178758   4.258   3.421   3.478 -0.8657 -1.8859  1.0344
19089TIP3    H278759   4.238   3.460   3.623 -1.7967 -0.8748  0.6458
19090TIP3   OH278760   5.469   0.641   0.443 -0.1960 -0.5096 -0.0252
19090TIP3    H178761   5.412   0.682   0.509  2.4559 -0.7306  2.5198
19090TIP3    H278762   5.459   0.547   0.458 -1.7277 -0.6630 -1.8697
19091TIP3   OH278763   3.502   4.850   4.205  0.7547  0.7050 -0.6104
19091TIP3    H178764   3.527   4.763   4.237 -0.4244  0.2153 -1.0112
19091TIP3    H278765   3.456   4.891   4.278 -0.9462  0.0127 -1.2751
19092TIP3   OH278766   0.846   0.310   1.930  0.0727  0.4979 -0.1714
19092TIP3    H178767   0.770   0.365   1.914 -0.5163 -0.3752 -0.4369
19092TIP3    H278768   0.812   0.221   1.927  1.1829  0.0768 -0.7580
19093TIP3   OH278769   2.964   4.233   0.090  0.0482  0.1748 -0.8870
19093TIP3    H178770   3.000   4.172   0.154 -1.0627  0.9377  0.5025
19093TIP3    H278771   2.877   4.198   0.070 -1.2216  2.0174  1.0546
19094TIP3   OH278772   6.440   1.711  14.551 -0.0803 -0.3279  0.2993
19094TIP3    H178773   6.382   1.674  14.617 -0.6503  0.3806  0.2019
19094TIP3    H278774   6.410   1.672  14.468  1.1047 -1.7872  0.5310
19095TIP3   OH278775   1.098   1.167  14.295  0.0916  0.1668  0.0959
19095TIP3    H178776   1.113   1.213  14.378  0.1122 -0.2709  0.3391
19095TIP3    H278777   1.064   1.234  14.236  3.4661  1.3628 -0.6342
19096TIP3   OH278778   0.547   6.340   0.914  0.0577  0.1766  0.5308
19096TIP3    H178779   0.540   6.248   0.887  0.3822 -0.2352  1.7846
19096TIP3    H278780   0.598   6.382   0.844 -1.5402 -0.2151 -0.8842
19097TIP3   OH278781   5.009   0.918  14.856 -1.0050  0.1876  0.0161
19097TIP3    H178782   5.022   1.012  14.866 -0.9831  0.2244 -0.3767
19097TIP3    H278783   4.935   0.910  14.796 -1.5390 -0.0402  0.6890
19098TIP3   OH278784   0.943   4.349  16.989 -0.0754 -0.4637  0.4339
19098TIP3    H178785   1.012   4.352  17.055  0.5952  0.0592 -0.2772
19098TIP3    H278786   0.905   4.436  16.988  3.0477  1.0061 -3.0946
19099TIP3   OH278787   2.422   1.863   3.845 -0.0588  0.3618 -0.1141
19099TIP3    H178788   2.421   1.775   3.807  0.9550  0.6308 -0.7979
19099TIP3    H278789   2.490   1.859   3.913 -0.7566  0.3218  0.5825
19100TIP3   OH278790   3.556   0.017  11.861 -0.7187 -0.2610 -0.4079
19100TIP3    H178791   3.479   0.073  11.861 -2.0586 -2.0668 -0.2415
19100TIP3    H278792   3.630   0.077  11.855 -2.0817  1.5724  0.7965
19101TIP3   OH278793   4.395   5.563  11.487 -0.1136 -0.1275 -0.2428
19101TIP3    H178794   4.376   5.654  11.466  0.2096 -0.3393 -1.4846
19101TIP3    H278795   4.348   5.513  11.420 -1.2146 -0.9186  1.1013
19102TIP3   OH278796   3.512   5.690   5.178  0.0997  0.0969  0.2136
19102TIP3    H178797   3.494   5.775   5.217 -0.7642 -0.7106  1.6472
19102TIP3    H278798   3.598   5.699   5.136  1.1715  0.9385  2.5469
19103TIP3   OH278799   2.132   3.876  11.457  0.1982  0.1705 -0.1729
19103TIP3    H178800   2.128   3.960  11.501  2.7426  0.7097 -0.9019
19103TIP3    H278801   2.175   3.894  11.374  1.1141 -1.8879 -0.1831
19104TIP3   OH278802   5.059   0.207  13.982  0.2279 -0.0667  0.2217
19104TIP3    H178803   5.108   0.169  14.055  0.8311 -0.4720 -0.3888
19104TIP3    H278804   4.978   0.156  13.979  0.2103 -0.0647  0.5902
19105TIP3   OH278805   5.632   1.890  16.535  0.5255  0.5361  0.3033
19105TIP3    H178806   5.635   1.832  16.459  2.2854 -0.2098  0.9164
19105TIP3    H278807   5.709   1.946  16.525 -1.3795  3.1093 -0.5232
19106TIP3   OH278808   0.294   6.346  12.010 -0.2181  0.5906  0.1545
19106TIP3    H178809   0.204   6.379  12.004  0.2379  1.8840  0.2834
19106TIP3    H278810   0.325   6.378  12.095  0.2341 -0.1930  0.2883
19107TIP3   OH278811   1.113   3.399   1.829 -0.4034 -0.0886 -0.2042
19107TIP3    H178812   1.044   3.444   1.878 -0.1348  0.0892  0.0082
19107TIP3    H278813   1.140   3.328   1.887  1.7713  1.7130  1.0373
19108TIP3   OH278814   0.277   3.060   2.569  0.2834 -0.1131 -0.0043
19108TIP3    H178815   0.348   3.097   2.621  2.0651 -2.4479 -0.6930
19108TIP3    H278816   0.276   2.967   2.592  0.7208 -1.1054 -3.6437
19109TIP3   OH278817   0.207   1.670   2.227 -0.4266  0.1801 -0.1680
19109TIP3    H178818   0.118   1.703   2.229  0.0195  1.3466  1.0519
19109TIP3    H278819   0.235   1.681   2.136 -1.5646 -0.3461 -0.5887
19110TIP3   OH278820   1.192   2.981   1.001  0.0737  0.3336  0.1408
19110TIP3    H178821   1.152   2.909   1.048 -1.1351  0.8723 -0.0426
19110TIP3    H278822   1.144   3.059   1.030 -0.5150  0.7146 -1.7569
19111TIP3   OH278823   2.702   2.143  14.255 -0.5881 -0.5136  0.1764
19111TIP3    H178824   2.731   2.152  14.346 -1.0122  1.1400  0.1694
19111TIP3    H278825   2.627   2.202  14.248 -0.0030  0.0607 -1.4819
19112TIP3   OH278826   4.324   3.072  16.041  0.2432  0.2094 -0.1886
19112TIP3    H178827   4.257   3.012  16.008 -1.0087  0.9427  0.9742
19112TIP3    H278828   4.285   3.158  16.032  1.2631  0.6981  0.0080
19113TIP3   OH278829   2.586   6.391  12.466 -0.0631  0.2915 -0.2650
19113TIP3    H178830   2.621   6.389  12.377  0.2562  0.7277 -0.1472
19113TIP3    H278831   2.573   6.483  12.486 -0.8146  0.1584 -0.1237
19114TIP3   OH278832   3.980   1.193   2.949  0.2991  0.3046  0.1081
19114TIP3    H178833   4.069   1.158   2.955  0.4991  1.0416  1.6497
19114TIP3    H278834   3.990   1.286   2.969 -0.9093  0.2461  1.0104
19115TIP3   OH278835   3.600   3.876   0.428  0.4727  0.3718 -0.2973
19115TIP3    H178836   3.664   3.897   0.495  0.4977 -1.9436  0.4539
19115TIP3    H278837   3.533   3.943   0.436  2.0473  1.9744 -0.1239
19116TIP3   OH278838   4.035   1.211  11.335 -0.0875 -0.3330 -0.0458
19116TIP3    H178839   4.011   1.267  11.261  1.6920 -0.4894 -0.7586
19116TIP3    H278840   3.951   1.188  11.375 -0.9877  0.9409 -1.1348
19117TIP3   OH278841   6.263   6.585  15.183  0.1531  0.6457  0.3815
19117TIP3    H178842   6.214   6.646  15.127 -0.1491 -0.5180 -0.6434
19117TIP3    H278843   6.351   6.622  15.188  0.1982  0.7350 -0.9123
19118TIP3   OH278844   5.816   5.284  16.880 -0.5529 -0.0162  1.2177
19118TIP3    H178845   5.762   5.205  16.892  0.7559 -0.8621  1.6488
19118TIP3    H278846   5.755   5.357  16.893 -1.7798 -0.9513  0.8202
19119TIP3   OH278847   5.977   5.543   4.855 -0.0035 -0.5552 -0.1563
19119TIP3    H178848   5.950   5.573   4.768  1.4915 -2.5144 -1.3490
19119TIP3    H278849   5.914   5.475   4.877  0.9363 -1.6319 -0.7303
19120TIP3   OH278850   3.024   5.268  12.099  0.4807  0.7454 -0.1311
19120TIP3    H178851   3.031   5.357  12.134 -0.4075  0.6905  0.2233
19120TIP3    H278852   3.020   5.280  12.004 -0.5897  1.1641 -0.0441
19121TIP3   OH278853   5.805   1.505  16.631 -0.4965 -0.4596 -0.1998
19121TIP3    H178854   5.734   1.485  16.692 -0.1681  3.4711  1.6448
19121TIP3    H278855   5.766   1.496  16.544 -2.7164 -0.3292  0.7485
19122TIP3   OH278856   2.915   6.380   2.372 -0.2631 -0.1014  0.2016
19122TIP3    H178857   2.822   6.364   2.354  0.1964  0.0716 -2.6428
19122TIP3    H278858   2.949   6.417   2.290  1.5826  3.0016  2.2646
19123TIP3   OH278859   5.841   4.368   4.863  0.1437 -0.3467  0.4258
19123TIP3    H178860   5.920   4.314   4.871  1.0622  0.9351  0.1107
19123TIP3    H278861   5.796   4.358   4.947  0.7677 -0.8600  0.7045
19124TIP3   OH278862   3.103   4.182  11.378 -0.6127 -0.0878  0.7486
19124TIP3    H178863   3.081   4.117  11.311  2.2093 -1.6992  1.3143
19124TIP3    H278864   3.093   4.267  11.333 -1.4640 -1.0045 -0.8540
19125TIP3   OH278865   3.823   4.656   0.791 -0.0716  0.0330  0.4468
19125TIP3    H178866   3.837   4.735   0.739 -0.6922  0.0001  0.2278
19125TIP3    H278867   3.823   4.687   0.882  0.2386  0.2018  0.3886
19126TIP3   OH278868   6.406   5.436  14.139 -0.0461  1.1286 -0.4969
19126TIP3    H178869   6.384   5.436  14.046  1.0855  1.9505 -0.7807
19126TIP3    H278870   6.501   5.421  14.141 -0.2611 -0.1893  0.5848
19127TIP3   OH278871   4.216   2.639   3.045  0.2948  0.4303  0.1074
19127TIP3    H178872   4.160   2.573   3.004  0.2897  0.4731  0.0452
19127TIP3    H278873   4.186   2.642   3.136  1.5635 -1.0174  0.5931
19128TIP3   OH278874   4.084   5.688   4.688  0.1518 -0.1487  0.2498
19128TIP3    H178875   4.063   5.769   4.641  0.5694  0.6249  1.3905
19128TIP3    H278876   4.041   5.697   4.773  0.0232 -1.2247  0.3102
19129TIP3   OH278877   4.414   6.519   5.844 -0.1717 -0.2921  0.3358
19129TIP3    H178878   4.484   6.502   5.782  0.1632  2.0789  0.0131
19129TIP3    H278879   4.435   6.464   5.920  2.0468  0.3839  0.2418
19130TIP3   OH278880   1.834   0.933  11.195 -0.0895 -0.0179 -0.1503
19130TIP3    H178881   1.786   1.016  11.188 -0.0873  0.4061  3.6583
19130TIP3    H278882   1.765   0.866  11.199 -0.1945  0.0923 -0.0971
19131TIP3   OH278883   1.033   4.266   0.717 -0.0940 -0.3688  0.5874
19131TIP3    H178884   0.948   4.306   0.735 -1.2880 -1.9999 -1.1537
19131TIP3    H278885   1.030   4.246   0.623  2.0221 -0.9008  0.6124
19132TIP3   OH278886   6.818   2.807   3.962  0.7328  0.0683 -0.0569
19132TIP3    H178887   6.810   2.734   3.901 -2.2937  0.4754 -0.2190
19132TIP3    H278888   6.860   2.876   3.912 -1.2995  0.2397 -1.6084
19133TIP3   OH278889   3.438   5.502  13.800 -0.2756  0.2177 -0.0405
19133TIP3    H178890   3.357   5.470  13.839  0.2536 -1.5946 -0.3632
19133TIP3    H278891   3.500   5.507  13.873  0.3331 -1.8803 -0.3938
19134TIP3   OH278892   5.039   1.772  13.333  0.3377  0.3822  0.3726
19134TIP3    H178893   4.961   1.753  13.282  1.6297 -1.5611 -0.9776
19134TIP3    H278894   5.112   1.758  13.272  2.0359 -3.7168  3.0418
19135TIP3   OH278895   0.112   0.784  13.451  0.3145  0.0294 -0.1932
19135TIP3    H178896   0.052   0.717  13.419  1.5410 -0.5637 -1.2863
19135TIP3    H278897   0.056   0.860  13.469 -1.1899 -1.5106  1.7847
19136TIP3   OH278898   0.390   1.635  12.021 -0.1843  0.1237  0.1517
19136TIP3    H178899   0.356   1.594  12.100 -1.3088 -0.2230 -0.4975
19136TIP3    H278900   0.477   1.597  12.009 -0.9693 -1.6252 -0.1080
19137TIP3   OH278901   1.414   6.434  14.723 -0.0317 -0.0186 -0.0449
19137TIP3    H178902   1.388   6.517  14.683  0.2647  1.6986  3.1407
19137TIP3    H278903   1.331   6.397  14.755 -0.1188 -0.7966 -1.1561
19138TIP3   OH278904   3.334   2.398   0.515  0.6965  0.1558 -0.2744
19138TIP3    H178905   3.319   2.366   0.603  0.5360  0.5649 -0.1524
19138TIP3    H278906   3.275   2.347   0.460 -3.7907  4.0692  0.6084
19139TIP3   OH278907   2.015   1.809   4.384  0.1406  0.0623 -0.2144
19139TIP3    H178908   1.948   1.834   4.448  1.5980  1.2333  0.8851
19139TIP3    H278909   1.966   1.798   4.302 -1.6636 -0.9760  0.9828
19140TIP3   OH278910   4.697   3.720   0.113  0.0620  0.3569 -0.4948
19140TIP3    H178911   4.759   3.669   0.061 -1.5985 -1.1554 -1.0643
19140TIP3    H278912   4.661   3.784   0.051 -0.6941 -0.3476 -0.7899
19141TIP3   OH278913   5.151   6.559  16.466 -0.3726  0.0224  0.6243
19141TIP3    H178914   5.125   6.647  16.437  0.6023  0.5174  1.2317
19141TIP3    H278915   5.103   6.546  16.547  0.8942  0.7590  1.5122
19142TIP3   OH278916   5.699   2.178   4.917  0.2108 -0.4783  0.2975
19142TIP3    H178917   5.675   2.100   4.966 -0.5859 -0.2128  0.3479
19142TIP3    H278918   5.625   2.193   4.858  1.4076 -1.1126 -1.3950
19143TIP3   OH278919   4.357   0.851   3.359 -0.4517 -0.2299 -0.4742
19143TIP3    H178920   4.323   0.815   3.440 -2.3586 -0.6961 -1.4531
19143TIP3    H278921   4.390   0.938   3.382 -0.9330 -0.3828  0.7879
19144TIP3   OH278922   2.440   2.982  11.290  0.4876 -0.3387 -0.1118
19144TIP3    H178923   2.506   3.039  11.250  0.6023 -0.1791  0.2999
19144TIP3    H278924   2.381   3.042  11.336  1.3123 -0.6249  1.3612
19145TIP3   OH278925   4.024   5.881  12.071  0.0670  0.4057  0.2507
19145TIP3    H178926   4.097   5.925  12.114  0.0462  0.6674  0.0160
19145TIP3    H278927   4.047   5.788  12.076 -0.2374  0.3844  1.3745
19146TIP3   OH278928   1.520   3.023  12.162 -0.6329 -0.5085  0.3001
19146TIP3    H178929   1.465   2.960  12.115 -2.4585  1.4559 -0.2689
19146TIP3    H278930   1.590   3.044  12.100 -2.1023  0.8015 -0.9747
19147TIP3   OH278931   0.894   5.717  12.114 -0.1846  0.3560  0.1054
19147TIP3    H178932   0.965   5.709  12.050 -0.3344 -1.1348  0.1086
19147TIP3    H278933   0.930   5.680  12.194 -1.1858 -1.0535 -0.0756
19148TIP3   OH278934   4.678   4.084  15.522  0.1701 -0.2081 -0.5195
19148TIP3    H178935   4.630   4.015  15.477  0.1407 -0.1175 -0.6275
19148TIP3    H278936   4.690   4.051  15.611 -0.8259  0.1240 -0.2550
19149TIP3   OH278937   5.166   5.592   1.553 -0.0297 -0.4454  0.2515
19149TIP3    H178938   5.213   5.664   1.596 -0.2309 -0.7010  0.9057
19149TIP3    H278939   5.081   5.590   1.597 -0.6870  0.0378 -0.9404
19150TIP3   OH278940   2.591   5.303   2.365 -0.0076 -0.0137 -1.1102
19150TIP3    H178941   2.608   5.286   2.273 -0.6130 -2.5498 -0.7977
19150TIP3    H278942   2.675   5.288   2.408 -0.1433 -0.5340 -1.0313
19151TIP3   OH278943   1.001   1.483  15.790  0.4138 -0.8227  0.1324
19151TIP3    H178944   1.033   1.405  15.835 -0.6590 -0.7645  0.9887
19151TIP3    H278945   0.993   1.456  15.698  3.3267 -0.7170 -0.2008
19152TIP3   OH278946   1.006   0.193  12.889 -0.4900 -0.5927 -0.4779
19152TIP3    H178947   0.937   0.183  12.824  0.5050  2.3997 -2.0647
19152TIP3    H278948   0.961   0.184  12.973 -2.3651 -1.1741 -1.5233
19153TIP3   OH278949   5.133   1.873  11.570 -0.3564  0.5037  0.2037
19153TIP3    H178950   5.110   1.966  11.578 -1.3573  0.3975 -1.2166
19153TIP3    H278951   5.050   1.827  11.585  0.7512 -0.3439  4.1891
19154TIP3   OH278952   2.172   1.837  16.542  0.2435  1.0672 -0.3742
19154TIP3    H178953   2.182   1.742  16.532  0.4258  0.9350  0.9728
19154TIP3    H278954   2.261   1.869  16.553  0.1870  1.4184 -0.9160
19155TIP3   OH278955   1.842   3.799   0.956  0.2680 -0.4155  0.2234
19155TIP3    H178956   1.784   3.833   0.888  1.3070 -0.0126 -0.4906
19155TIP3    H278957   1.818   3.847   1.035 -0.0599  0.0757 -0.1733
19156TIP3   OH278958   2.649   0.338   5.654 -0.3966 -0.1954  0.1945
19156TIP3    H178959   2.636   0.274   5.724  0.7216  0.1219  0.6996
19156TIP3    H278960   2.562   0.348   5.614 -1.0135 -0.4686  1.4551
19157TIP3   OH278961   1.007   0.312   3.863 -0.3770  0.2465  0.5578
19157TIP3    H178962   0.932   0.262   3.831  0.4426 -1.0235  0.5466
19157TIP3    H278963   1.035   0.365   3.789  1.0515 -2.1211 -0.6859
19158TIP3   OH278964   4.540   3.222  16.263 -0.1868  0.1126 -0.4048
19158TIP3    H178965   4.554   3.273  16.343  2.4745 -1.0613 -0.0671
19158TIP3    H278966   4.514   3.287  16.198 -0.1192  1.4247  0.8476
19159TIP3   OH278967   0.277   6.364  16.633 -0.1207  0.2390 -0.1838
19159TIP3    H178968   0.211   6.296  16.649  1.6359 -1.9055 -1.7691
19159TIP3    H278969   0.283   6.370  16.538  1.6377  0.7221 -0.0546
19160TIP3   OH278970   5.966   1.339  14.721  0.1359 -0.2345 -0.1229
19160TIP3    H178971   6.040   1.363  14.665 -0.1916  1.4697  0.1359
19160TIP3    H278972   5.908   1.416  14.718 -0.7533 -0.8428  1.0942
19161TIP3   OH278973   2.349   4.011   3.285  0.1839 -0.4584 -0.0049
19161TIP3    H178974   2.393   3.988   3.366  1.2536 -0.0565 -0.4650
19161TIP3    H278975   2.410   3.985   3.216 -0.5216 -0.3839 -0.6644
19162TIP3   OH278976   2.075   3.039  15.333 -0.0367  0.7054 -0.4260
19162TIP3    H178977   2.111   3.055  15.420  1.9477 -0.9798 -0.8941
19162TIP3    H278978   2.112   3.110  15.279  1.8715 -0.4393 -0.6854
19163TIP3   OH278979   5.824   6.526   5.537 -0.1610 -0.1188 -0.3651
19163TIP3    H178980   5.842   6.569   5.453 -1.9328  1.2399 -0.0581
19163TIP3    H278981   5.735   6.552   5.559  0.0765 -0.9493  1.6699
19164TIP3   OH278982   4.039   0.435  14.982 -0.4113  0.5058  0.0267
19164TIP3    H178983   4.079   0.366  15.034  2.7412  1.8341 -0.5629
19164TIP3    H278984   4.068   0.516  15.024 -3.2642  1.5502  0.1326
19165TIP3   OH278985   5.563   4.649   1.727  0.3277  0.5231 -0.1456
19165TIP3    H178986   5.597   4.726   1.680 -1.6540  2.3699  1.3332
19165TIP3    H278987   5.624   4.636   1.799  0.7856  0.5955 -0.5187
19166TIP3   OH278988   6.232   0.376   5.271 -0.9327  0.6407  0.9014
19166TIP3    H178989   6.211   0.423   5.191 -1.8186 -3.0130 -1.1098
19166TIP3    H278990   6.148   0.361   5.314 -0.9944 -1.3154  0.1772
19167TIP3   OH278991   4.350   6.598   1.705  0.3620 -0.2283 -0.6838
19167TIP3    H178992   4.416   6.649   1.659 -0.8291 -0.3740 -2.5991
19167TIP3    H278993   4.314   6.658   1.771  1.0576  0.4512 -0.9206
19168TIP3   OH278994   4.092   2.387  13.177 -0.3637  0.0462 -0.0106
19168TIP3    H178995   4.074   2.306  13.224 -0.5160  0.3929  0.5268
19168TIP3    H278996   4.042   2.454  13.224 -0.1378  0.4744 -0.3764
19169TIP3   OH278997   3.115   0.271   2.996 -0.1374 -0.6354 -0.1373
19169TIP3    H178998   3.194   0.218   3.007  1.4524  1.9683  1.3142
19169TIP3    H278999   3.138   0.335   2.929 -0.6110  0.8520  1.1038
19170TIP3   OH279000   3.463   2.423  16.750 -0.2547  0.1391  0.6961
19170TIP3    H179001   3.442   2.359  16.681 -2.1200  2.3835 -0.8795
19170TIP3    H279002   3.399   2.405  16.819  0.2495 -0.7227  0.9508
19171TIP3   OH279003   2.742   6.697   0.182 -0.6238 -0.1642  0.7396
19171TIP3    H179004   2.809   6.762   0.201 -0.6331 -0.3801  1.5186
19171TIP3    H279005   2.744   6.688   0.087  2.3417 -2.1332  0.9286
19172TIP3   OH279006   5.611   4.761   5.664  0.2135 -0.0315 -0.0177
19172TIP3    H179007   5.539   4.805   5.620  1.4417  2.8669  0.7564
19172TIP3    H279008   5.688   4.783   5.612  1.0411 -0.2330  1.1106
19173TIP3   OH279009   1.857   2.382  11.103  0.8532 -0.6583  0.3288
19173TIP3    H179010   1.915   2.331  11.047  2.2008  2.0308 -0.7884
19173TIP3    H279011   1.793   2.420  11.042  1.1003  0.6328  0.8623
19174TIP3   OH279012   4.031   5.731   0.481 -0.0183 -0.0683 -0.6164
19174TIP3    H179013   4.005   5.686   0.400 -0.5766 -1.9004  0.5520
19174TIP3    H279014   4.109   5.684   0.510 -0.1197  0.2474  0.1751
19175TIP3   OH279015   4.684   0.764  13.841 -0.2524  0.5238  0.0486
19175TIP3    H179016   4.707   0.846  13.884 -0.1865  0.1655  0.7166
19175TIP3    H279017   4.661   0.788  13.752 -1.1566  1.3847  0.5042
19176TIP3   OH279018   2.816   0.808   2.269  0.3798  0.1757 -0.3396
19176TIP3    H179019   2.824   0.745   2.197  1.5863  2.0652 -1.9286
19176TIP3    H279020   2.896   0.798   2.319 -0.5019 -1.2067  0.8552
19177TIP3   OH279021   1.760   3.626   3.206 -0.2810  0.5286  0.0606
19177TIP3    H179022   1.756   3.692   3.275 -0.4659 -0.1466  0.7039
19177TIP3    H279023   1.794   3.548   3.249 -2.0076 -0.3962 -0.2113
19178TIP3   OH279024   3.867   5.457  16.353  0.1643 -0.6376 -0.2407
19178TIP3    H179025   3.809   5.448  16.277  0.2955 -0.3225 -0.3820
19178TIP3    H279026   3.900   5.369  16.369  0.3014 -0.6692 -0.6843
19179TIP3   OH279027   6.180   2.380  13.206 -0.0135 -0.2089  0.4506
19179TIP3    H179028   6.227   2.463  13.197  0.6849 -0.7473 -1.0441
19179TIP3    H279029   6.154   2.358  13.117 -1.3715 -0.9296  1.0110
19180TIP3   OH279030   2.718   4.765   2.622 -0.5028  0.1452  0.1108
19180TIP3    H179031   2.680   4.851   2.602 -0.8820 -0.3817 -1.4537
19180TIP3    H279032   2.642   4.708   2.632 -0.2878  0.1279  1.9569
19181TIP3   OH279033   1.743   4.914  15.241 -0.4424  0.0854 -0.5324
19181TIP3    H179034   1.788   4.961  15.170 -0.5943 -0.4109 -0.9649
19181TIP3    H279035   1.709   4.835  15.199  1.2959 -1.2830  0.5474
19182TIP3   OH279036   4.858   5.703   1.643  0.2708  0.0030 -0.8189
19182TIP3    H179037   4.798   5.657   1.585  0.7062  0.7226 -1.8672
19182TIP3    H279038   4.884   5.781   1.594  0.0018  1.0678  0.6848
19183TIP3   OH279039   2.567   3.065  16.193 -0.1446  0.6578  0.4786
19183TIP3    H179040   2.575   3.137  16.130 -2.0214 -0.4984 -1.1318
19183TIP3    H279041   2.548   3.108  16.277  1.9456  2.1883  0.2192
19184TIP3   OH279042   6.217   0.400  11.457  0.8747  0.0548 -0.6817
19184TIP3    H179043   6.199   0.494  11.461 -0.1974 -0.2150  2.6153
19184TIP3    H279044   6.183   0.373  11.372 -2.0193  2.0627 -0.2408
19185TIP3   OH279045   5.154   3.784  15.062 -0.2881 -0.0392  0.1359
19185TIP3    H179046   5.074   3.803  15.014 -0.8468 -0.0388  1.0712
19185TIP3    H279047   5.197   3.715  15.010 -1.1801 -0.4693 -0.0331
19186TIP3   OH279048   5.559   6.128   5.135  0.1941  0.2460 -0.4654
19186TIP3    H179049   5.570   6.215   5.096 -0.0861  0.0264 -1.0524
19186TIP3    H279050   5.504   6.142   5.211 -0.8815  0.4180 -1.2632
19187TIP3   OH279051   4.935   3.748  12.696  0.2472 -0.4203 -0.3379
19187TIP3    H179052   4.871   3.698  12.645 -2.0564  2.0387  0.0321
19187TIP3    H279053   4.973   3.809  12.632 -0.4103  0.5563  0.1881
19188TIP3   OH279054   5.494   5.824   5.999  0.2225 -0.3060  0.6365
19188TIP3    H179055   5.521   5.753   5.941  0.5924 -0.2256  0.7070
19188TIP3    H279056   5.561   5.891   5.987 -1.0873  0.7960 -0.8063
19189TIP3   OH279057   4.135   6.300  11.642  0.9147  0.9566 -0.3916
19189TIP3    H179058   4.039   6.297  11.644  0.9477 -1.6870 -1.1169
19189TIP3    H279059   4.157   6.316  11.551  1.1892  1.5453 -0.2273
19190TIP3   OH279060   1.537   4.136  12.997  0.5171  0.2886 -0.2553
19190TIP3    H179061   1.518   4.044  13.019  0.6495  0.6833  1.5551
19190TIP3    H279062   1.629   4.148  13.020  0.3674  1.0159 -0.0328
19191TIP3   OH279063   2.463   5.743  14.708  0.6320  0.2502  0.2575
19191TIP3    H179064   2.466   5.657  14.750 -1.1931 -0.2196 -0.5344
19191TIP3    H279065   2.490   5.804  14.776  1.6141 -0.9143  0.9255
19192TIP3   OH279066   5.025   0.568   4.785 -0.2762  0.0801 -0.3564
19192TIP3    H179067   5.013   0.560   4.880 -0.5051 -0.9828 -0.4728
19192TIP3    H279068   4.983   0.652   4.763  1.9980  1.5921  0.8479
19193TIP3   OH279069   0.869   2.205   1.779 -0.2307 -0.1279  0.1625
19193TIP3    H179070   0.851   2.113   1.799 -2.5208 -0.0269 -1.2770
19193TIP3    H279071   0.820   2.254   1.844 -1.0840  0.0928 -0.6385
19194TIP3   OH279072   5.158   3.616  16.453 -0.0459 -0.5339  0.7970
19194TIP3    H179073   5.140   3.533  16.409 -0.3616 -0.0224 -0.0682
19194TIP3    H279074   5.171   3.678  16.381 -0.3010  0.2621  1.4288
19195TIP3   OH279075   3.718   1.791  13.726 -0.3994 -0.6159 -0.2794
19195TIP3    H179076   3.735   1.785  13.821  1.9737 -0.4511 -0.6511
19195TIP3    H279077   3.655   1.721  13.709 -1.5871 -0.0540  1.5658
19196TIP3   OH279078   2.009   0.800  10.720 -0.5982  0.5054 -0.1492
19196TIP3    H179079   1.930   0.823  10.769 -0.4819 -1.3526  0.9447
19196TIP3    H279080   2.081   0.814  10.782 -0.5059 -2.5091  0.4878
19197TIP3   OH279081   4.847   3.695  15.854  0.5217  0.7261  0.4110
19197TIP3    H179082   4.892   3.764  15.903  1.6979 -0.7328  1.4279
19197TIP3    H279083   4.917   3.644  15.814 -0.2812 -0.7643  0.8800
19198TIP3   OH279084   6.288   3.931   2.925 -0.4226  0.1916  0.2849
19198TIP3    H179085   6.290   3.978   3.009 -1.9720  0.9105 -0.0754
19198TIP3    H279086   6.279   3.999   2.859 -1.3272 -0.5139 -0.3354
19199TIP3   OH279087   3.707   5.362   5.391  0.5638  0.4089  0.0987
19199TIP3    H179088   3.756   5.441   5.411  0.2111  0.3987  1.0227
19199TIP3    H279089   3.631   5.393   5.342  0.5505  0.6131  0.2495
19200TIP3   OH279090   4.191   1.372   4.646 -0.3023  0.3434 -0.5397
19200TIP3    H179091   4.273   1.389   4.601 -1.0019  0.9488 -1.6179
19200TIP3    H279092   4.209   1.390   4.738  0.8800  0.0570 -0.7163
19201TIP3   OH279093   3.045   6.041  10.943 -0.0287  0.0926  0.1749
19201TIP3    H179094   2.981   6.044  11.014  0.1830  0.4373  0.3484
19201TIP3    H279095   3.061   6.132  10.920  1.8218  0.1098  1.3996
19202TIP3   OH279096   3.251   3.569   4.751 -0.1717 -0.9004 -0.1625
19202TIP3    H179097   3.222   3.509   4.819  1.1910  0.4043  1.6000
19202TIP3    H279098   3.206   3.538   4.672 -3.4782 -1.1548  1.7071
19203TIP3   OH279099   4.516   5.522  14.147  0.1776 -0.0024  0.4114
19203TIP3    H179100   4.595   5.479  14.113 -0.4038 -3.1787  2.7809
19203TIP3    H279101   4.472   5.453  14.198 -3.7958  1.8752 -0.3271
19204TIP3   OH279102   5.911   4.202  11.033 -0.3676 -0.2477  0.4918
19204TIP3    H179103   5.906   4.290  10.997 -0.6376  0.4266  2.1759
19204TIP3    H279104   5.889   4.211  11.125 -1.7556 -2.2585  0.4113
19205TIP3   OH279105   5.707   1.408   2.125 -0.1070 -0.3767  0.1524
19205TIP3    H179106   5.667   1.472   2.184  0.0275 -0.6416  0.5332
19205TIP3    H279107   5.640   1.392   2.058  1.0504  2.5729 -1.7909
19206TIP3   OH279108   5.465   2.276  16.654 -0.1295 -0.2020 -0.7095
19206TIP3    H179109   5.429   2.208  16.710 -1.5620  2.0970  1.2616
19206TIP3    H279110   5.454   2.242  16.565 -0.2180 -2.7885  0.2483
19207TIP3   OH279111   1.981   6.809  12.318 -0.0924 -0.3300  1.1117
19207TIP3    H179112   2.038   6.751  12.367  2.1028  0.0781 -0.9003
19207TIP3    H279113   2.005   6.796  12.226 -0.4048  2.8071  0.5264
19208TIP3   OH279114   1.578   1.612  16.788 -0.1233 -0.3116 -0.2150
19208TIP3    H179115   1.600   1.697  16.748 -1.6403  0.0909 -0.2169
19208TIP3    H279116   1.487   1.621  16.813 -0.7262 -2.4655 -1.5390
19209TIP3   OH279117   3.553   0.360  14.384 -0.3886  0.2945  0.1857
19209TIP3    H179118   3.594   0.278  14.412 -0.0112  1.7852  4.3656
19209TIP3    H279119   3.463   0.354  14.414 -0.9530  0.5766 -1.3891
19210TIP3   OH279120   2.454   6.607  11.080  0.4707 -0.1233  0.1516
19210TIP3    H179121   2.512   6.578  11.010  0.6557  0.3680  0.1060
19210TIP3    H279122   2.457   6.536  11.144 -2.4192 -2.2469 -1.9280
19211TIP3   OH279123   1.941   4.458   2.758 -0.3776  0.1642  0.7911
19211TIP3    H179124   2.025   4.451   2.803 -0.0188 -0.7887  0.0078
19211TIP3    H279125   1.922   4.552   2.755  1.1131  0.4611  0.1681
19212TIP3   OH279126   4.226   0.651   1.555 -0.5180  0.3327 -0.0984
19212TIP3    H179127   4.285   0.637   1.481  0.4810 -1.2993  0.9860
19212TIP3    H279128   4.146   0.604   1.531  0.1738 -1.0622  0.3044
19213TIP3   OH279129   1.643   2.303   2.913 -0.2852  0.4411  0.2656
19213TIP3    H179130   1.583   2.267   2.848 -0.2625 -0.0429  0.5102
19213TIP3    H279131   1.721   2.327   2.863 -0.5538  0.7710 -0.0015
19214TIP3   OH279132   0.993   1.705   4.960 -0.1616 -0.0374 -0.3681
19214TIP3    H179133   0.982   1.610   4.965 -0.8184  0.1246  3.2775
19214TIP3    H279134   0.904   1.740   4.964  0.1600  0.7468  0.3136
19215TIP3   OH279135   1.807   1.948  15.075  0.2369  0.1997 -0.0051
19215TIP3    H179136   1.788   2.040  15.059 -0.2183 -0.0577 -0.9617
19215TIP3    H279137   1.801   1.939  15.170  0.0662  1.1041  0.0779
19216TIP3   OH279138   4.040   6.135  14.411  0.1161 -0.6098  0.4047
19216TIP3    H179139   4.095   6.165  14.483  1.0042 -2.4999  0.5469
19216TIP3    H279140   4.021   6.044  14.431 -1.5236 -0.5278 -0.6170
19217TIP3   OH279141   6.526   1.873   3.048  0.2087 -0.0331  0.0550
19217TIP3    H179142   6.561   1.961   3.031  1.1033 -0.3591  0.1903
19217TIP3    H279143   6.431   1.881   3.032 -0.0153  1.4539  1.9926
19218TIP3   OH279144   0.963   0.664   2.561 -0.5434 -0.0240 -0.0111
19218TIP3    H179145   0.999   0.654   2.473  0.3279  0.2837  0.3026
19218TIP3    H279146   1.036   0.643   2.619 -1.1466 -0.3344  0.6386
19219TIP3   OH279147   5.093   4.527  12.043  0.3426  0.0151  0.5587
19219TIP3    H179148   5.133   4.601  12.090  0.4761  0.6694 -0.5859
19219TIP3    H279149   5.162   4.460  12.041  0.3330 -0.0300  1.2991
19220TIP3   OH279150   1.453   3.876   3.500 -0.7745  0.0329 -0.6930
19220TIP3    H179151   1.477   3.968   3.510  1.0532 -0.6130  1.4087
19220TIP3    H279152   1.535   3.833   3.476 -1.2545 -1.2730 -0.0279
19221TIP3   OH279153   6.747   1.333   1.788 -0.3180 -0.8118  0.3193
19221TIP3    H179154   6.806   1.393   1.833  1.0533 -3.8063  2.7608
19221TIP3    H279155   6.786   1.321   1.702  1.4813 -1.0224  1.1231
19222TIP3   OH279156   6.746   5.381  16.724  0.4098 -0.0733 -0.5895
19222TIP3    H179157   6.672   5.321  16.727  0.1550  0.2485 -0.3545
19222TIP3    H279158   6.810   5.345  16.785 -0.6509  1.0869  1.2401
19223TIP3   OH279159   0.445   5.632  12.562  0.1612  0.5985  0.3471
19223TIP3    H179160   0.438   5.727  12.546 -1.7444  0.4990  0.4908
19223TIP3    H279161   0.380   5.614  12.630  1.2721 -0.6422  1.0847
19224TIP3   OH279162   0.736   3.051  15.607 -0.5840 -0.2438 -0.2390
19224TIP3    H179163   0.827   3.036  15.579  0.1470  1.6369  1.0175
19224TIP3    H279164   0.737   3.032  15.701 -1.6544 -0.8474 -0.3487
19225TIP3   OH279165   5.529   0.965  13.834  0.3099 -0.0350 -0.3419
19225TIP3    H179166   5.434   0.976  13.833  0.3744  0.7756  0.6782
19225TIP3    H279167   5.563   1.054  13.845  1.1410 -0.4677  0.6689
19226TIP3   OH279168   4.311   0.954  16.497 -0.4543 -0.2548 -0.1843
19226TIP3    H179169   4.266   0.893  16.555 -1.9759  1.2317  0.2700
19226TIP3    H279170   4.304   0.914  16.410 -0.3299 -1.3183  0.2890
19227TIP3   OH279171   2.682   5.478  11.347 -0.0746 -0.4791  0.3757
19227TIP3    H179172   2.673   5.385  11.370 -0.7878 -0.6756 -0.6438
19227TIP3    H279173   2.694   5.522  11.430 -2.8064 -1.1479  1.1828
19228TIP3   OH279174   5.573   6.016   0.677  0.3618  0.8036 -0.0328
19228TIP3    H179175   5.564   5.952   0.606  0.1301 -0.6292  1.2704
19228TIP3    H279176   5.486   6.023   0.714  0.4164  1.7910 -0.0789
19229TIP3   OH279177   2.328   2.923   4.598 -0.0527  0.2947  0.2514
19229TIP3    H179178   2.273   2.859   4.553 -0.6755  0.5051  0.7192
19229TIP3    H279179   2.321   3.003   4.546 -0.0886  0.2875  0.2459
19230TIP3   OH279180   1.639   2.368   1.480 -0.4530 -0.5229  0.2988
19230TIP3    H179181   1.713   2.309   1.491 -1.6476 -2.0568  0.3825
19230TIP3    H279182   1.585   2.327   1.412 -0.1231  1.7165 -1.3743
19231TIP3   OH279183   2.893   5.707  14.362  0.2035  0.2905  0.5611
19231TIP3    H179184   2.924   5.793  14.335  0.0519  0.1996  0.0903
19231TIP3    H279185   2.804   5.721  14.393 -1.0876 -0.2341 -2.7547
19232TIP3   OH279186   4.460   4.986   1.459 -0.1768  0.3822 -0.1888
19232TIP3    H179187   4.471   5.060   1.399 -1.3644  0.5878 -0.1755
19232TIP3    H279188   4.407   4.923   1.410  0.8979 -0.5027 -0.2287
19233TIP3   OH279189   3.213   5.384   4.582  0.8068  0.7590  0.0544
19233TIP3    H179190   3.186   5.389   4.490  3.5710  1.2561 -0.7840
19233TIP3    H279191   3.262   5.465   4.596  3.0467 -0.7357  1.0543
19234TIP3   OH279192   3.553   4.568  14.263 -0.1256 -0.1505 -0.0689
19234TIP3    H179193   3.534   4.504  14.332  3.3144  0.7261  1.7759
19234TIP3    H279194   3.645   4.553  14.241  0.0205  2.4844 -1.4071
19235TIP3   OH279195   3.189   5.118  13.740  0.2708  0.6560 -0.1837
19235TIP3    H179196   3.121   5.116  13.672 -2.0467 -1.0039  2.0559
19235TIP3    H279197   3.139   5.120  13.822  2.9723  0.3796  1.5070
19236TIP3   OH279198   2.381   3.904  16.780  0.1228  0.1244 -0.2072
19236TIP3    H179199   2.294   3.914  16.816 -0.0010  0.0936 -0.4938
19236TIP3    H279200   2.400   3.810  16.788 -0.2951 -0.0390 -1.1106
19237TIP3   OH279201   0.039   2.157   5.762 -0.1378 -0.1735 -0.1675
19237TIP3    H179202   0.128   2.191   5.771 -0.2607 -0.2306  1.3038
19237TIP3    H279203  -0.016   2.235   5.758  0.0993 -0.0912 -2.7184
19238TIP3   OH279204   1.916   3.354   0.602 -0.8442  0.3067 -0.2811
19238TIP3    H179205   2.005   3.389   0.611  0.2779 -2.0770 -1.7307
19238TIP3    H279206   1.881   3.357   0.691  0.9026  0.6851  0.4238
19239TIP3   OH279207   4.559   2.604   4.943  0.0038  0.1583  0.2125
19239TIP3    H179208   4.536   2.517   4.910  0.5416 -0.2718  0.9485
19239TIP3    H279209   4.552   2.596   5.038 -0.7793  1.1675  0.2491
19240TIP3   OH279210   4.885   5.025   6.062  0.0767 -0.1598 -0.4309
19240TIP3    H179211   4.854   4.942   6.026 -0.4305 -0.9630  1.7716
19240TIP3    H279212   4.964   5.002   6.111 -1.4076  0.1812  2.2417
19241TIP3   OH279213   1.323   6.584   3.204 -0.1761 -0.0570 -0.0423
19241TIP3    H179214   1.338   6.504   3.154 -2.0452 -0.4738  0.0284
19241TIP3    H279215   1.302   6.650   3.138  1.3764  0.4130 -0.1022
19242TIP3   OH279216   3.856   4.785  12.345  0.6003 -0.0576  0.4037
19242TIP3    H179217   3.946   4.811  12.366  0.0296  1.5415  1.0210
19242TIP3    H279218   3.808   4.868  12.346 -0.5272 -0.6617 -1.7987
19243TIP3   OH279219   0.468   2.215   1.013  0.6824  0.2883  0.1173
19243TIP3    H179220   0.413   2.193   0.939  0.2536  3.1056 -0.4345
19243TIP3    H279221   0.547   2.253   0.975  2.2985 -2.1069  0.9644
19244TIP3   OH279222   5.001   1.781   6.141  0.1897 -0.4743 -0.4673
19244TIP3    H179223   4.905   1.775   6.145  0.0467  1.1261 -1.0793
19244TIP3    H279224   5.028   1.789   6.233 -0.3918  0.5869 -0.3790
19245TIP3   OH279225   5.864   4.836   3.191  0.6734 -0.3752 -0.1543
19245TIP3    H179226   5.817   4.835   3.274 -1.2801  0.2553 -1.2400
19245TIP3    H279227   5.900   4.747   3.184  0.5389 -0.5548  1.1729
19246TIP3   OH279228   5.228   6.788  14.866  0.1783 -0.0624  0.3333
19246TIP3    H179229   5.200   6.699  14.888 -0.4199  0.7644  3.1129
19246TIP3    H279230   5.209   6.839  14.945  0.2895  2.5867 -1.2957
19247TIP3   OH279231   0.992   2.133  14.747 -0.2281 -0.4535 -0.3785
19247TIP3    H179232   1.072   2.181  14.772 -0.9812  0.1255  0.9809
19247TIP3    H279233   0.924   2.171  14.802 -1.2447 -1.6747 -0.7875
19248TIP3   OH279234   0.539   0.159  14.700  0.5410  0.3803 -0.2216
19248TIP3    H179235   0.543   0.066  14.681  1.1050  0.2466  0.5342
19248TIP3    H279236   0.584   0.201  14.626 -0.1679  0.0892 -0.8156
19249TIP3   OH279237   0.661   5.866  12.831 -0.6102 -0.0750  0.5123
19249TIP3    H179238   0.685   5.935  12.769  0.4462 -2.0410 -1.3462
19249TIP3    H279239   0.600   5.908  12.891 -0.8446  2.1960 -1.2304
19250TIP3   OH279240   5.671   0.797   1.591 -0.1422  0.1863  0.3606
19250TIP3    H179241   5.637   0.825   1.506  2.1356  1.7958 -0.0807
19250TIP3    H279242   5.739   0.733   1.569 -1.0300 -1.0142  1.0865
19251TIP3   OH279243   4.066   2.951   5.393 -0.1725 -0.0812 -0.2056
19251TIP3    H179244   3.993   2.978   5.337  0.2883  0.9773 -0.3048
19251TIP3    H279245   4.116   3.031   5.408 -0.3805 -0.3292  1.8804
19252TIP3   OH279246   6.800   1.320  15.163 -0.5606 -0.3645  0.0223
19252TIP3    H179247   6.835   1.382  15.226  0.6904 -0.7093 -0.3254
19252TIP3    H279248   6.875   1.267  15.137 -1.3235 -1.0692 -0.7837
19253TIP3   OH279249   1.200   0.753  11.034  0.4245 -0.3381 -0.5377
19253TIP3    H179250   1.159   0.732  10.950 -2.5889  0.8970  0.5214
19253TIP3    H279251   1.255   0.829  11.016 -0.2018 -0.0805 -1.4007
19254TIP3   OH279252   4.484   5.811  10.546  0.8376  0.2690 -0.3353
19254TIP3    H179253   4.575   5.840  10.538  1.0299 -0.3026 -0.2878
19254TIP3    H279254   4.434   5.873  10.494  1.0722  1.4713  0.8570
19255TIP3   OH279255   5.749   0.229   6.166 -0.0120 -0.7636 -0.0318
19255TIP3    H179256   5.741   0.227   6.261  0.6905 -0.3909  0.0360
19255TIP3    H279257   5.768   0.138   6.142  1.3627 -0.5839  0.3290
19256TIP3   OH279258   2.698   3.663   5.697 -0.1926 -0.1823  0.4445
19256TIP3    H179259   2.773   3.607   5.717  0.8643  0.9298 -0.2878
19256TIP3    H279260   2.644   3.610   5.638  0.6329 -0.5652  0.0059
19257TIP3   OH279261   1.119   5.311  11.511  0.1230 -0.1390 -0.3068
19257TIP3    H179262   1.097   5.389  11.460 -0.1656  0.8362  1.2830
19257TIP3    H279263   1.215   5.307  11.508  0.0897 -0.3520 -1.2980
19258TIP3   OH279264   3.310   1.065   1.189  0.5425 -0.0286  0.0531
19258TIP3    H179265   3.311   1.087   1.282 -1.3137 -1.3787  0.4263
19258TIP3    H279266   3.266   1.139   1.147 -0.5666 -0.3862  0.5513
19259TIP3   OH279267   1.978   1.837  14.203  0.1076  0.1087 -0.1237
19259TIP3    H179268   1.985   1.872  14.114 -0.6951  0.1762 -0.1603
19259TIP3    H279269   1.890   1.860  14.231 -0.2471 -1.3948  0.0570
19260TIP3   OH279270   1.342   2.460  14.911  0.4653  0.2744  0.0132
19260TIP3    H179271   1.355   2.498  14.998  0.1767  1.0369 -0.2695
19260TIP3    H279272   1.386   2.521  14.852 -0.9036  0.7257 -0.5478
19261TIP3   OH279273   1.755   3.027  11.278  0.1631 -0.0872 -0.4602
19261TIP3    H179274   1.792   3.103  11.322  0.7350 -0.8384  0.3800
19261TIP3    H279275   1.825   2.997  11.219  1.5676 -2.4808  2.3173
19262TIP3   OH279276   4.980   2.173  10.877 -0.0837  0.7021  0.2912
19262TIP3    H179277   4.934   2.211  10.952 -0.4994  0.1096  0.3467
19262TIP3    H279278   5.067   2.213  10.879 -0.0805  0.6705  1.1119
19263TIP3   OH279279   2.641   0.025  14.567 -0.5438 -0.7958 -0.2124
19263TIP3    H179280   2.662  -0.065  14.590  1.0239 -0.2209  0.6849
19263TIP3    H279281   2.702   0.047  14.497  0.6096  0.2530  1.0751
19264TIP3   OH279282   1.317   5.289   4.749 -0.4630 -0.1557  0.2132
19264TIP3    H179283   1.276   5.375   4.738 -1.0420 -0.3421  0.8784
19264TIP3    H279284   1.385   5.286   4.681 -0.8045  0.6039 -0.1707
19265TIP3   OH279285   3.425   6.455  11.808  0.2413 -0.2893  0.2182
19265TIP3    H179286   3.339   6.414  11.812  0.2259 -0.4340 -1.2990
19265TIP3    H279287   3.419   6.519  11.738  1.0992  0.3490  0.7119
19266TIP3   OH279288   4.382   2.416  13.204  0.0555  0.8699 -0.0201
19266TIP3    H179289   4.400   2.398  13.112 -0.1094 -0.2381  0.1610
19266TIP3    H279290   4.286   2.417  13.210  0.0634  1.3974  0.0546
19267TIP3   OH279291   5.340   4.221   5.541  0.8242 -0.0838  0.0182
19267TIP3    H179292   5.286   4.299   5.551  2.0169  0.8647 -0.7303
19267TIP3    H279293   5.336   4.176   5.625 -0.5404  0.3435  0.1828
19268TIP3   OH279294   5.526   2.593  16.030 -0.1555 -0.1660 -0.1537
19268TIP3    H179295   5.605   2.610  16.081 -1.0300  0.4390  1.0208
19268TIP3    H279296   5.548   2.619  15.940  1.0069 -0.1049  0.1525
19269TIP3   OH279297   1.349   0.108  13.960 -0.2468  0.1344  0.3726
19269TIP3    H179298   1.320   0.023  13.928  0.7182  0.1707 -0.6442
19269TIP3    H279299   1.399   0.090  14.039 -3.7496  0.1439  2.6594
19270TIP3   OH279300   3.319   5.394  16.370 -0.1710 -0.8635  0.4704
19270TIP3    H179301   3.346   5.485  16.376  0.1044 -0.9589  0.7046
19270TIP3    H279302   3.344   5.367  16.282  0.0848 -0.8214  0.5291
19271TIP3   OH279303   2.300   6.380   4.544 -0.1393  0.1768  0.0061
19271TIP3    H179304   2.363   6.446   4.573  0.0018  1.1396 -2.4032
19271TIP3    H279305   2.257   6.420   4.468 -0.0765 -2.4615 -1.4669
19272TIP3   OH279306   2.669   5.638   6.189  0.6412 -0.6825  0.4003
19272TIP3    H179307   2.694   5.567   6.129  1.9023  0.1940 -0.1271
19272TIP3    H279308   2.748   5.691   6.198 -0.5894  1.3142 -0.1089
19273TIP3   OH279309   3.616   5.003  13.918 -0.0990  0.0210 -0.2383
19273TIP3    H179310   3.635   4.909  13.923 -0.6910 -0.0999 -0.2224
19273TIP3    H279311   3.588   5.017  13.828  0.0031  0.1897 -0.2439
19274TIP3   OH279312   2.427   6.164  15.177  0.1979 -0.0121  0.1215
19274TIP3    H179313   2.517   6.162  15.210 -0.7387  0.1916  2.7787
19274TIP3    H279314   2.403   6.072  15.169  0.6998 -0.0699 -0.7768
19275TIP3   OH279315   1.570   5.005   1.306 -1.0380 -0.0638 -0.5988
19275TIP3    H179316   1.568   5.100   1.290 -0.7216 -0.0379 -0.4809
19275TIP3    H279317   1.658   4.988   1.339 -1.0033 -0.4427 -0.8854
19276TIP3   OH279318   1.495   6.706   4.198 -0.1455  0.2189  0.4094
19276TIP3    H179319   1.565   6.668   4.145  0.5612 -0.0259  1.5146
19276TIP3    H279320   1.508   6.669   4.285 -0.3813  1.7892  1.1241
19277TIP3   OH279321   6.797   2.485   1.309 -0.2481  0.2162  0.2324
19277TIP3    H179322   6.810   2.398   1.274  0.6656 -0.6072  2.4988
19277TIP3    H279323   6.883   2.527   1.303 -0.0474  0.0260  1.4740
19278TIP3   OH279324   4.594   6.694   3.577  0.0233 -0.4422 -0.1099
19278TIP3    H179325   4.579   6.784   3.547  1.7168 -0.0723  0.1267
19278TIP3    H279326   4.675   6.667   3.533  1.0841 -0.8391  2.0184
19279TIP3   OH279327   3.860   0.245  14.792 -0.5005  0.3708 -0.2090
19279TIP3    H179328   3.936   0.293  14.826 -1.1009  1.8893 -0.9451
19279TIP3    H279329   3.797   0.314  14.770 -2.3997 -0.9345  1.1303
19280TIP3   OH279330   1.080   5.364  12.482  0.2624  0.5437  0.4759
19280TIP3    H179331   1.169   5.328  12.483  0.1512  0.1323 -1.5361
19280TIP3    H279332   1.027   5.297  12.524  0.4859 -0.5015 -0.8536
19281TIP3   OH279333   2.174   0.143   0.348 -0.3140  0.1453 -0.4316
19281TIP3    H179334   2.257   0.159   0.304  0.5537 -1.9840  0.3938
19281TIP3    H279335   2.163   0.218   0.407  0.7956  0.6654 -0.8788
19282TIP3   OH279336   5.826   2.520  14.874  0.2251  0.1748  0.2223
19282TIP3    H179337   5.756   2.527  14.809  0.9261  0.9100 -0.4697
19282TIP3    H279338   5.785   2.547  14.956 -0.1739  1.1063 -0.2712
19283TIP3   OH279339   4.409   4.118  15.748 -0.1020 -0.2202 -0.0915
19283TIP3    H179340   4.363   4.191  15.791 -0.7710 -0.9688  0.4708
19283TIP3    H279341   4.367   4.040  15.782  0.3014 -0.8658 -1.0624
19284TIP3   OH279342   5.640   6.469   3.564 -0.1074  0.5861 -0.0598
19284TIP3    H179343   5.686   6.420   3.632  1.7185  3.6595  1.0207
19284TIP3    H279344   5.548   6.465   3.590 -0.0755 -2.3740 -0.1441
19285TIP3   OH279345   6.609   3.533  14.184 -0.5266 -0.0794 -0.1987
19285TIP3    H179346   6.569   3.586  14.115  0.5094  0.9472 -0.0246
19285TIP3    H279347   6.700   3.523  14.156 -0.1806  0.0736  0.8751
19286TIP3   OH279348   0.422   5.847   2.046 -0.1963  0.6438 -0.3995
19286TIP3    H179349   0.388   5.822   2.132 -1.7068 -0.4020 -1.2912
19286TIP3    H279350   0.514   5.822   2.048  0.2782  2.4281  1.6154
19287TIP3   OH279351   0.747   2.138   1.414 -0.5703 -0.3059  0.2965
19287TIP3    H179352   0.811   2.209   1.423  0.5752 -1.0999 -1.2998
19287TIP3    H279353   0.799   2.058   1.422 -1.5096 -0.9669 -0.1502
19288TIP3   OH279354   3.851   6.651   2.034 -0.1072 -0.4943 -0.4551
19288TIP3    H179355   3.870   6.684   1.946 -1.9744 -1.5292 -1.2949
19288TIP3    H279356   3.778   6.590   2.020 -0.1524 -0.9656  1.7680
19289TIP3   OH279357   3.562   3.065   1.328 -0.4081 -0.4840  0.4576
19289TIP3    H179358   3.518   3.017   1.258 -0.2266 -0.3063  0.2191
19289TIP3    H279359   3.628   3.003   1.361  1.0331  0.2077 -1.0458
19290TIP3   OH279360   1.932   6.265   5.913  0.5674  0.1455 -0.8254
19290TIP3    H179361   1.939   6.170   5.922 -2.3348 -0.0731 -0.1208
19290TIP3    H279362   1.905   6.295   6.000 -1.0210  1.2897 -1.6890
19291TIP3   OH279363   4.491   5.641   2.364  0.0610 -0.1244  0.0738
19291TIP3    H179364   4.561   5.660   2.426  0.2386 -0.2219 -0.0935
19291TIP3    H279365   4.529   5.661   2.278 -0.2868  0.3213  0.0203
19292TIP3   OH279366   1.608   2.373   0.731 -0.1288 -0.3716  0.2387
19292TIP3    H179367   1.666   2.448   0.718 -0.4857 -0.4533 -2.1904
19292TIP3    H279368   1.592   2.371   0.825  0.5988  2.0608  0.4662
19293TIP3   OH279369   3.079   4.990   5.134  0.0995  0.3938 -0.0704
19293TIP3    H179370   3.077   5.043   5.214 -0.5529  0.3562 -0.0563
19293TIP3    H279371   3.100   4.902   5.163  0.0494  0.4179  0.0389
19294TIP3   OH279372   3.341   4.543   1.296  0.2558 -0.4596  0.2048
19294TIP3    H179373   3.348   4.508   1.207  0.0345  0.6183 -0.2440
19294TIP3    H279374   3.428   4.530   1.333  0.4049 -0.7463 -0.2293
19295TIP3   OH279375   5.141   3.018  15.175  0.2335  0.3736 -0.0657
19295TIP3    H179376   5.190   3.094  15.144 -0.6032  0.5860 -0.9217
19295TIP3    H279377   5.053   3.052  15.193  0.0089 -0.2749  0.0859
19296TIP3   OH279378   3.588   5.120  14.510 -0.3426  0.2860 -0.1427
19296TIP3    H179379   3.663   5.177  14.498  0.1740 -0.1795  0.8225
19296TIP3    H279380   3.520   5.176  14.546 -0.3944  0.6621 -0.8205
19297TIP3   OH279381   4.137   5.527  16.393 -0.6845  0.1549 -0.5836
19297TIP3    H179382   4.046   5.499  16.404 -1.8120  3.3615 -1.2589
19297TIP3    H279383   4.153   5.522  16.299 -1.3214  2.8948 -0.8629
19298TIP3   OH279384   6.654   5.362   2.916  0.1199 -0.8286 -0.3747
19298TIP3    H179385   6.650   5.420   2.841  2.9488 -0.9632 -0.6921
19298TIP3    H279386   6.656   5.274   2.879 -3.1034 -1.1288  0.0636
19299TIP3   OH279387   3.280   6.693   5.696  0.1255  0.1304  0.2102
19299TIP3    H179388   3.326   6.769   5.659 -0.4204  1.2812  1.8595
19299TIP3    H279389   3.329   6.672   5.775 -0.7729 -0.1478  0.6976
19300TIP3   OH279390   4.504   0.506   0.900 -0.0234 -0.3089  0.0854
19300TIP3    H179391   4.553   0.427   0.924 -0.4944 -0.7792 -0.5025
19300TIP3    H279392   4.420   0.496   0.943  0.6897  0.9282  1.8450
19301TIP3   OH279393   6.769   4.864   0.052  0.0941  0.3963  0.1045
19301TIP3    H179394   6.711   4.822  -0.011 -0.3397  0.4117  0.4916
19301TIP3    H279395   6.839   4.801   0.066 -2.3264 -1.7412  3.2977
19302TIP3   OH279396   3.875   3.826   5.386 -0.6054  0.3051  0.0334
19302TIP3    H179397   3.789   3.789   5.409 -0.4507 -0.1319 -0.0908
19302TIP3    H279398   3.875   3.912   5.428 -0.8085  0.0009  0.6721
19303TIP3   OH279399   3.805   4.159   3.641 -0.0466 -0.0370 -0.0072
19303TIP3    H179400   3.858   4.091   3.682  0.3538  0.3620  0.1323
19303TIP3    H279401   3.830   4.240   3.686 -0.5485  0.1985 -0.1465
19304TIP3   OH279402   2.981   3.786   0.713 -0.2064 -0.1733 -0.1094
19304TIP3    H179403   2.948   3.800   0.801  0.7050  1.7891 -0.0662
19304TIP3    H279404   2.903   3.776   0.659 -0.8408  1.5737  0.4583
19305TIP3   OH279405   5.283   1.833   2.421 -0.3726 -0.0402  0.3346
19305TIP3    H179406   5.307   1.804   2.510 -1.1003  0.0414  0.5662
19305TIP3    H279407   5.363   1.868   2.384  0.0438 -0.4871  0.8037
19306TIP3   OH279408   2.693   5.145   6.724  0.9182 -0.4491  0.4290
19306TIP3    H179409   2.620   5.091   6.755  0.0785 -0.8696 -2.2107
19306TIP3    H279410   2.764   5.082   6.711  1.1195 -0.3427  0.9893
19307TIP3   OH279411   2.779   6.446   3.113  0.0166  0.4961  0.3796
19307TIP3    H179412   2.825   6.530   3.113 -0.8164  0.9774  2.0732
19307TIP3    H279413   2.686   6.470   3.104 -0.0967 -0.3527 -0.9270
19308TIP3   OH279414   2.384   3.434  11.671  0.2519 -0.7064  0.3258
19308TIP3    H179415   2.380   3.356  11.725 -0.7609 -0.9836 -0.1441
19308TIP3    H279416   2.478   3.452  11.662  0.4298 -0.6770  2.1193
19309TIP3   OH279417   2.702   4.248   4.088 -0.6806 -0.3537  0.3781
19309TIP3    H179418   2.645   4.293   4.150 -0.1963 -0.5902  1.0023
19309TIP3    H279419   2.718   4.312   4.018 -0.5264  0.2134  0.9310
19310TIP3   OH279420   3.308   5.154   3.738  0.5404  0.4786  0.2913
19310TIP3    H179421   3.284   5.062   3.739  0.8429  0.3826 -0.7789
19310TIP3    H279422   3.403   5.155   3.739  0.5345  0.7974  1.0288
19311TIP3   OH279423   6.815   3.961   0.393 -0.4168  0.3097  0.5964
19311TIP3    H179424   6.811   4.032   0.330  1.3272  0.4531  0.6208
19311TIP3    H279425   6.821   4.005   0.478 -1.7980  0.1164  0.8096
19312TIP3   OH279426   1.023   3.446   5.898  0.3834 -0.3145 -0.8761
19312TIP3    H179427   1.024   3.470   5.991 -1.0284 -0.8922 -0.7077
19312TIP3    H279428   1.100   3.389   5.888  0.6836 -0.0478 -0.1130
19313TIP3   OH279429   1.504   0.849   5.288 -0.0121 -0.3663 -0.4257
19313TIP3    H179430   1.596   0.873   5.290  0.6919 -2.9179 -0.4366
19313TIP3    H279431   1.474   0.862   5.378  0.5214 -0.1567 -0.2780
19314TIP3   OH279432   0.292   2.845  15.888 -0.3342  0.0092  0.3980
19314TIP3    H179433   0.336   2.802  15.961 -0.4209  0.9411  1.0132
19314TIP3    H279434   0.360   2.899  15.846 -0.7000  0.8653  0.8908
19315TIP3   OH279435   0.598   3.864  14.936 -0.2812 -0.1980  0.0308
19315TIP3    H179436   0.610   3.957  14.917 -0.5454 -0.3389 -0.8945
19315TIP3    H279437   0.510   3.845  14.903  0.2836 -1.0739 -0.9927
19316TIP3   OH279438   2.046   3.478   5.274  0.0255 -0.4948 -0.1144
19316TIP3    H179439   2.105   3.541   5.233  0.3540 -0.8581 -0.1930
19316TIP3    H279440   1.968   3.480   5.218  1.6551 -3.3181 -2.6535
19317TIP3   OH279441   2.515   3.097   5.607 -0.3077 -0.3933 -0.3618
19317TIP3    H179442   2.529   3.023   5.666 -0.6088 -0.1360  0.0372
19317TIP3    H279443   2.507   3.057   5.521  0.6114 -0.7328 -0.3006
19318TIP3   OH279444   5.130   2.184  12.137 -0.0417  0.3691 -1.2042
19318TIP3    H179445   5.196   2.222  12.195  0.3505  1.1635 -2.1578
19318TIP3    H279446   5.110   2.099  12.175  0.6875  0.6153 -0.2655
19319TIP3   OH279447   1.447   2.938  16.695 -0.1870 -0.0983  0.5347
19319TIP3    H179448   1.409   2.951  16.608  0.5439 -2.0495 -0.1107
19319TIP3    H279449   1.373   2.943  16.755 -0.8127  0.5121 -0.2807
19320TIP3   OH279450   1.958   6.121   2.562  0.2731 -0.2636  0.0824
19320TIP3    H179451   1.908   6.048   2.525 -1.1743 -0.2998  2.0421
19320TIP3    H279452   2.042   6.082   2.586 -0.6109 -1.3907  1.4408
19321TIP3   OH279453   3.662   0.982  16.468 -0.6938 -0.4553 -0.2057
19321TIP3    H179454   3.655   0.887  16.461 -0.4076 -0.5792  1.0241
19321TIP3    H279455   3.578   1.010  16.506 -0.4845 -0.3062  0.1525
19322TIP3   OH279456   1.091   2.713   6.360 -0.1062  0.0977 -1.1369
19322TIP3    H179457   1.103   2.788   6.418  3.2825 -0.5955 -0.8396
19322TIP3    H279458   1.090   2.637   6.418 -0.5479 -0.3317 -1.6947
19323TIP3   OH279459   3.657   0.804   4.450  0.4930 -0.3223  0.1431
19323TIP3    H179460   3.621   0.830   4.365  1.2394 -0.3927 -0.2008
19323TIP3    H279461   3.634   0.876   4.509 -1.3463 -0.9608  0.2534
19324TIP3   OH279462   6.056   3.537   3.410  0.5736  0.5550  0.0911
19324TIP3    H179463   6.004   3.471   3.364  1.9897 -0.8175  0.4225
19324TIP3    H279464   6.101   3.584   3.340 -1.3289  1.9561 -0.2163
19325TIP3   OH279465   1.082   2.375  13.579 -0.4441  0.0307  0.1143
19325TIP3    H179466   1.075   2.311  13.508 -1.5755 -1.4667  1.5112
19325TIP3    H279467   1.174   2.372  13.606 -0.2034 -0.0251 -0.7149
19326TIP3   OH279468   1.242   1.487   2.426 -0.0263 -0.0431 -0.2647
19326TIP3    H179469   1.191   1.440   2.360  1.1689 -0.0765 -1.1942
19326TIP3    H279470   1.223   1.442   2.508 -1.3604 -0.1456 -0.6224
19327TIP3   OH279471   4.099   4.648   3.270  0.6767  0.0208 -0.4375
19327TIP3    H179472   4.146   4.608   3.343 -1.7346  0.0106  1.1931
19327TIP3    H279473   4.165   4.700   3.224  2.5593 -1.1377  0.8885
19328TIP3   OH279474   3.623   5.908   4.714  0.2908 -0.5695 -0.1741
19328TIP3    H179475   3.547   5.894   4.771  0.8937 -0.8164  0.5621
19328TIP3    H279476   3.654   5.820   4.693  0.8395 -0.4514  0.1411
19329TIP3   OH279477   6.114   0.749  15.634 -0.5966  0.3079 -0.2807
19329TIP3    H179478   6.172   0.785  15.701  1.0965 -1.8710 -0.5044
19329TIP3    H279479   6.164   0.758  15.553 -0.5613 -1.5667 -0.4868
19330TIP3   OH279480   5.812   6.448  13.260 -0.3129 -0.2227 -0.1532
19330TIP3    H179481   5.792   6.446  13.166  0.3010  1.2465 -0.3254
19330TIP3    H279482   5.907   6.450  13.264 -0.3755  1.6784  0.4497
19331TIP3   OH279483   2.953   3.557   5.767 -0.0507  0.0155  0.6223
19331TIP3    H179484   2.931   3.465   5.782  0.1054 -0.9057 -4.0039
19331TIP3    H279485   3.040   3.567   5.805  0.5207 -2.1460 -0.0539
19332TIP3   OH279486   4.571   0.349  14.393 -0.4810 -0.1292 -0.5296
19332TIP3    H179487   4.664   0.357  14.416 -0.7466  1.8421 -0.1165
19332TIP3    H279488   4.566   0.266  14.345  1.5007 -0.2208 -0.6225
19333TIP3   OH279489   0.714   1.235   6.354  0.2991  0.1918  0.4756
19333TIP3    H179490   0.784   1.210   6.414 -1.2697 -1.9042  1.4397
19333TIP3    H279491   0.697   1.327   6.375  2.2743  0.5471  0.6793
19334TIP3   OH279492   2.863   3.164   1.032  0.1338  0.3481  0.1476
19334TIP3    H179493   2.914   3.112   1.094  0.1227  0.5626  0.3403
19334TIP3    H279494   2.782   3.185   1.079  0.5209  1.3052  0.4123
19335TIP3   OH279495   5.805   3.042   3.906  0.3791  0.9275 -0.0071
19335TIP3    H179496   5.774   3.081   3.824 -1.4113  1.9817  1.1352
19335TIP3    H279497   5.867   3.105   3.941  2.4979 -0.3244 -1.3670
19336TIP3   OH279498   5.060   3.517  12.128  0.0941  0.1651 -0.2834
19336TIP3    H179499   5.071   3.438  12.075 -0.9967  0.1790 -0.5445
19336TIP3    H279500   5.113   3.583  12.083  1.2461 -0.4889  0.0995
19337TIP3   OH279501   3.622   4.570  11.606 -0.4534 -0.2051  0.1653
19337TIP3    H179502   3.605   4.661  11.631 -0.8484  0.0041 -0.8484
19337TIP3    H279503   3.717   4.561  11.612 -0.5121 -0.1113  1.5368
19338TIP3   OH279504   5.340   3.309  16.770  0.0747  0.3732 -0.5159
19338TIP3    H179505   5.276   3.365  16.815 -0.6152 -0.7257 -0.1150
19338TIP3    H279506   5.307   3.304  16.680 -0.4505 -0.2501 -0.2921
19339TIP3   OH279507   5.992   5.379   0.199  0.3497 -0.3384  0.8053
19339TIP3    H179508   5.920   5.389   0.138  0.0625  4.2711  1.7709
19339TIP3    H279509   6.040   5.303   0.166 -2.5611 -0.9936 -2.2260
19340TIP3   OH279510   5.508   5.190  16.970 -0.1492 -0.1120 -0.4243
19340TIP3    H179511   5.466   5.174  16.886 -2.3839  0.3069  0.5673
19340TIP3    H279512   5.486   5.281  16.991  0.2097 -0.2665  0.6782
19341TIP3   OH279513   2.851   1.699  13.153  0.4441 -0.2873  0.4511
19341TIP3    H179514   2.774   1.652  13.120  0.3047  0.4782 -0.3336
19341TIP3    H279515   2.815   1.765  13.212  0.5099 -0.0226  0.1952
19342TIP3   OH279516   6.631   1.976   2.367  0.2616 -0.2270  0.1743
19342TIP3    H179517   6.569   1.927   2.421 -1.0122  0.7170 -0.3952
19342TIP3    H279518   6.611   2.068   2.386  2.0006  0.0965  0.5360
19343TIP3   OH279519   2.339   5.600   4.621 -0.3751  0.2671  0.1963
19343TIP3    H179520   2.360   5.619   4.529  3.1655 -0.2910  0.8312
19343TIP3    H279521   2.371   5.511   4.635 -1.3807  0.1458  1.8521
19344TIP3   OH279522   1.873   1.663   0.596 -0.2528  0.6313  0.2348
19344TIP3    H179523   1.863   1.571   0.620 -0.7311  0.8888  1.0154
19344TIP3    H279524   1.963   1.669   0.562  0.2568  0.1750  1.4830
19345TIP3   OH279525   6.269   4.111  16.105  0.3961 -0.4726  0.0620
19345TIP3    H179526   6.228   4.197  16.114  2.1737  0.2533  1.4828
19345TIP3    H279527   6.207   4.050  16.146 -0.7128  0.1703 -0.6526
19346TIP3   OH279528   5.639   2.987   4.720 -0.8871  0.0674 -0.3449
19346TIP3    H179529   5.598   3.062   4.763  0.1330 -0.1328  1.0160
19346TIP3    H279530   5.607   2.911   4.768 -1.5617 -0.3422 -1.4331
19347TIP3   OH279531   4.191   1.040   3.674 -0.4239 -0.3481  0.2088
19347TIP3    H179532   4.280   1.058   3.645 -0.2331 -0.3474  0.7892
19347TIP3    H279533   4.172   1.108   3.739 -2.2238  1.9382 -2.6277
19348TIP3   OH279534   5.141   5.466  15.545  0.1832  0.2539 -0.1413
19348TIP3    H179535   5.062   5.468  15.600 -2.7334 -1.8831 -3.9767
19348TIP3    H279536   5.201   5.407  15.591 -0.9833  0.7741  2.1393
19349TIP3   OH279537   3.807   5.841   3.565 -0.0137 -0.1729  0.0793
19349TIP3    H179538   3.890   5.889   3.565 -0.6760  1.0085 -1.0696
19349TIP3    H279539   3.828   5.758   3.607  1.6683  0.2534  0.1451
19350TIP3   OH279540   6.642   6.202   1.609 -0.3665 -0.1985 -0.3790
19350TIP3    H179541   6.596   6.226   1.529  0.3757 -0.8114 -0.9878
19350TIP3    H279542   6.612   6.267   1.674 -0.0596  1.0310 -1.4463
19351TIP3   OH279543   6.783   4.634  14.413 -0.1094 -0.4312 -0.2575
19351TIP3    H179544   6.724   4.693  14.460 -0.2608 -2.1735  1.8094
19351TIP3    H279545   6.867   4.680  14.413 -0.6677  0.6051 -0.2914
19352TIP3   OH279546   1.473   0.741  12.854 -0.1506 -0.1462  0.6193
19352TIP3    H179547   1.394   0.710  12.897  0.3751  1.3448  2.7479
19352TIP3    H279548   1.536   0.751  12.925  1.3432  0.5542 -0.7847
19353TIP3   OH279549   1.928   1.183  11.499  0.1823  0.7414 -0.1952
19353TIP3    H179550   1.969   1.099  11.519  2.2357  1.2785 -1.8612
19353TIP3    H279551   1.844   1.160  11.459  0.1819 -0.4862  0.4933
19354TIP3   OH279552   3.164   1.318   3.596  0.0132  0.2376 -0.2795
19354TIP3    H179553   3.153   1.405   3.559  1.4272  0.6021  0.1440
19354TIP3    H279554   3.222   1.330   3.671 -1.8809 -0.6699  1.3741
19355TIP3   OH279555   5.607   6.378   5.049  0.6375 -0.1273 -0.1934
19355TIP3    H179556   5.548   6.427   5.107  1.6289  1.5308 -0.5440
19355TIP3    H279557   5.622   6.437   4.975 -0.1146 -1.9813 -1.8701
19356TIP3   OH279558   2.110   1.049  16.921  0.5617  0.0025  0.6268
19356TIP3    H179559   2.202   1.032  16.900  0.3969  0.3020 -0.3836
19356TIP3    H279560   2.065   0.969  16.894  0.3065  0.5085 -0.4920
19357TIP3   OH279561   0.892   4.361  12.638  0.2565  0.4750 -0.1294
19357TIP3    H179562   0.925   4.371  12.728 -0.1052  0.2998  0.0253
19357TIP3    H279563   0.968   4.378  12.582  1.0852 -1.8491  0.2604
19358TIP3   OH279564   1.570   1.272  16.402  0.6477 -0.5468  0.1683
19358TIP3    H179565   1.652   1.238  16.438  1.1237 -1.9943 -2.2276
19358TIP3    H279566   1.503   1.239  16.461  1.4317 -2.6813 -0.0940
19359TIP3   OH279567   6.726   3.917  11.807  0.0280  0.1219  0.3461
19359TIP3    H179568   6.659   3.946  11.746  1.7617 -0.4364 -1.9005
19359TIP3    H279569   6.697   3.830  11.836 -0.3858  0.0260 -0.3552
19360TIP3   OH279570   0.749   1.916   4.449 -0.0886 -0.2989  0.1840
19360TIP3    H179571   0.655   1.899   4.445 -0.1501  0.0190  0.3200
19360TIP3    H279572   0.780   1.863   4.523 -0.0692 -0.8296 -0.2025
19361TIP3   OH279573   1.384   1.262   0.696  0.2341 -0.3837 -0.0694
19361TIP3    H179574   1.318   1.210   0.650 -0.8922  0.9752 -0.0088
19361TIP3    H279575   1.377   1.234   0.788 -0.6035  0.1235  0.0214
19362TIP3   OH279576   3.070   3.451  14.776 -0.2680 -0.1634  0.5570
19362TIP3    H179577   3.016   3.474  14.851  0.3655 -0.0302  0.9760
19362TIP3    H279578   3.047   3.360  14.757 -0.2807 -0.2590  1.0354
19363TIP3   OH279579   4.141   2.696  12.017  0.5232 -0.0113 -0.5383
19363TIP3    H179580   4.066   2.678  12.075 -0.0376 -1.7877 -1.7507
19363TIP3    H279581   4.101   2.717  11.932  1.3694  0.8475 -0.7316
19364TIP3   OH279582   2.071   0.027   5.968 -0.4184  0.0381 -0.4254
19364TIP3    H179583   2.074   0.057   5.877 -0.6461 -0.2016 -0.5133
19364TIP3    H279584   2.058   0.107   6.019  2.5834  0.5192 -0.3678
19365TIP3   OH279585   0.022   5.931   5.571  0.2561  0.1628  0.3214
19365TIP3    H179586  -0.071   5.945   5.585 -0.2722 -1.2892 -1.5579
19365TIP3    H279587   0.057   6.017   5.549 -0.3016  1.0185  2.6165
19366TIP3   OH279588   5.537   1.736  14.458 -0.1910 -0.1275 -0.4527
19366TIP3    H179589   5.473   1.677  14.418 -0.8164  1.0931 -1.3013
19366TIP3    H279590   5.535   1.814  14.404 -0.0707  1.0555  1.1916
19367TIP3   OH279591   2.545   5.334  15.888  0.0106  0.0225  0.3031
19367TIP3    H179592   2.463   5.357  15.931  0.7662  1.3580  1.0913
19367TIP3    H279593   2.526   5.343  15.795 -0.2469  2.1809  0.5276
19368TIP3   OH279594   4.784   4.455   1.130 -0.4265 -0.8685  0.0334
19368TIP3    H179595   4.849   4.384   1.131 -0.9787 -1.3772  0.5270
19368TIP3    H279596   4.824   4.525   1.181  1.0087 -0.0010 -2.2064
19369TIP3   OH279597   1.545   1.059   4.445  0.0482  0.2912  0.0443
19369TIP3    H179598   1.540   1.072   4.540 -0.6452 -0.2920  0.0815
19369TIP3    H279599   1.457   1.075   4.413  0.5532  1.8213 -0.6786
19370TIP3   OH279600   0.898   2.796  16.471 -0.5152  0.2167  0.2356
19370TIP3    H179601   0.988   2.802  16.503 -1.1575 -0.9041  2.4064
19370TIP3    H279602   0.859   2.726  16.525 -1.8852 -1.2578 -2.5771
19371TIP3   OH279603   3.309   0.797  10.618 -0.0006  0.1612 -0.2793
19371TIP3    H179604   3.288   0.739  10.691  1.0103  1.0444  0.7305
19371TIP3    H279605   3.228   0.843  10.599 -0.1610  0.2388  0.5799
19372TIP3   OH279606   1.488   0.858  13.779 -0.0834  0.6041  0.1064
19372TIP3    H179607   1.489   0.793  13.850 -0.5767  0.2415 -0.2188
19372TIP3    H279608   1.483   0.807  13.699 -2.7767  1.0645 -0.0800
19373TIP3   OH279609   1.507   6.562  16.719 -0.4694  0.5215 -0.1873
19373TIP3    H179610   1.538   6.473  16.702 -0.7677  0.3984 -0.0889
19373TIP3    H279611   1.433   6.573  16.660  0.1792  1.0563 -0.9117
19374TIP3   OH279612   5.144   4.683   6.285  0.1613 -0.3910 -0.3286
19374TIP3    H179613   5.079   4.673   6.216  0.6817 -0.5888 -0.7869
19374TIP3    H279614   5.093   4.680   6.366 -0.1144 -3.2323 -0.5574
19375TIP3   OH279615   3.120   0.540   4.291 -0.8651  0.3268 -0.2753
19375TIP3    H179616   3.162   0.496   4.218 -0.9792  1.7248 -1.1897
19375TIP3    H279617   3.038   0.575   4.255 -1.4575  0.0898  0.7880
19376TIP3   OH279618   4.404   4.556   6.205  0.0661 -0.2440 -0.8299
19376TIP3    H179619   4.401   4.612   6.282 -0.3985 -1.2461 -0.1056
19376TIP3    H279620   4.439   4.612   6.136 -0.6606  1.0191 -0.2020
19377TIP3   OH279621   3.747   4.071  11.323  0.7982 -0.2623  0.4568
19377TIP3    H179622   3.719   4.062  11.232  0.5360  1.9118  0.2916
19377TIP3    H279623   3.668   4.098  11.370  1.5738  1.4852  0.7967
19378TIP3   OH279624   0.335   2.777   4.264  0.2661  0.0398 -0.1488
19378TIP3    H179625   0.243   2.763   4.243  0.1987  1.6416 -1.0232
19378TIP3    H279626   0.380   2.702   4.225 -0.7252 -1.1056  0.8735
19379TIP3   OH279627   4.958   5.016  11.448 -0.2383  0.3494 -0.1048
19379TIP3    H179628   4.866   5.031  11.426 -0.2646 -1.4476 -1.3626
19379TIP3    H279629   5.004   5.023  11.364  0.5832 -0.0940  0.3054
19380TIP3   OH279630   2.879   6.155  13.340 -0.0919 -0.1350 -0.2698
19380TIP3    H179631   2.969   6.136  13.314 -0.5249 -0.5181 -1.5366
19380TIP3    H279632   2.835   6.070  13.337 -0.5528  0.0855  0.1207
19381TIP3   OH279633   6.364   1.896  13.906  0.1181 -0.4088 -0.1967
19381TIP3    H179634   6.292   1.910  13.844  0.8382 -0.4428 -1.0477
19381TIP3    H279635   6.391   1.985  13.931  1.8179 -0.3110 -2.2665
19382TIP3   OH279636   3.395   0.060  16.532 -0.7016  0.4553  0.0242
19382TIP3    H179637   3.353   0.131  16.483  0.1035  0.2029 -1.0485
19382TIP3    H279638   3.343  -0.018  16.509 -0.7859  0.4692  0.1678
19383TIP3   OH279639   1.750   2.750  11.047  0.1528 -0.5215 -0.3370
19383TIP3    H179640   1.821   2.761  11.110  0.3470 -1.3001 -0.4202
19383TIP3    H279641   1.768   2.816  10.979  0.4281 -0.2775 -0.0288
19384TIP3   OH279642   4.549   5.919   3.585 -0.3519 -0.0160  0.3546
19384TIP3    H179643   4.636   5.894   3.555  0.1542  0.4823  1.3619
19384TIP3    H279644   4.543   6.013   3.566 -0.6612 -0.0482  0.2903
19385TIP3   OH279645   5.422   1.999  12.264 -0.7480  0.5094 -0.3856
19385TIP3    H179646   5.379   1.919  12.294  0.5498 -1.0224 -2.4918
19385TIP3    H279647   5.457   2.039  12.344 -0.1121 -1.8302  0.5533
19386TIP3   OH279648   4.899   0.874   3.210  0.1340 -0.0295 -0.5137
19386TIP3    H179649   4.890   0.967   3.228 -1.7290 -0.3675  0.3927
19386TIP3    H279650   4.974   0.846   3.263 -0.5230  0.5552  0.7354
19387TIP3   OH279651   1.508   1.333  12.599 -0.2221  0.2366  0.2290
19387TIP3    H179652   1.461   1.378  12.529 -1.0711 -1.9668 -0.6601
19387TIP3    H279653   1.440   1.287  12.648  0.6765 -0.5919  0.7277
19388TIP3   OH279654   4.703   4.074   0.297 -0.5774 -0.7548 -0.1397
19388TIP3    H179655   4.770   4.021   0.338 -0.5462  0.7878  1.8640
19388TIP3    H279656   4.621   4.027   0.313 -0.1575 -1.9212 -1.3696
19389TIP3   OH279657   1.529   6.380  15.920  0.0103  0.0339 -0.4875
19389TIP3    H179658   1.474   6.453  15.890  1.9433  1.7897  0.1055
19389TIP3    H279659   1.592   6.366  15.849 -0.7951 -1.5702 -0.9137
19390TIP3   OH279660   5.926   0.524   2.438  0.0374  0.0706 -0.5545
19390TIP3    H179661   5.896   0.614   2.450 -0.1312 -0.2729  1.7911
19390TIP3    H279662   5.848   0.470   2.450  0.7096 -0.5613  1.1906
19391TIP3   OH279663   1.447   3.823   1.114  0.0128  0.0267 -0.6351
19391TIP3    H179664   1.425   3.754   1.051  1.1817 -0.8801 -0.0665
19391TIP3    H279665   1.440   3.780   1.200 -0.5592  0.9811 -0.1883
19392TIP3   OH279666   4.225   6.083   3.181 -0.3753  0.1026 -0.2540
19392TIP3    H179667   4.240   6.131   3.263 -0.4670  1.1729 -0.8561
19392TIP3    H279668   4.305   6.033   3.168  0.9413  2.3935 -1.1622
19393TIP3   OH279669   5.490   3.708   4.107 -0.5132  0.3116 -0.4833
19393TIP3    H179670   5.435   3.646   4.061  0.1124 -0.9925  0.5133
19393TIP3    H279671   5.541   3.750   4.037 -0.2186 -0.9978 -1.0740
19394TIP3   OH279672   6.462   5.393   1.979  0.1986  0.2132 -0.3150
19394TIP3    H179673   6.411   5.384   2.059  0.1344 -0.3013 -0.4091
19394TIP3    H279674   6.501   5.480   1.984 -0.1497  0.3460  0.0732
19395TIP3   OH279675   5.268   4.302  15.521  0.1171  0.2540 -0.1062
19395TIP3    H179676   5.300   4.316  15.432 -0.4599 -1.1539 -0.5539
19395TIP3    H279677   5.256   4.207  15.527 -1.2669  0.4820  0.9784
19396TIP3   OH279678   3.120   3.273   3.196  0.2030  0.2202  0.6054
19396TIP3    H179679   3.148   3.190   3.235 -0.6096  0.4634  1.7267
19396TIP3    H279680   3.183   3.337   3.229 -0.9386  0.5605  2.1693
19397TIP3   OH279681   3.322   4.172  13.808 -0.0617  0.4766  0.2322
19397TIP3    H179682   3.343   4.112  13.736  0.2448  0.5928  0.2226
19397TIP3    H279683   3.318   4.116  13.885 -1.6375  0.1607 -0.0704
19398TIP3   OH279684   5.703   2.239  16.787 -0.0659 -0.3454 -0.0558
19398TIP3    H179685   5.620   2.268  16.748 -1.2876 -1.1191  1.9172
19398TIP3    H279686   5.769   2.291  16.742 -1.5665  0.0065 -1.9570
19399TIP3   OH279687   1.168   4.757  15.155  0.0186 -0.4069 -0.0597
19399TIP3    H179688   1.086   4.788  15.116  0.4945  1.3420  0.2824
19399TIP3    H279689   1.211   4.708  15.085  1.1402  3.1694 -2.0365
19400TIP3   OH279690   5.630   1.130  13.517 -0.9107  0.9610 -0.1538
19400TIP3    H179691   5.633   1.187  13.441 -1.6142  2.6015  1.0092
19400TIP3    H279692   5.540   1.135  13.548 -1.1523 -1.2734 -0.3511
19401TIP3   OH279693   4.825   5.326  12.305  0.0016  0.4722  0.0721
19401TIP3    H179694   4.843   5.305  12.397  0.6042 -1.1512 -0.4045
19401TIP3    H279695   4.893   5.388  12.281 -0.2365  1.0068  0.7537
19402TIP3   OH279696   4.730   4.331   0.403 -0.3019 -0.6415  0.1504
19402TIP3    H179697   4.708   4.238   0.405 -1.2050 -0.4475 -0.7739
19402TIP3    H279698   4.663   4.371   0.348 -0.2171  0.6377  0.9537
19403TIP3   OH279699   3.582   4.931   0.113 -0.0020  0.2235 -0.3907
19403TIP3    H179700   3.577   5.026   0.124  0.3320  0.2416 -0.3855
19403TIP3    H279701   3.676   4.912   0.109 -0.0339 -0.2528  0.9014
19404TIP3   OH279702   0.449   5.486   2.516 -0.2094  0.3077  0.3138
19404TIP3    H179703   0.420   5.575   2.497  1.1107  0.6784 -0.0286
19404TIP3    H279704   0.460   5.484   2.611 -1.1662  0.2160  0.4255
19405TIP3   OH279705   4.085   4.774  13.954  0.2738 -0.5292 -0.0040
19405TIP3    H179706   4.037   4.856  13.945  2.4687  0.6956 -0.7151
19405TIP3    H279707   4.016   4.707  13.959 -1.5227  1.2590 -0.0446
19406TIP3   OH279708   1.401   6.439  16.189  0.0691 -0.1751 -0.0521
19406TIP3    H179709   1.434   6.430  16.100  1.1337  2.7235 -0.0139
19406TIP3    H279710   1.305   6.435  16.179  0.1491  1.0040 -1.4510
19407TIP3   OH279711   3.382   1.395   0.775 -0.0384  0.8122  0.0771
19407TIP3    H179712   3.396   1.467   0.713 -0.6998  0.5093 -0.4252
19407TIP3    H279713   3.470   1.371   0.803  0.4624 -0.6013 -2.5201
19408TIP3   OH279714   3.989   3.553  17.287 -0.6132  0.3009  0.2737
19408TIP3    H179715   3.930   3.524  17.357 -0.6533 -1.0644 -0.2982
19408TIP3    H279716   3.962   3.643  17.269 -2.3673 -0.2134  0.2018
19409TIP3   OH279717   5.367   2.902  11.567 -0.2314  0.3366 -0.0956
19409TIP3    H179718   5.329   2.845  11.500 -1.9251  0.7076  0.5112
19409TIP3    H279719   5.324   2.987  11.553 -1.7854  0.0054  2.4309
19410TIP3   OH279720   3.175   4.478   2.415 -0.7114 -0.1713 -0.0927
19410TIP3    H179721   3.248   4.526   2.376 -1.6494  0.7183 -0.7831
19410TIP3    H279722   3.170   4.510   2.505 -0.7303  0.3271 -0.2702
19411TIP3   OH279723   0.550   6.795  17.255  0.0757  0.0525  0.0034
19411TIP3    H179724   0.530   6.857  17.185 -0.0340  0.7450  0.6404
19411TIP3    H279725   0.595   6.722  17.212  1.1651  1.0651 -0.5921
19412TIP3   OH279726   6.168   1.757  15.498  0.5104 -0.2138 -0.2754
19412TIP3    H179727   6.088   1.721  15.536  0.7224  0.8945  1.2495
19412TIP3    H279728   6.152   1.851  15.493  1.1601 -0.1503 -1.3429
19413TIP3   OH279729   0.341   5.153   4.021 -0.7170  0.1083  0.1534
19413TIP3    H179730   0.340   5.217   3.950  0.5209  0.1652  0.1616
19413TIP3    H279731   0.321   5.069   3.979  0.6085  0.0426 -0.3978
19414TIP3   OH279732   3.415   1.749  14.340  0.5999 -0.3128  0.1428
19414TIP3    H179733   3.405   1.779  14.249  1.9663  1.8860  0.6962
19414TIP3    H279734   3.344   1.792  14.387  1.4246  0.5607  0.5909
19415TIP3   OH279735   0.656   1.050  15.687  0.3076 -0.1083 -0.0113
19415TIP3    H179736   0.668   1.016  15.598  0.0743  0.3519 -0.2197
19415TIP3    H279737   0.564   1.031  15.706  0.2708  0.0888  0.0064
19416TIP3   OH279738   2.563   4.768  12.556  0.3058 -0.7093 -0.1203
19416TIP3    H179739   2.600   4.848  12.593  1.9367 -0.8208 -1.4382
19416TIP3    H279740   2.494   4.799  12.497 -1.5372 -0.4826  2.0741
19417TIP3   OH279741   0.068   1.467  15.379  0.2213 -0.2730  0.3547
19417TIP3    H179742   0.103   1.536  15.436 -0.0362  0.6760 -0.6064
19417TIP3    H279743  -0.014   1.440  15.421 -0.9881  1.8161 -0.5670
19418TIP3   OH279744   3.035   5.786   3.501 -0.3720  0.5034  0.1989
19418TIP3    H179745   3.093   5.716   3.470 -0.5105  0.4633  0.0280
19418TIP3    H279746   3.024   5.844   3.425 -1.9055 -0.3995 -0.2935
19419TIP3   OH279747   5.095   0.304  14.782 -0.2517 -0.5802  0.0013
19419TIP3    H179748   5.033   0.374  14.804  1.1996  0.9770 -0.7750
19419TIP3    H279749   5.088   0.242  14.855 -0.0275  1.4280  1.7631
19420TIP3   OH279750   3.083   6.378  14.925 -0.4005  0.4565  0.3306
19420TIP3    H179751   2.994   6.399  14.951 -0.3958 -0.3738  1.0485
19420TIP3    H279752   3.128   6.462  14.920 -0.6082  0.6977  2.2439
19421TIP3   OH279753   4.737   1.267   5.170  0.0849  0.3049 -0.8201
19421TIP3    H179754   4.645   1.293   5.171  0.4993  1.9151  1.9130
19421TIP3    H279755   4.736   1.173   5.185 -1.0844  0.5512  0.7373
19422TIP3   OH279756   6.317   4.185   6.181  0.4263 -0.2860  0.0326
19422TIP3    H179757   6.234   4.172   6.228  0.2012 -0.4131 -0.3987
19422TIP3    H279758   6.376   4.120   6.218  0.6433  0.4852  1.0736
19423TIP3   OH279759   5.114   6.505  15.510 -0.5882 -0.0847  0.3310
19423TIP3    H179760   5.202   6.467  15.514 -0.9277 -0.8503  0.7658
19423TIP3    H279761   5.118   6.581  15.568 -0.0579  0.2140 -0.0924
19424TIP3   OH279762   5.204   2.758  12.019  0.2230  0.3264 -0.8038
19424TIP3    H179763   5.182   2.667  12.041  0.3921  0.2061 -1.1375
19424TIP3    H279764   5.280   2.778  12.074  1.0997 -0.2123 -1.8013
19425TIP3   OH279765   4.488   3.336   3.980 -0.2834  0.2897  0.1230
19425TIP3    H179766   4.456   3.247   3.962 -0.7165  0.7778 -1.5881
19425TIP3    H279767   4.441   3.391   3.917  0.5072  1.6416  0.7106
19426TIP3   OH279768   4.637   3.944  11.052 -0.1765  0.2882 -0.4096
19426TIP3    H179769   4.692   4.022  11.046  0.0812  0.1744  0.4050
19426TIP3    H279770   4.687   3.883  11.108  0.4782 -1.1887 -2.5343
19427TIP3   OH279771   0.862   2.012   3.435  0.0973 -0.3230 -0.7096
19427TIP3    H179772   0.812   2.050   3.363 -0.2023  0.4387 -0.1117
19427TIP3    H279773   0.798   1.961   3.485  0.1533 -0.2846 -0.5966
19428TIP3   OH279774   3.446   2.565   3.651  0.4576 -0.0951 -0.2671
19428TIP3    H179775   3.460   2.471   3.666  2.3256 -0.2641 -2.7839
19428TIP3    H279776   3.387   2.568   3.576  1.0298  0.7596 -0.6823
19429TIP3   OH279777   3.037   5.895  15.065 -0.0078 -0.3375  0.3777
19429TIP3    H179778   3.120   5.858  15.034  1.2328  0.3126  2.7599
19429TIP3    H279779   3.008   5.834  15.133  0.5551  1.4604  2.2767
19430TIP3   OH279780   2.737   3.309   0.785  0.2202  0.0494  0.3910
19430TIP3    H179781   2.771   3.388   0.827 -0.1237 -0.4150  1.5532
19430TIP3    H279782   2.771   3.238   0.839 -0.5993 -0.5341  0.1314
19431TIP3   OH279783   1.371   6.100  12.672  0.5747 -0.3919  0.4752
19431TIP3    H179784   1.316   6.043  12.726 -1.3841  1.0729  0.1236
19431TIP3    H279785   1.335   6.092  12.584  2.1051 -0.7952 -0.1246
19432TIP3   OH279786   2.395   2.835   0.717 -0.2823 -0.0492  0.1820
19432TIP3    H179787   2.314   2.854   0.764  0.1452  0.3700  0.7513
19432TIP3    H279788   2.427   2.920   0.687 -0.3407 -0.2700 -0.5246
19433TIP3   OH279789   1.353   0.970  11.022 -0.1661  0.2964  0.0814
19433TIP3    H179790   1.429   0.976  10.964 -0.0549  0.4955  0.2431
19433TIP3    H279791   1.329   1.062  11.039 -1.2651  0.2209 -1.0290
19434TIP3   OH279792   5.928   1.258   0.917 -0.1962  0.3251  0.5394
19434TIP3    H179793   5.922   1.259   0.822  1.4407 -2.1424  0.3661
19434TIP3    H279794   5.999   1.320   0.937  0.5303 -0.3508  0.0535
19435TIP3   OH279795   3.723   4.545  13.619  0.1720  0.0012  0.5765
19435TIP3    H179796   3.759   4.537  13.531 -0.7938  1.9059 -0.0126
19435TIP3    H279797   3.628   4.543  13.607  0.0426 -0.9409  1.6972
19436TIP3   OH279798   2.945   0.085   0.068  0.0168 -0.0798  0.1731
19436TIP3    H179799   3.000   0.161   0.052 -0.9492  0.9007  1.4147
19436TIP3    H279800   2.881   0.085  -0.003 -0.0389  0.3173  0.2251
19437TIP3   OH279801   1.194   3.851  12.555 -0.0015  0.4160  0.4455
19437TIP3    H179802   1.123   3.910  12.582 -0.6193 -0.2098  0.2064
19437TIP3    H279803   1.233   3.821  12.637 -0.7454 -0.1153  0.6117
19438TIP3   OH279804   4.444   0.049   5.441 -0.1818  0.4647  0.6931
19438TIP3    H179805   4.450  -0.014   5.512  0.5417  0.1190  0.3379
19438TIP3    H279806   4.512   0.114   5.460 -0.4284  0.7326  0.6687
19439TIP3   OH279807   6.039   5.565   0.591  0.4185  0.0297  0.0478
19439TIP3    H179808   6.012   5.475   0.574  1.0155  0.3923 -3.2353
19439TIP3    H279809   6.037   5.607   0.505  0.3073  3.1247  1.4911
19440TIP3   OH279810   4.474   2.107   4.181  0.3799 -0.1393  0.1850
19440TIP3    H179811   4.486   2.016   4.207  0.5794  0.1083  0.9932
19440TIP3    H279812   4.440   2.150   4.259 -0.0303  0.4116 -0.2933
19441TIP3   OH279813   5.929   6.234  12.036 -0.0460  0.0848 -0.2508
19441TIP3    H179814   5.913   6.314  12.086 -0.8523  0.7370 -1.5288
19441TIP3    H279815   5.843   6.194  12.026 -0.3644  1.4110 -3.4757
19442TIP3   OH279816   4.160   1.633   3.266 -0.1600 -0.0041 -0.3541
19442TIP3    H179817   4.227   1.651   3.200 -1.0547 -0.5946 -1.4459
19442TIP3    H279818   4.209   1.615   3.346  0.9347  0.9992 -0.7835
19443TIP3   OH279819   6.676   5.724  11.888  0.1139 -0.1971 -0.2233
19443TIP3    H179820   6.717   5.810  11.882 -0.9556  0.3458  0.1913
19443TIP3    H279821   6.749   5.662  11.879  0.8936  0.7443 -0.4446
19444TIP3   OH279822   3.515   2.415  15.877  0.3260 -0.4996 -0.0456
19444TIP3    H179823   3.496   2.442  15.787  0.6346 -0.4631 -0.0987
19444TIP3    H279824   3.430   2.392  15.913  0.4161 -2.4436 -0.9863
19445TIP3   OH279825   3.570   5.649  14.964 -0.1227  0.2979 -0.8569
19445TIP3    H179826   3.640   5.584  14.963 -1.0481 -0.7375 -0.3179
19445TIP3    H279827   3.493   5.602  14.931 -1.3818  0.4276  1.7408
19446TIP3   OH279828   3.964   3.900  13.638  0.3091  0.1385 -0.5283
19446TIP3    H179829   3.870   3.883  13.637  0.4493 -0.6429 -0.2520
19446TIP3    H279830   3.994   3.864  13.722  0.9571 -0.1619 -0.8893
19447TIP3   OH279831   5.730   3.514  14.757  0.4168  0.3650 -0.1735
19447TIP3    H179832   5.701   3.479  14.673  1.1009 -1.2576  0.2439
19447TIP3    H279833   5.702   3.606  14.756 -1.7877 -0.2985 -1.1090
19448TIP3   OH279834   2.389   2.889   2.049  0.1842  0.1689 -0.1644
19448TIP3    H179835   2.304   2.920   2.080  0.7593 -1.5915  3.4300
19448TIP3    H279836   2.453   2.938   2.101  1.3519  0.5472 -1.9290
19449TIP3   OH279837   6.475   0.226   5.522 -0.1063 -0.1132  0.7560
19449TIP3    H179838   6.513   0.310   5.495  1.1984 -0.4394  1.5589
19449TIP3    H279839   6.410   0.250   5.588 -2.1867  0.5450 -1.4341
19450TIP3   OH279840   1.761   1.940   0.531  0.3794  0.8630 -0.2446
19450TIP3    H179841   1.806   2.015   0.570  1.4095  0.8435 -1.3355
19450TIP3    H279842   1.824   1.868   0.539 -0.6755  0.0652  0.9583
19451TIP3   OH279843   2.712   4.689   5.234  0.1165  0.1132  0.5733
19451TIP3    H179844   2.730   4.774   5.195  1.1403 -0.3927 -0.0867
19451TIP3    H279845   2.785   4.634   5.207  0.3478 -0.5237  2.4297
19452TIP3   OH279846   5.898   3.614   0.489 -0.3686  0.0820 -0.1919
19452TIP3    H179847   5.960   3.610   0.417 -2.6611  0.5358 -2.2491
19452TIP3    H279848   5.872   3.523   0.504 -1.3209  0.1707 -1.2444
19453TIP3   OH279849   2.105   1.152  14.182 -0.4009  1.0086 -0.0630
19453TIP3    H179850   2.188   1.151  14.135 -0.1737 -0.3776  0.3606
19453TIP3    H279851   2.041   1.177  14.115  0.1022  0.2764 -0.8328
19454TIP3   OH279852   4.027   6.563  14.558  0.0647 -0.1355 -0.7491
19454TIP3    H179853   3.945   6.521  14.534 -0.7321  0.7095  0.4715
19454TIP3    H279854   4.004   6.654  14.577  1.3755  0.2690 -0.9963
19455TIP3   OH279855   3.498   3.318  11.136 -0.1817  0.0954  0.2262
19455TIP3    H179856   3.530   3.332  11.225 -0.0586  1.1700  0.0178
19455TIP3    H279857   3.470   3.226  11.135  0.2429 -0.0525  1.2349
19456TIP3   OH279858   5.567   2.122  12.997 -0.1085 -0.2505  0.3063
19456TIP3    H179859   5.639   2.079  12.949 -0.1633 -1.1098  0.9756
19456TIP3    H279860   5.535   2.054  13.057  0.3985  1.0073  2.0346
19457TIP3   OH279861   0.259   2.523  16.374 -0.3620  0.1018 -0.0522
19457TIP3    H179862   0.211   2.462  16.431 -0.5950 -0.5614 -0.9435
19457TIP3    H279863   0.317   2.570  16.434  1.3963 -2.5071  0.4170
19458TIP3   OH279864   4.551   2.027  16.162 -0.0057 -0.7445 -0.3015
19458TIP3    H179865   4.466   2.071  16.153  0.6764  1.0028  1.4939
19458TIP3    H279866   4.541   1.971  16.238  0.6852  0.0564  0.3882
19459TIP3   OH279867   6.519   3.765  15.712 -0.8896  0.0443 -0.0648
19459TIP3    H179868   6.539   3.827  15.643 -2.6692 -0.5182 -1.1196
19459TIP3    H279869   6.521   3.679  15.669 -1.0046 -0.4062  0.8048
19460TIP3   OH279870   5.945   3.693   3.154 -0.1008 -0.6229  0.0258
19460TIP3    H179871   5.856   3.662   3.169 -0.5851  1.4197  1.5417
19460TIP3    H279872   5.946   3.718   3.061 -0.7005 -1.8597 -0.3301
19461TIP3   OH279873   3.396   1.219  11.896  0.1777 -0.5287 -0.6157
19461TIP3    H179874   3.465   1.285  11.899 -0.1955 -0.1682  0.0525
19461TIP3    H279875   3.435   1.141  11.935 -0.4856  0.3124  1.7620
19462TIP3   OH279876   6.366   6.768   3.033  0.6410  0.6989 -0.3453
19462TIP3    H179877   6.395   6.677   3.030 -2.6031 -0.4770  1.6377
19462TIP3    H279878   6.344   6.789   2.942 -1.8451 -1.6786 -0.3496
19463TIP3   OH279879   6.318   0.361   5.692 -0.6488 -0.1422  0.0482
19463TIP3    H179880   6.313   0.457   5.697 -1.3271 -0.0684 -1.7150
19463TIP3    H279881   6.235   0.331   5.730 -0.5255 -0.0317  0.4074
19464TIP3   OH279882   6.504   2.083  15.309  0.4123  0.0257  0.3742
19464TIP3    H179883   6.508   1.988  15.322  0.1727 -0.3115 -1.7150
19464TIP3    H279884   6.542   2.120  15.388  0.8980 -1.8315  1.0403
19465TIP3   OH279885   0.270   5.324  14.773 -0.2468  0.2823  0.8960
19465TIP3    H179886   0.189   5.273  14.768 -0.7111  0.9642  1.2585
19465TIP3    H279887   0.261   5.374  14.854 -1.4071  3.5798 -1.1642
19466TIP3   OH279888   2.448   1.668  17.182  0.2302 -0.4242 -0.2570
19466TIP3    H179889   2.516   1.622  17.133  0.9281  0.5637 -0.2257
19466TIP3    H279890   2.370   1.661  17.127  0.2091 -2.0322 -0.0409
19467TIP3   OH279891   3.622   6.427   6.045 -0.4015  0.0386  0.3349
19467TIP3    H179892   3.688   6.362   6.069  0.0565 -0.2185 -1.5174
19467TIP3    H279893   3.600   6.470   6.127  0.4143 -1.4127  1.3433
19468TIP3   OH279894   1.742   2.276  16.649 -0.1129  0.5915  0.1029
19468TIP3    H179895   1.786   2.200  16.687  0.7326  1.4150  0.7955
19468TIP3    H279896   1.813   2.338  16.630 -0.9078  1.6695  0.6167
19469TIP3   OH279897   5.582   4.311  13.649  0.1169 -0.5943 -0.2559
19469TIP3    H179898   5.534   4.379  13.602  0.9047 -0.4202 -0.8082
19469TIP3    H279899   5.659   4.356  13.685  0.2352 -1.0255  0.0341
19470TIP3   OH279900   4.554   6.167  13.284 -0.0090  0.4228 -0.2416
19470TIP3    H179901   4.500   6.243  13.261  1.1689  1.6572  0.9430
19470TIP3    H279902   4.577   6.128  13.200 -1.6523  0.6497 -0.8112
19471TIP3   OH279903   2.284   3.398  17.125 -0.2773  0.3906  0.0634
19471TIP3    H179904   2.261   3.387  17.033 -2.7272  0.3239  0.6409
19471TIP3    H279905   2.371   3.360  17.133  1.1362  2.8118 -2.7578
19472TIP3   OH279906   6.674   4.052   2.169  0.3939 -0.4488  0.1582
19472TIP3    H179907   6.655   4.040   2.076  1.3049 -1.0667  0.0494
19472TIP3    H279908   6.765   4.024   2.180 -0.3213 -2.4241  1.5925
19473TIP3   OH279909   5.563   2.889  16.962 -0.1864  0.2146  0.0130
19473TIP3    H179910   5.548   2.844  16.879  0.0600 -0.2361  0.2128
19473TIP3    H279911   5.637   2.947  16.945 -0.1242  0.1095 -0.0785
19474TIP3   OH279912   0.672   1.799   4.703 -0.0724  0.2638 -0.1810
19474TIP3    H179913   0.617   1.797   4.624 -3.0749  0.2372  1.8029
19474TIP3    H279914   0.655   1.714   4.745  0.3272  0.8918  1.2449
19475TIP3   OH279915   4.290   6.294   1.155 -1.0069  0.4878 -0.3935
19475TIP3    H179916   4.232   6.306   1.079 -0.2211 -1.5667 -1.3679
19475TIP3    H279917   4.234   6.252   1.221 -1.0375 -0.0504 -0.7595
19476TIP3   OH279918   3.172   4.243   2.009 -0.4726 -0.5013 -0.1837
19476TIP3    H179919   3.133   4.327   1.984  0.4437  0.2023  0.7390
19476TIP3    H279920   3.122   4.215   2.085 -0.4084 -0.5120 -0.1451
19477TIP3   OH279921   5.768   3.438  11.836  0.5986  0.1437  0.1717
19477TIP3    H179922   5.725   3.521  11.855 -0.2006  0.0875 -1.2952
19477TIP3    H279923   5.779   3.396  11.921  1.3462  1.9018  0.9692
19478TIP3   OH279924   0.114   5.698   4.468  0.0729 -0.8455  0.2806
19478TIP3    H179925   0.137   5.622   4.414  1.9650 -1.2723  1.6100
19478TIP3    H279926   0.161   5.771   4.428 -0.3230 -0.7277  0.0342
19479TIP3   OH279927   0.715   4.388  16.568 -0.1237  0.3853 -0.3302
19479TIP3    H179928   0.763   4.339  16.636 -0.3852 -0.2845 -0.6211
19479TIP3    H279929   0.737   4.343  16.486  1.2874  2.0333 -0.8710
19480TIP3   OH279930   5.130   6.105  13.376 -0.2535  0.1020  0.3956
19480TIP3    H179931   5.180   6.148  13.306 -0.3942 -0.0714  0.1903
19480TIP3    H279932   5.079   6.176  13.416 -0.9792  0.0191 -0.3625
19481TIP3   OH279933   4.188   3.157   3.604 -0.0058 -0.6557  0.2702
19481TIP3    H179934   4.231   3.130   3.684 -1.0924 -2.7053  0.1877
19481TIP3    H279935   4.259   3.184   3.546  0.8567 -0.2715  1.4985
19482TIP3   OH279936   3.418   1.758   4.935 -0.6141  0.5749 -0.1165
19482TIP3    H179937   3.510   1.784   4.924 -0.8833  1.6283  0.0546
19482TIP3    H279938   3.383   1.821   4.999 -1.7277  0.8331 -0.9664
19483TIP3   OH279939   1.566   0.063  15.747  0.4085  0.2716 -0.2100
19483TIP3    H179940   1.596   0.022  15.666  0.8230 -0.1299  0.1435
19483TIP3    H279941   1.617   0.021  15.816  1.1268  1.6797  0.1306
19484TIP3   OH279942   3.104   0.427   0.675  0.0219 -0.2661  0.1100
19484TIP3    H179943   3.033   0.458   0.619 -0.2788 -0.7711  0.2002
19484TIP3    H279944   3.180   0.479   0.649 -0.5890  0.9094  0.6272
19485TIP3   OH279945   5.332   2.077  13.614  0.2175 -0.2356 -0.4764
19485TIP3    H179946   5.395   2.022  13.661  0.5350 -0.4786 -1.1841
19485TIP3    H279947   5.355   2.166  13.640  1.9486 -0.1932 -2.0086
19486TIP3   OH279948   6.127   2.861   5.080  0.3715 -0.1716 -0.3495
19486TIP3    H179949   6.068   2.935   5.063 -0.4502 -0.8075 -0.3130
19486TIP3    H279950   6.214   2.895   5.062 -0.0716  0.5776 -1.1259
19487TIP3   OH279951   5.343   5.445   2.760 -0.2029  0.2646 -0.5285
19487TIP3    H179952   5.303   5.380   2.818  0.7510  0.3735  0.2701
19487TIP3    H279953   5.274   5.510   2.747  0.1308  1.2207  2.0396
19488TIP3   OH279954   6.667   0.711   0.086 -0.0258 -0.4871 -0.2451
19488TIP3    H179955   6.620   0.692   0.167  1.4624  0.1787  0.7945
19488TIP3    H279956   6.694   0.802   0.095 -0.2072 -0.2809 -1.6820
19489TIP3   OH279957   3.725   5.966  17.273  0.2657 -0.0775  0.2606
19489TIP3    H179958   3.817   5.954  17.295 -0.0692  0.0563  1.7946
19489TIP3    H279959   3.677   5.918  17.341 -0.7566 -3.2423 -2.5641
19490TIP3   OH279960   6.286   4.313   3.560  0.6938  0.0933  0.8706
19490TIP3    H179961   6.305   4.340   3.650 -1.5754 -0.3157  1.4843
19490TIP3    H279962   6.313   4.221   3.556  0.2918 -0.0425  1.2809
19491TIP3   OH279963   3.726   2.997   4.072 -0.1865  0.1953  0.0873
19491TIP3    H179964   3.682   3.081   4.081 -1.4951 -0.2733 -1.4882
19491TIP3    H279965   3.726   2.981   3.977  0.9795 -1.0810  0.2949
19492TIP3   OH279966   0.948   6.024  15.632 -0.3696 -0.2154  0.1325
19492TIP3    H179967   0.968   6.013  15.725 -1.3381  0.6492  0.4679
19492TIP3    H279968   0.862   6.067  15.632  0.1805  0.9267 -1.1355
19493TIP3   OH279969   5.717   4.199   4.266 -0.1717 -0.3283  0.5291
19493TIP3    H179970   5.793   4.142   4.282  0.2066  0.3621  1.2689
19493TIP3    H279971   5.688   4.225   4.354  0.1229  1.2028  0.1914
19494TIP3   OH279972   2.445   4.239   1.872 -0.5950  0.6422  0.1960
19494TIP3    H179973   2.376   4.191   1.917  0.2006  0.4956  1.2751
19494TIP3    H279974   2.511   4.255   1.939 -0.3696  2.3244 -0.4014
19495TIP3   OH279975   5.404   1.143   3.343  0.0919 -0.0719 -0.1706
19495TIP3    H179976   5.443   1.167   3.427  1.6850 -0.9227 -0.6505
19495TIP3    H279977   5.315   1.117   3.364  0.7985 -1.2646  1.3946
19496TIP3   OH279978   1.338   2.868  15.170  0.5778  0.1018  0.1848
19496TIP3    H179979   1.341   2.784  15.124  3.6145 -0.2801  1.0106
19496TIP3    H279980   1.319   2.844  15.261 -0.9097  0.5263  0.0057
19497TIP3   OH279981   5.865   5.757  14.972  0.4431  0.2578 -0.1838
19497TIP3    H179982   5.809   5.740  14.896 -0.0199 -0.9313  0.3961
19497TIP3    H279983   5.846   5.847  14.997 -0.0607  0.3649 -0.9370
19498TIP3   OH279984   4.185   6.599  15.717  0.1496  0.3151  0.0702
19498TIP3    H179985   4.196   6.506  15.698 -0.3314 -0.0036  1.2442
19498TIP3    H279986   4.094   6.606  15.745  0.3090  1.0547  0.4011
19499TIP3   OH279987   4.618   0.262   1.980 -0.2453 -0.6303 -0.5082
19499TIP3    H179988   4.572   0.183   2.009  2.0370 -2.0546 -0.5560
19499TIP3    H279989   4.553   0.313   1.932 -2.0598 -1.9353  0.5162
19500TIP3   OH279990   5.729   1.228   5.221  0.2590 -0.1101 -0.1361
19500TIP3    H179991   5.741   1.315   5.261  1.9163 -0.6487  0.5985
19500TIP3    H279992   5.812   1.211   5.177  0.3997 -1.8577  0.7694
19501TIP3   OH279993   3.892   3.931  11.486 -0.0702 -0.0717  0.2182
19501TIP3    H179994   3.975   3.978  11.488 -0.2840  0.2863  0.8489
19501TIP3    H279995   3.834   3.986  11.433  0.5509 -1.1072 -1.5903
19502TIP3   OH279996   1.275   3.037  11.314 -0.7482 -0.0671 -0.2702
19502TIP3    H179997   1.267   3.132  11.310 -2.0506 -0.1882 -0.8319
19502TIP3    H279998   1.248   3.013  11.402  0.6913  0.1776  0.2421
19503TIP3   OH279999   6.187   4.520   2.134  0.0752  0.1340  0.2255
19503TIP3    H180000   6.148   4.534   2.221  1.0379 -1.0093  0.8667
19503TIP3    H280001   6.278   4.548   2.144 -0.0975  1.0306 -0.7309
19504TIP3   OH280002   2.541   2.532   1.358 -0.4758  0.2899 -0.2776
19504TIP3    H180003   2.609   2.487   1.308  0.2069 -0.7563  1.5537
19504TIP3    H280004   2.460   2.487   1.335 -0.1122 -0.4330 -0.1398
19505TIP3   OH280005   0.650   3.841   5.861 -0.1862 -0.3398  0.1349
19505TIP3    H180006   0.685   3.919   5.903 -2.2618  1.4149 -1.2224
19505TIP3    H280007   0.565   3.869   5.826 -0.6049 -2.9788 -1.1328
19506TIP3   OH280008   5.562   4.213  11.457 -0.0936  0.2767 -0.1761
19506TIP3    H180009   5.525   4.265  11.386  0.1725  0.2760 -0.3146
19506TIP3    H280010   5.506   4.233  11.532 -0.8946 -0.3927 -0.5975
19507TIP3   OH280011   4.539   0.294   4.383  0.2051 -0.0337 -0.1079
19507TIP3    H180012   4.488   0.365   4.422 -0.4545 -0.9173  0.6751
19507TIP3    H280013   4.601   0.338   4.325 -1.8520  1.0623 -1.5438
19508TIP3   OH280014   0.549   4.717   5.376  0.3771  0.0750 -0.5435
19508TIP3    H180015   0.480   4.748   5.317 -1.1126 -0.1441  1.0160
19508TIP3    H280016   0.584   4.797   5.416  0.9362  0.1771 -1.2356
19509TIP3   OH280017   1.827   2.912  12.254 -0.9547 -0.3931 -0.0442
19509TIP3    H180018   1.814   2.907  12.349 -0.6006 -0.1892  0.0124
19509TIP3    H280019   1.788   2.831  12.221  1.8698 -2.0787  0.5926
19510TIP3   OH280020   6.204   5.541   6.552 -0.1935  0.4445 -0.1100
19510TIP3    H180021   6.212   5.463   6.608 -0.2818  0.1766 -0.4659
19510TIP3    H280022   6.280   5.594   6.574  0.2213 -0.0459 -0.3260
19511TIP3   OH280023   1.137   5.752  16.219 -0.0076  0.1768  1.0247
19511TIP3    H180024   1.114   5.844  16.228  1.1398  0.4456  1.3285
19511TIP3    H280025   1.228   5.753  16.188  0.3259 -0.8550  1.9363
19512TIP3   OH280026   5.479   4.344  16.451  0.0243 -0.5898  0.5867
19512TIP3    H180027   5.450   4.436  16.447  1.8848 -0.0256 -0.5275
19512TIP3    H280028   5.570   4.350  16.480 -0.4383 -2.2247  2.4334
19513TIP3   OH280029   0.358   4.443   4.243 -0.1929  0.1610 -0.7301
19513TIP3    H180030   0.429   4.505   4.262 -0.5065  0.1568  0.4876
19513TIP3    H280031   0.282   4.498   4.228 -0.2040  0.1202 -0.8183
19514TIP3   OH280032   6.032   0.271   1.191 -0.2116 -0.1430  0.0095
19514TIP3    H180033   5.990   0.218   1.259 -1.4769 -0.1930 -0.8079
19514TIP3    H280034   5.995   0.358   1.203 -0.4991 -0.1693 -0.6640
19515TIP3   OH280035   5.767   2.845   6.024  0.1345 -0.2309  0.3437
19515TIP3    H180036   5.751   2.936   5.999  1.4534 -0.1650 -0.2955
19515TIP3    H280037   5.748   2.842   6.118  1.2549  0.9910  0.6222
19516TIP3   OH280038   0.593   3.485   5.382 -0.2820 -0.6153  0.3303
19516TIP3    H180039   0.502   3.485   5.412 -0.2073 -0.1680  0.5675
19516TIP3    H280040   0.617   3.392   5.378 -1.0189 -0.7702 -0.5813
19517TIP3   OH280041   5.299   4.858   5.230 -0.1292 -0.5121  0.2031
19517TIP3    H180042   5.205   4.863   5.245 -0.2528 -1.3407 -0.2827
19517TIP3    H280043   5.317   4.765   5.221  0.9378 -0.4489  1.5773
19518TIP3   OH280044   3.627   3.472   0.072  0.0872  0.1247  0.3542
19518TIP3    H180045   3.596   3.383   0.060  2.6000 -0.6159 -0.8849
19518TIP3    H280046   3.712   3.463   0.116  0.5675  1.8802 -0.1526
19519TIP3   OH280047   4.953   2.783  14.287 -0.5122  0.3210 -0.3014
19519TIP3    H180048   4.959   2.801  14.194  1.5858 -1.0813 -0.4619
19519TIP3    H280049   4.892   2.710  14.293 -0.9238  0.6432 -0.5387
19520TIP3   OH280050   1.069   4.295   3.981 -0.6217  0.1268  0.6618
19520TIP3    H180051   1.164   4.281   3.972 -0.7988 -2.5959  2.2795
19520TIP3    H280052   1.060   4.385   4.010  1.4834  0.4020  0.5411
19521TIP3   OH280053   4.244   4.658   5.410 -0.2918  0.3102 -0.1075
19521TIP3    H180054   4.204   4.739   5.378 -0.5178  0.1274 -0.2869
19521TIP3    H280055   4.279   4.681   5.496  0.9556  0.9908 -0.7859
19522TIP3   OH280056   0.954   1.700   3.864 -0.3447 -0.5000 -0.2162
19522TIP3    H180057   0.881   1.696   3.801 -0.1042  1.0739 -0.6205
19522TIP3    H280058   0.991   1.787   3.852  1.2643 -1.0777  0.3968
19523TIP3   OH280059   5.461   5.419   4.281 -0.5165 -0.0400 -0.1119
19523TIP3    H180060   5.402   5.442   4.353 -0.2643  2.0587 -0.5385
19523TIP3    H280061   5.548   5.439   4.314 -0.2843 -0.3725 -0.5189
19524TIP3   OH280062   4.436   4.865  16.070 -0.7816  0.6571 -0.0961
19524TIP3    H180063   4.523   4.828  16.084  0.2438  1.6684 -3.2538
19524TIP3    H280064   4.406   4.890  16.157  1.2892 -1.4288  1.2788
19525TIP3   OH280065   0.402   3.807  14.209 -0.5463 -0.1929 -0.7097
19525TIP3    H180066   0.448   3.794  14.292 -1.6889  1.2368  0.1747
19525TIP3    H280067   0.396   3.902  14.199  0.0525 -0.3409 -2.7172
19526TIP3   OH280068   3.483   1.945  11.461  0.3202 -0.6821 -0.2119
19526TIP3    H180069   3.562   1.967  11.411 -0.2270  1.0223 -0.3692
19526TIP3    H280070   3.443   2.030  11.481  0.5836 -1.3091  3.2487
19527TIP3   OH280071   1.782   5.436  13.410  0.4090 -0.0438 -0.4999
19527TIP3    H180072   1.848   5.453  13.477  0.4570 -0.7602 -0.3631
19527TIP3    H280073   1.762   5.343  13.419 -0.2005  0.0423 -0.9208
19528TIP3   OH280074   3.377   6.598   2.905 -0.1264 -0.6549  0.1845
19528TIP3    H180075   3.304   6.552   2.862 -0.8441  1.5413 -1.0423
19528TIP3    H280076   3.455   6.567   2.859 -0.6464 -0.3825 -0.9099
19529TIP3   OH280077   0.251   6.174   4.497  0.2697  0.4112 -0.2310
19529TIP3    H180078   0.250   6.108   4.428  1.7222 -0.6212  0.7030
19529TIP3    H280079   0.330   6.226   4.479  0.0911  0.7829  0.0567
19530TIP3   OH280080   0.767   5.692  12.530 -0.0523 -0.3899  0.0048
19530TIP3    H180081   0.819   5.685  12.610 -0.7935  0.2959  0.5510
19530TIP3    H280082   0.686   5.644  12.550 -0.2900 -0.1153 -0.2959
19531TIP3   OH280083   3.103   5.372   4.058 -0.3977  0.2367 -0.6040
19531TIP3    H180084   3.052   5.299   4.024  1.7564 -1.4348 -0.3432
19531TIP3    H280085   3.040   5.443   4.067 -2.6870 -1.7794 -0.2291
19532TIP3   OH280086   1.808   2.588  12.766  0.4039 -0.6467  0.5903
19532TIP3    H180087   1.784   2.681  12.761  0.9122 -0.4842  1.1381
19532TIP3    H280088   1.894   2.587  12.808  0.7214 -1.3215 -0.0628
19533TIP3   OH280089   3.842   4.124   2.128 -0.4929  0.2940 -0.1632
19533TIP3    H180090   3.769   4.116   2.189 -0.9562  0.2194 -0.7310
19533TIP3    H280091   3.900   4.189   2.169  0.2487 -1.2960  1.4139
19534TIP3   OH280092   3.247   4.249  13.450 -0.0881 -0.1622  0.1510
19534TIP3    H180093   3.159   4.259  13.413 -0.3648 -1.9356  0.2837
19534TIP3    H280094   3.245   4.301  13.530 -1.1098 -0.3755  0.2740
19535TIP3   OH280095   2.368   0.573   4.296  0.4788  0.5724 -0.1151
19535TIP3    H180096   2.275   0.551   4.286  0.2161  1.3300  0.6008
19535TIP3    H280097   2.368   0.662   4.332  1.4574  0.1458  0.9657
19536TIP3   OH280098   0.554   1.530   1.292 -0.3137 -0.0634  0.6268
19536TIP3    H180099   0.476   1.571   1.254 -0.4377 -0.1361  0.8001
19536TIP3    H280100   0.533   1.520   1.384  0.1694  0.5406  0.8071
19537TIP3   OH280101   4.720   5.001  16.511 -0.4244 -0.0337  0.1390
19537TIP3    H180102   4.635   4.980  16.471 -2.0006 -0.4646  3.5568
19537TIP3    H280103   4.781   4.940  16.470 -1.6780  0.4235 -2.5477
19538TIP3   OH280104   0.574   4.021   6.474  0.1049 -0.1318 -0.2162
19538TIP3    H180105   0.595   3.953   6.540 -1.1183 -0.9783 -0.6859
19538TIP3    H280106   0.497   4.066   6.510 -0.0979 -0.0906 -0.7070
19539TIP3   OH280107   2.181   0.479  15.468  0.3390 -0.1098 -0.1653
19539TIP3    H180108   2.131   0.399  15.482 -0.4664  0.7253  1.9130
19539TIP3    H280109   2.173   0.527  15.550  0.3387  2.3485 -1.5560
19540TIP3   OH280110   4.910   5.699  11.448 -0.1792  0.4754  0.0671
19540TIP3    H180111   4.822   5.735  11.457  0.2401  1.5957 -0.2741
19540TIP3    H280112   4.949   5.706  11.535 -0.3135  0.2845  0.1414
19541TIP3   OH280113   0.316   0.890   0.904  0.3332 -0.1080 -0.1147
19541TIP3    H180114   0.245   0.949   0.879 -0.1063 -1.3350 -1.7927
19541TIP3    H280115   0.288   0.855   0.989  1.5292  3.5521  1.9180
19542TIP3   OH280116   5.262   5.145  12.927  0.5451 -0.0103 -0.2697
19542TIP3    H180117   5.322   5.182  12.863  0.7873  1.3938  0.7424
19542TIP3    H280118   5.311   5.146  13.009 -0.9887  1.5441  0.6632
19543TIP3   OH280119   4.866   5.047  12.230 -0.0958  0.6089 -0.4950
19543TIP3    H180120   4.954   5.012  12.232 -0.2846  0.1525  0.1161
19543TIP3    H280121   4.877   5.142  12.233  0.3425  0.5184  0.7737
19544TIP3   OH280122   0.207   0.446   0.314  0.9285  0.2141 -0.2896
19544TIP3    H180123   0.116   0.442   0.285  0.1424  1.9573  1.8622
19544TIP3    H280124   0.257   0.412   0.240 -1.3260  0.8662 -2.1537
19545TIP3   OH280125   0.701   6.787   5.343  0.2609 -0.2138  0.1447
19545TIP3    H180126   0.711   6.706   5.393 -1.5193 -1.8325 -1.9991
19545TIP3    H280127   0.778   6.790   5.286  1.2159  0.5308  1.4611
19546TIP3   OH280128   2.573   3.769   5.006  0.3161  0.0028  0.1597
19546TIP3    H180129   2.570   3.816   4.923  0.4539 -1.2995 -0.6054
19546TIP3    H280130   2.489   3.787   5.048  0.7593  1.7110  0.3259
19547TIP3   OH280131   0.153   3.039   3.478  0.3830  0.0786  0.1379
19547TIP3    H180132   0.131   3.020   3.387  4.9847 -0.7262 -0.9657
19547TIP3    H280133   0.142   3.133   3.487 -0.2965  0.1356 -1.1873
19548TIP3   OH280134   0.863   6.340   2.334  0.5450  0.1300  0.1742
19548TIP3    H180135   0.877   6.414   2.275  2.2336 -1.4941 -1.4960
19548TIP3    H280136   0.773   6.312   2.315  0.2874  1.0180  0.0180
19549TIP3   OH280137   6.736   5.779  16.940  0.2919  0.0394  0.3708
19549TIP3    H180138   6.650   5.794  16.979  0.7224 -1.5725  1.9889
19549TIP3    H280139   6.767   5.697  16.979  2.0915  0.0161 -1.0222
19550TIP3   OH280140   4.369   5.002  16.894 -0.3351 -0.2865  0.0546
19550TIP3    H180141   4.349   4.936  16.960  1.7023 -0.3456  0.6375
19550TIP3    H280142   4.430   4.958  16.834  1.4799  1.1967  0.7626
19551TIP3   OH280143   1.195   1.823  11.573  0.0617  0.3659 -0.2822
19551TIP3    H180144   1.237   1.755  11.520 -0.4848 -1.0317  1.0396
19551TIP3    H280145   1.102   1.815  11.552  0.0230  0.8404 -0.2816
19552TIP3   OH280146   2.672   6.659   2.607 -0.0621 -0.3953  0.5161
19552TIP3    H180147   2.652   6.686   2.697 -1.5029  1.6750 -0.3722
19552TIP3    H280148   2.716   6.736   2.570 -2.2525 -0.0341 -1.4398
19553TIP3   OH280149   4.224   1.646  11.068 -0.5362 -0.0207 -0.3837
19553TIP3    H180150   4.209   1.552  11.060  2.3174 -0.6001  0.6341
19553TIP3    H280151   4.319   1.656  11.063 -0.6914  2.6537  1.0206
19554TIP3   OH280152   5.541   3.933  15.998  0.0534  0.9709  0.0011
19554TIP3    H180153   5.547   4.014  15.947 -2.1357  0.8101 -0.5520
19554TIP3    H280154   5.501   3.870  15.937  1.5087 -0.4698  0.5006
19555TIP3   OH280155   2.722   6.633  12.273  0.2041 -0.0858 -0.4307
19555TIP3    H180156   2.640   6.661  12.313 -0.0890 -1.7378  0.1448
19555TIP3    H280157   2.704   6.544  12.242  2.0384 -0.8019  0.4989
19556TIP3   OH280158   2.081   4.240  14.871 -0.2279  0.0034 -0.0448
19556TIP3    H180159   2.118   4.237  14.960 -0.8580 -0.7866  0.1931
19556TIP3    H280160   2.075   4.148  14.845 -1.2006  0.1767 -0.4243
19557TIP3   OH280161   5.296   5.422  13.824  0.0302 -0.0709  0.0553
19557TIP3    H180162   5.343   5.481  13.883 -1.3595  2.0694 -0.9012
19557TIP3    H280163   5.364   5.371  13.781  1.1801 -0.2638  2.0089
19558TIP3   OH280164   4.802   6.175   1.908  0.4122 -0.6394  0.2892
19558TIP3    H180165   4.812   6.244   1.842  1.1388 -2.9373 -2.0665
19558TIP3    H280166   4.708   6.176   1.928  0.0247 -0.4748 -1.4267
19559TIP3   OH280167   1.151   5.309   1.324  0.1045 -0.0659 -0.9473
19559TIP3    H180168   1.134   5.315   1.230 -0.6320  1.2266 -0.7427
19559TIP3    H280169   1.215   5.378   1.341 -1.9325  1.6540 -0.0230
19560TIP3   OH280170   3.827   4.374   4.390  0.4159 -0.3336  0.2850
19560TIP3    H180171   3.850   4.282   4.400 -1.6070 -0.7298  1.5148
19560TIP3    H280172   3.877   4.420   4.457  1.3937 -0.5183 -0.3056
19561TIP3   OH280173   1.007   4.004   4.749 -0.0803  0.0105  0.6889
19561TIP3    H180174   1.055   4.050   4.679 -0.9282  0.8980  0.6904
19561TIP3    H280175   1.076   3.964   4.802  0.5969 -0.2119 -0.3389
19562TIP3   OH280176   2.243   1.502   0.076 -0.0179  0.7420 -0.2706
19562TIP3    H180177   2.335   1.479   0.070  0.1416  1.1200  0.6634
19562TIP3    H280178   2.200   1.448   0.010  0.7959  0.1650 -0.3251
19563TIP3   OH280179   6.446   0.742   4.361  0.1258  0.0601  0.4518
19563TIP3    H180180   6.411   0.690   4.433 -0.7072  0.2597  0.2059
19563TIP3    H280181   6.485   0.818   4.402 -1.2423  0.6709  0.6360
19564TIP3   OH280182   2.814   5.193  11.107  0.1866 -0.3100  0.0508
19564TIP3    H180183   2.780   5.114  11.065 -0.1509  0.6801 -1.5975
19564TIP3    H280184   2.769   5.265  11.062  1.6324  0.8810  0.4791
19565TIP3   OH280185   4.479   1.364   5.612  0.6603  0.2638 -0.5272
19565TIP3    H180186   4.414   1.401   5.672  0.1799 -0.1679 -0.7783
19565TIP3    H280187   4.476   1.419   5.535  0.2335 -0.0595 -0.7404
19566TIP3   OH280188   2.629   5.024  12.299  0.1714  0.2587  0.5073
19566TIP3    H180189   2.675   5.094  12.252 -0.2243  0.0498 -0.1992
19566TIP3    H280190   2.687   4.948  12.290 -0.3590 -0.0361 -0.4861
19567TIP3   OH280191   6.802   3.841  16.924  0.0948 -0.5147 -0.1402
19567TIP3    H180192   6.773   3.847  17.015 -1.1959  1.0631 -0.6278
19567TIP3    H280193   6.891   3.808  16.930  0.1869 -0.0231  1.7311
19568TIP3   OH280194   6.324   1.884  11.487  0.6917 -0.6334 -1.0873
19568TIP3    H180195   6.295   1.847  11.404 -4.0200  1.4226 -0.5317
19568TIP3    H280196   6.317   1.979  11.474 -0.3864 -0.2931  1.7118
19569TIP3   OH280197   0.594   6.056   4.286 -0.2095 -0.1705 -0.2998
19569TIP3    H180198   0.544   6.065   4.204  0.8912 -0.0314 -0.9602
19569TIP3    H280199   0.643   5.975   4.275 -0.1690 -0.2253  0.2865
19570TIP3   OH280200   2.045   2.353  11.462 -0.0856  0.0223  0.7536
19570TIP3    H180201   2.017   2.367  11.553  1.4574 -1.3620  1.4727
19570TIP3    H280202   2.036   2.439  11.421 -3.6701  0.0365  1.3783
19571TIP3   OH280203   6.409   6.209   1.389  0.2494 -0.4532  0.0707
19571TIP3    H180204   6.368   6.238   1.308  1.9969 -0.1511 -0.7147
19571TIP3    H280205   6.442   6.121   1.370 -0.7857 -1.0637  0.9804
19572TIP3   OH280206   2.732   1.684   3.717  0.0120  0.0159  0.7058
19572TIP3    H180207   2.660   1.628   3.689 -0.1879 -0.1551  1.5422
19572TIP3    H280208   2.806   1.625   3.730  0.3264  0.1993 -0.2120
19573TIP3   OH280209   1.470   5.929   3.851  0.5124 -0.8254  0.4576
19573TIP3    H180210   1.481   5.877   3.771  1.9776 -2.2685  1.5657
19573TIP3    H280211   1.554   5.920   3.897  0.2607  1.3045  1.3938
19574TIP3   OH280212   3.947   2.627  13.309 -0.2913  0.2958 -0.2315
19574TIP3    H180213   3.868   2.594  13.352 -0.3056  1.2608  0.5010
19574TIP3    H280214   4.003   2.657  13.381  0.5352  0.0643 -0.7761
19575TIP3   OH280215   4.541   0.558   4.590 -0.0144 -0.5193  0.4565
19575TIP3    H180216   4.624   0.511   4.581  0.3527  0.2585 -0.3062
19575TIP3    H280217   4.526   0.561   4.684  1.2808  0.1028  0.6583
19576TIP3   OH280218   1.936   3.377  12.142  0.1292 -0.0684 -0.3368
19576TIP3    H180219   1.890   3.420  12.215  0.9150 -0.6731  0.5268
19576TIP3    H280220   1.935   3.442  12.072 -0.4983  0.5924  0.2662
19577TIP3   OH280221   0.295   5.677  16.539 -0.5590 -0.6993  0.1850
19577TIP3    H180222   0.387   5.650  16.531 -0.0849  0.8921  0.0504
19577TIP3    H280223   0.260   5.622  16.609  0.8149 -0.5247  1.0328
19578TIP3   OH280224   0.303   1.846   3.732 -0.3427  0.0251  0.1545
19578TIP3    H180225   0.335   1.768   3.687  0.9502 -0.0775  1.2346
19578TIP3    H280226   0.225   1.872   3.682 -0.0054 -1.1585 -1.0135
19579TIP3   OH280227   5.465   0.549  11.305 -0.1919 -0.1954 -0.3443
19579TIP3    H180228   5.511   0.465  11.303 -0.3282 -0.2833  0.2426
19579TIP3    H280229   5.378   0.530  11.270 -0.0984 -0.2182 -0.5676
19580TIP3   OH280230   0.333   1.386  15.320  0.3751 -0.3324  0.4867
19580TIP3    H180231   0.303   1.295  15.315  0.3002 -0.3285  0.8315
19580TIP3    H280232   0.252   1.438  15.312  0.4649 -0.2886 -0.1159
19581TIP3   OH280233   2.243   3.857   5.916  0.2955 -0.1806  0.0690
19581TIP3    H180234   2.222   3.767   5.894  1.9333  0.0491 -2.6396
19581TIP3    H280235   2.173   3.909   5.875  0.2884 -0.1277  0.1482
19582TIP3   OH280236   0.099   5.791   3.541 -0.0070 -0.9639  0.0280
19582TIP3    H180237   0.141   5.858   3.487 -0.5877  1.0681  2.0152
19582TIP3    H280238   0.042   5.744   3.480 -0.0766  0.7632 -1.2993
19583TIP3   OH280239   4.790   2.271  14.615 -0.6674 -0.7384 -0.2068
19583TIP3    H180240   4.697   2.248  14.612 -0.5776 -0.9823 -1.1726
19583TIP3    H280241   4.795   2.340  14.682 -1.5006 -0.8919  0.0221
19584TIP3   OH280242   0.112   5.137   0.102 -0.0164  0.0009 -0.3863
19584TIP3    H180243   0.046   5.181   0.049 -0.3735 -0.4988 -0.3522
19584TIP3    H280244   0.066   5.066   0.145  0.2114  0.5720  0.8207
19585TIP3   OH280245   5.781   5.825  12.281 -0.0538  0.4038  0.0247
19585TIP3    H180246   5.791   5.828  12.376  0.3037  1.0274 -0.0350
19585TIP3    H280247   5.687   5.839  12.266  0.1182  1.7508  0.2124
19586TIP3   OH280248   5.260   4.656  14.153 -0.2940  0.7114 -0.2148
19586TIP3    H180249   5.244   4.726  14.090 -1.5105  0.7406  0.1206
19586TIP3    H280250   5.301   4.587  14.102  2.1794  2.1712 -0.2838
19587TIP3   OH280251   0.978   3.956  14.941  0.4665  0.7301 -0.5284
19587TIP3    H180252   0.926   4.032  14.966  1.7483  1.2780  0.5490
19587TIP3    H280253   1.044   3.991  14.882 -0.2562  0.0702 -1.7355
19588TIP3   OH280254   4.423   3.855  14.561  0.5037  0.1665  0.6167
19588TIP3    H180255   4.357   3.787  14.573  1.4355 -1.3157 -2.2209
19588TIP3    H280256   4.505   3.814  14.587  0.8661  0.6756  0.2898
19589TIP3   OH280257   2.967   1.755  12.170  0.1467 -0.6169  0.1638
19589TIP3    H180258   2.950   1.825  12.233 -1.1360 -1.1343  0.4221
19589TIP3    H280259   2.892   1.696  12.180  0.1771 -0.9593 -1.4954
19590TIP3   OH280260   6.116   5.733  11.482  0.0034  0.2996 -0.3756
19590TIP3    H180261   6.124   5.777  11.566 -1.0967 -0.1088 -0.0504
19590TIP3    H280262   6.121   5.804  11.418  1.1857  0.5760  0.0042
19591TIP3   OH280263   2.920   5.617   2.265  0.1851 -0.2228  0.2877
19591TIP3    H180264   2.968   5.536   2.283  2.9495  1.6669  1.6588
19591TIP3    H280265   2.844   5.613   2.323  0.7673 -1.4430  0.9756
19592TIP3   OH280266   6.518   2.772   0.520  0.1866 -0.3038  0.5208
19592TIP3    H180267   6.481   2.694   0.560  0.3043 -0.2445  0.7465
19592TIP3    H280268   6.567   2.814   0.590  0.1957 -0.0727  0.3772
19593TIP3   OH280269   5.953   4.163  14.404 -0.5907  0.1682  0.1227
19593TIP3    H180270   5.945   4.130  14.314 -1.5087  0.2113  0.1828
19593TIP3    H280271   5.948   4.258  14.396  0.1598  0.2174  0.1441
19594TIP3   OH280272   1.219   6.259   6.186 -0.1887 -0.1556  0.5049
19594TIP3    H180273   1.189   6.348   6.205  0.4036  0.2310 -0.3382
19594TIP3    H280274   1.227   6.255   6.091 -0.6601 -1.2633  0.5051
19595TIP3   OH280275   6.699   5.413  14.230  0.4159 -0.0135 -0.1982
19595TIP3    H180276   6.743   5.329  14.237  2.0812  0.6184 -2.4376
19595TIP3    H280277   6.713   5.455  14.315  2.3745 -0.6996 -0.1497
19596TIP3   OH280278   0.230   1.429  11.908 -0.8102  0.3486  0.3303
19596TIP3    H180279   0.135   1.417  11.902 -0.9844  0.8896  1.9831
19596TIP3    H280280   0.244   1.473  11.992  0.8844  0.5216 -0.0266
19597TIP3   OH280281   2.231   2.941   3.499  0.2859 -0.5700  0.0016
19597TIP3    H180282   2.154   2.913   3.548 -0.1936  1.7003  0.6238
19597TIP3    H280283   2.284   2.987   3.564  0.0096  1.8164 -1.4155
19598TIP3   OH280284   1.669   1.124   2.060  0.1407 -0.1145 -0.0279
19598TIP3    H180285   1.633   1.147   1.974 -0.2779 -0.0546  0.1610
19598TIP3    H280286   1.614   1.171   2.123  0.4959 -0.0949  0.2708
19599TIP3   OH280287   2.155   6.036   5.394  0.0272  0.0623  0.1165
19599TIP3    H180288   2.149   6.060   5.302 -0.3592  0.2485  0.1924
19599TIP3    H280289   2.241   6.068   5.421 -0.4377  1.2822  0.1906
19600TIP3   OH280290   4.304   4.072  12.857 -0.3073 -0.0017 -0.1678
19600TIP3    H180291   4.319   4.144  12.795  0.8504 -0.7486 -0.7691
19600TIP3    H280292   4.377   4.012  12.842 -0.8287 -0.9151  0.8986
19601TIP3   OH280293   5.600   2.725   4.777  0.1552  0.3156  0.3794
19601TIP3    H180294   5.655   2.674   4.837  1.5988  1.6167  0.1701
19601TIP3    H280295   5.635   2.706   4.690 -1.8090 -1.4051 -0.1019
19602TIP3   OH280296   0.892   1.377   3.797 -0.1310 -0.3864  0.1238
19602TIP3    H180297   0.842   1.297   3.810  0.5359 -0.7494  0.4564
19602TIP3    H280298   0.978   1.358   3.832  0.8461 -0.4012 -2.1878
19603TIP3   OH280299   0.017   4.025  12.349 -0.3399  0.0133  0.4537
19603TIP3    H180300  -0.061   3.975  12.375 -0.8565  0.6657  0.1923
19603TIP3    H280301   0.081   4.007  12.417  0.0582 -2.3442 -0.5133
19604TIP3   OH280302   6.602   4.138   3.945 -0.3150 -0.5731 -1.0389
19604TIP3    H180303   6.642   4.123   3.859 -1.0906 -0.6433 -1.3863
19604TIP3    H280304   6.665   4.101   4.006 -0.6257 -2.2279 -1.6872
19605TIP3   OH280305   0.585   5.203  17.288  0.1224  0.3480  0.3503
19605TIP3    H180306   0.582   5.298  17.303 -1.4448  0.2812  0.4758
19605TIP3    H280307   0.641   5.193  17.211  1.9150  1.2242  1.4876
19606TIP3   OH280308   2.896   0.700  14.414  0.0715  0.8982  0.6179
19606TIP3    H180309   2.801   0.701  14.411  0.1217  0.2684 -1.5743
19606TIP3    H280310   2.922   0.786  14.380  0.3148  0.1296 -1.2009
19607TIP3   OH280311   5.365   4.129  12.291  0.2065  0.1508 -1.1041
19607TIP3    H180312   5.373   4.191  12.219  1.1943  0.5705 -0.6482
19607TIP3    H280313   5.353   4.184  12.368 -0.3119 -0.2786 -0.8754
19608TIP3   OH280314   6.696   0.540   5.008 -0.1744  0.4780  0.6142
19608TIP3    H180315   6.775   0.497   5.038 -0.6438  0.3589  1.6865
19608TIP3    H280316   6.694   0.623   5.055 -1.5830 -0.2708  1.9184
19609TIP3   OH280317   1.586   6.121   0.882 -0.1737  0.0764 -0.4065
19609TIP3    H180318   1.661   6.122   0.941 -0.5454 -0.0630  0.0727
19609TIP3    H280319   1.569   6.028   0.867  0.6141  0.1134 -1.6332
19610TIP3   OH280320   1.121   4.414  15.535 -0.2653 -0.4608  0.6206
19610TIP3    H180321   1.109   4.330  15.490  1.2383 -2.0968  3.1140
19610TIP3    H280322   1.072   4.477  15.482  0.1681 -2.5398 -2.4061
19611TIP3   OH280323   2.346   6.726   5.815 -0.9089 -0.2466  0.4321
19611TIP3    H180324   2.274   6.741   5.754  0.5963  2.3035 -0.8058
19611TIP3    H280325   2.397   6.656   5.774 -1.6507 -0.7473  0.3592
19612TIP3   OH280326   5.119   3.314   1.425  0.0332 -0.3999  0.1560
19612TIP3    H180327   5.133   3.223   1.398  0.5823 -0.2664 -0.0101
19612TIP3    H280328   5.200   3.359   1.403 -0.4661  0.2785 -0.3413
19613TIP3   OH280329   1.616   0.777  17.290 -0.3641 -0.0530 -0.6676
19613TIP3    H180330   1.591   0.858  17.335  1.3640  0.8371 -1.2903
19613TIP3    H280331   1.627   0.803  17.198 -1.5082 -1.3631 -1.1950
19614TIP3   OH280332   3.451   0.932   3.023  0.3932 -0.0707  0.0719
19614TIP3    H180333   3.534   0.925   3.071  0.4736  0.2200 -0.0205
19614TIP3    H280334   3.462   1.010   2.968 -0.4186  0.7148  1.0088
19615TIP3   OH280335   0.683   5.023  11.240  0.6612 -0.0583  0.3179
19615TIP3    H180336   0.704   4.937  11.277  0.9340  0.0617  0.4473
19615TIP3    H280337   0.718   5.020  11.151  1.0184  0.0519  0.4510
19616TIP3   OH280338   6.243   3.823  11.796  0.2593 -0.0404 -0.2166
19616TIP3    H180339   6.186   3.747  11.783  0.5453 -0.1287 -1.0088
19616TIP3    H280340   6.237   3.872  11.714  0.0092  0.8441  0.3239
19617TIP3   OH280341   2.027   2.136   2.333  0.2839 -0.5218 -0.0838
19617TIP3    H180342   2.043   2.178   2.248  3.0168 -0.2353  0.5249
19617TIP3    H280343   2.010   2.209   2.393  0.1404 -0.6103 -0.0159
19618TIP3   OH280344   5.356   1.739  11.895 -0.0826 -0.3471  0.5606
19618TIP3    H180345   5.403   1.738  11.978  1.1475  0.6831 -0.1043
19618TIP3    H280346   5.411   1.791  11.837 -1.6196  0.1502 -0.4976
19619TIP3   OH280347   3.135   5.119  12.304  0.2559  0.0285 -0.6571
19619TIP3    H180348   3.058   5.102  12.358  2.2936 -2.3134  1.6862
19619TIP3    H280349   3.101   5.152  12.221 -3.1710  0.0367  0.7010
19620TIP3   OH280350   6.087   3.846   2.610  0.4900  0.3254  0.3890
19620TIP3    H180351   6.149   3.917   2.624  0.0575  0.4055  1.8924
19620TIP3    H280352   6.140   3.776   2.572  1.6138  0.2162  2.0945
19621TIP3   OH280353   1.198   4.984   4.873 -0.6541  0.0534 -0.0042
19621TIP3    H180354   1.276   4.935   4.848 -0.6534 -0.3959  0.8633
19621TIP3    H280355   1.214   5.073   4.841  0.7783  0.2867  1.2577
19622TIP3   OH280356   0.313   4.196   0.638  0.0408  0.6576 -0.3151
19622TIP3    H180357   0.318   4.206   0.733  1.6431  0.2502 -0.3352
19622TIP3    H280358   0.399   4.161   0.614 -0.8758 -0.6167 -1.7471
19623TIP3   OH280359   3.421   0.303  13.599 -0.2531 -0.1152  0.0797
19623TIP3    H180360   3.379   0.250  13.668  0.3926  1.2892  1.5898
19623TIP3    H280361   3.348   0.340  13.550 -0.7223 -1.3946 -0.2097
19624TIP3   OH280362   2.190   6.205  14.107 -0.7785  0.2104 -0.5575
19624TIP3    H180363   2.170   6.268  14.176 -0.8095  1.2875 -1.5302
19624TIP3    H280364   2.225   6.259  14.035  1.4088 -1.1165 -0.5494
19625TIP3   OH280365   0.455   2.463  16.996  0.4045 -0.0305 -0.4625
19625TIP3    H180366   0.484   2.498  17.079  0.5680 -0.1591 -0.4665
19625TIP3    H280367   0.502   2.380  16.987 -1.1281 -1.0161  0.2771
19626TIP3   OH280368   5.779   3.497  13.184 -0.8821 -0.2398  0.5687
19626TIP3    H180369   5.786   3.544  13.268 -0.5022 -0.2571  0.5463
19626TIP3    H280370   5.813   3.558  13.120 -0.2321 -0.6110  0.5611
19627TIP3   OH280371   6.393   1.601  15.989 -0.7912  0.1339  0.0760
19627TIP3    H180372   6.346   1.576  15.910  0.1774  1.0866 -0.8232
19627TIP3    H280373   6.370   1.694  16.002  0.7506  0.5819 -0.3231
19628TIP3   OH280374   5.914   6.049   4.089 -0.1892 -0.3101 -0.0006
19628TIP3    H180375   5.853   5.991   4.134  0.7556 -1.5185 -0.2661
19628TIP3    H280376   5.867   6.077   4.010 -1.8577  1.8242  1.6709
19629TIP3   OH280377   2.638   5.276   3.913 -0.6068  0.4117 -0.0887
19629TIP3    H180378   2.569   5.227   3.958 -0.2495  0.7252  0.8129
19629TIP3    H280379   2.591   5.344   3.865 -0.8774  1.2797  1.3509
19630TIP3   OH280380   4.506   1.214  16.180 -0.2210 -0.4501 -0.0716
19630TIP3    H180381   4.504   1.191  16.087  2.2826  0.0903 -0.2780
19630TIP3    H280382   4.413   1.218  16.205 -0.8992 -1.7413 -2.2437
19631TIP3   OH280383   1.995   2.161  15.286 -0.2859  0.3714 -0.5622
19631TIP3    H180384   2.090   2.157  15.280 -0.0417 -0.6048  2.7965
19631TIP3    H280385   1.974   2.254  15.275  0.8727  0.3936 -2.9058
19632TIP3   OH280386   5.812   4.760  14.714 -0.4564  0.2765  0.3535
19632TIP3    H180387   5.860   4.839  14.690 -0.1153  0.2712  0.9998
19632TIP3    H280388   5.859   4.689  14.670 -0.8454  0.4434 -0.3394
19633TIP3   OH280389   1.495   5.827  14.993  0.3948 -0.3010  0.6933
19633TIP3    H180390   1.566   5.851  15.054 -1.0459  0.8624  1.9519
19633TIP3    H280391   1.432   5.898  15.001  0.3150  0.0417 -2.4515
19634TIP3   OH280392   6.009   1.947  13.865 -0.4120 -0.1326 -0.5817
19634TIP3    H180393   5.948   2.020  13.877 -0.7413 -0.4748 -0.1339
19634TIP3    H280394   6.073   1.978  13.801  1.9533  2.0819  2.7170
19635TIP3   OH280395   3.770   6.369   5.268 -0.0128  0.8746 -0.3583
19635TIP3    H180396   3.838   6.419   5.314  1.8213 -0.7384 -1.2062
19635TIP3    H280397   3.748   6.298   5.328 -0.0086  0.6551 -0.6164
19636TIP3   OH280398   4.609   6.805  11.469 -0.3382  0.4377 -0.1204
19636TIP3    H180399   4.689   6.752  11.478 -0.7573  0.0954  1.6087
19636TIP3    H280400   4.539   6.749  11.502 -1.4643  0.3928 -2.4472
19637TIP3   OH280401   5.307   6.653   2.525 -0.1052 -0.3225 -0.1053
19637TIP3    H180402   5.362   6.575   2.518 -1.0332 -0.9766 -0.1945
19637TIP3    H280403   5.261   6.657   2.441 -0.2019  0.2073 -0.0248
19638TIP3   OH280404   6.358   2.801  15.307  0.0790 -0.3577  0.0865
19638TIP3    H180405   6.389   2.890  15.325 -0.7164 -0.0190 -0.2404
19638TIP3    H280406   6.322   2.805  15.219 -1.7111 -0.5470  0.8048
19639TIP3   OH280407   5.273   0.224   1.152  0.7740 -0.2028 -0.5044
19639TIP3    H180408   5.189   0.266   1.174 -0.2765 -2.4405 -0.1184
19639TIP3    H280409   5.275   0.225   1.056  0.8925  0.9338 -0.5050
19640TIP3   OH280410   3.571   4.757  10.994  0.1876  0.5921 -0.1247
19640TIP3    H180411   3.659   4.724  10.976 -0.4779 -0.5108 -1.4227
19640TIP3    H280412   3.585   4.829  11.056  1.8409 -0.6482  0.9835
19641TIP3   OH280413   4.273   1.030  15.675  1.1159  0.2812  0.2864
19641TIP3    H180414   4.287   1.113  15.720  0.4084 -0.3590  1.7286
19641TIP3    H280415   4.254   0.968  15.745 -0.8068 -0.5801 -0.9446
19642TIP3   OH280416   5.186   2.475  12.162  0.4635 -0.2279 -0.3915
19642TIP3    H180417   5.119   2.473  12.230 -0.0602  1.2588 -0.8481
19642TIP3    H280418   5.257   2.528  12.199  0.0588  0.8263 -1.0824
19643TIP3   OH280419   2.251   3.986   4.995  0.3465 -0.2689 -0.2333
19643TIP3    H180420   2.251   3.983   4.899  0.3942  0.0762 -0.2463
19643TIP3    H280421   2.335   4.027   5.017 -0.5297  1.5229 -0.1200
19644TIP3   OH280422   4.921   3.211  11.252 -0.1801 -0.3670  0.1400
19644TIP3    H180423   4.948   3.130  11.208  1.3215  0.9434 -1.4358
19644TIP3    H280424   4.837   3.233  11.210  0.7773  0.3606 -1.4576
19645TIP3   OH280425   6.654   0.061   5.842  0.7284  0.1840  0.1330
19645TIP3    H180426   6.689   0.121   5.776  1.2152 -0.1382  0.0990
19645TIP3    H280427   6.698   0.086   5.924 -0.5176  1.1514  0.5120
19646TIP3   OH280428   6.198   5.093   6.498 -0.0390 -0.0355 -0.2725
19646TIP3    H180429   6.245   5.134   6.571  1.3620  1.2381 -1.8661
19646TIP3    H280430   6.111   5.074   6.534  1.4311 -1.7706  2.4934
19647TIP3   OH280431   2.766   0.886  13.940 -0.5600 -0.2122 -0.0196
19647TIP3    H180432   2.772   0.973  13.978  0.9538  0.2333 -1.2131
19647TIP3    H280433   2.737   0.900  13.850  0.9692 -0.8018 -0.6294
19648TIP3   OH280434   0.763   6.424   3.639 -0.0011  0.2650  0.0319
19648TIP3    H180435   0.837   6.447   3.696 -2.1163  1.8209  2.2010
19648TIP3    H280436   0.696   6.391   3.699 -0.0704 -4.0802 -2.1909
19649TIP3   OH280437   2.631   5.423   5.025  0.7677  0.7464 -0.0864
19649TIP3    H180438   2.610   5.485   5.095  0.7092  0.2680  0.3213
19649TIP3    H280439   2.557   5.362   5.024  1.4261 -0.0469  0.3375
19650TIP3   OH280440   6.136   4.538   1.598 -0.0103 -0.0314 -0.0640
19650TIP3    H180441   6.051   4.550   1.641  0.4431  2.1865  0.2346
19650TIP3    H280442   6.200   4.548   1.669  0.5762 -0.1470 -0.5761
19651TIP3   OH280443   2.553   1.831  14.353  1.0427 -0.7390  0.2845
19651TIP3    H180444   2.588   1.868  14.272 -1.9745 -1.2184 -1.2931
19651TIP3    H280445   2.572   1.737  14.347  1.6806 -0.6342  0.6063
19652TIP3   OH280446   1.005   1.854  12.395  0.2396  0.4378  0.1302
19652TIP3    H180447   0.967   1.824  12.312  0.1409  1.0617 -0.0496
19652TIP3    H280448   0.932   1.893  12.442  0.6978  1.8662 -0.3201
19653TIP3   OH280449   6.323   0.346   1.373 -0.1735  0.2961 -0.0604
19653TIP3    H180450   6.401   0.384   1.332 -0.3238  1.6865  0.9127
19653TIP3    H280451   6.352   0.259   1.404  0.4761  0.0555 -1.3201
19654TIP3   OH280452   4.244   5.021   3.802  0.1040  0.5056 -0.3573
19654TIP3    H180453   4.325   4.975   3.781 -0.1380 -0.2020  0.2399
19654TIP3    H280454   4.253   5.045   3.894 -0.1454  0.8854 -0.4295
19655TIP3   OH280455   0.748   0.462   4.505 -0.0635  0.0382 -0.1489
19655TIP3    H180456   0.686   0.389   4.505  0.1914 -0.1793  0.1885
19655TIP3    H280457   0.797   0.451   4.423  1.5164 -1.4948  0.9662
19656TIP3   OH280458   2.630   0.606   0.095  0.4909  0.4334  0.6280
19656TIP3    H180459   2.614   0.686   0.145  1.3782 -0.1396  1.8523
19656TIP3    H280460   2.695   0.631   0.030 -0.0935  0.9921  0.2533
19657TIP3   OH280461   2.445   4.247  17.145  1.2116 -0.4096 -0.0676
19657TIP3    H180462   2.413   4.336  17.153  1.1782 -0.4138 -0.1575
19657TIP3    H280463   2.400   4.211  17.069 -2.1471 -1.9463  2.4807
19658TIP3   OH280464   6.092   2.292  16.176  0.3838 -0.0020  0.2394
19658TIP3    H180465   6.009   2.325  16.141  1.6839  1.0369 -1.9805
19658TIP3    H280466   6.137   2.369  16.209  0.6100 -0.5214  1.1638
19659TIP3   OH280467   2.924   4.759  17.008 -0.5840 -0.0497  0.0188
19659TIP3    H180468   2.958   4.676  16.975  0.9096  0.6747 -0.3016
19659TIP3    H280469   2.940   4.756  17.102 -1.6723 -0.6412  0.1954
19660TIP3   OH280470   6.368   6.050  12.773 -0.2057  0.0767  0.1205
19660TIP3    H180471   6.346   6.113  12.842 -0.0800 -0.4138  0.6081
19660TIP3    H280472   6.284   6.030  12.731 -0.2742  0.4141  0.0973
19661TIP3   OH280473   5.197   3.630   3.542  0.6750  0.5846 -0.3771
19661TIP3    H180474   5.182   3.549   3.592  1.7966  0.4060 -0.2958
19661TIP3    H280475   5.141   3.695   3.583 -1.5596 -0.5572 -1.5452
19662TIP3   OH280476   0.262   4.160  12.667  0.0446  0.0427  0.1676
19662TIP3    H180477   0.288   4.250  12.650  0.6254 -0.4294 -1.6439
19662TIP3    H280478   0.270   4.149  12.761  0.7482  1.6434  0.2972
19663TIP3   OH280479   3.269   0.039  14.514 -0.0943  0.1341  0.4342
19663TIP3    H180480   3.271  -0.038  14.458 -1.7204 -0.4072  1.0869
19663TIP3    H280481   3.350   0.035  14.564  0.9541  0.1648 -1.2505
19664TIP3   OH280482   1.942   5.100  15.524  0.1655 -0.5648  0.5687
19664TIP3    H180483   2.002   5.174  15.537 -0.6066  0.3032 -0.6895
19664TIP3    H280484   1.931   5.063  15.611 -0.5191  1.6764  1.4871
19665TIP3   OH280485   5.833   5.677   1.809 -0.3007  0.1318  0.4716
19665TIP3    H180486   5.809   5.594   1.850  2.2979 -0.7465  0.3305
19665TIP3    H280487   5.895   5.717   1.871 -1.0155  1.6528  0.2192
19666TIP3   OH280488   6.644   3.131   2.979 -0.5889  0.4418 -0.1704
19666TIP3    H180489   6.611   3.049   2.944 -0.4874  0.7763 -1.0637
19666TIP3    H280490   6.740   3.122   2.974 -0.5836  0.7959 -0.6969
19667TIP3   OH280491   6.614   1.714   1.673 -0.4160  0.0143 -0.4897
19667TIP3    H180492   6.582   1.638   1.722  0.7809 -0.1039  0.1419
19667TIP3    H280493   6.552   1.784   1.693 -0.4159 -0.2632  0.5279
19668TIP3   OH280494   0.350   3.802  14.853 -0.3494  0.2049  0.0359
19668TIP3    H180495   0.292   3.830  14.924 -0.9511  0.2756 -0.4804
19668TIP3    H280496   0.306   3.726  14.815 -0.9928  1.3001 -1.4828
19669TIP3   OH280497   2.373   3.309   4.188  0.4742 -0.1068 -0.0014
19669TIP3    H180498   2.381   3.244   4.118  2.5041 -1.1669  1.1641
19669TIP3    H280499   2.461   3.346   4.197  0.3708 -0.3644  2.3504
19670TIP3   OH280500   1.376   3.184   4.817  0.2366 -0.1017  0.7991
19670TIP3    H180501   1.469   3.190   4.797  0.1355 -1.1727 -0.0463
19670TIP3    H280502   1.349   3.100   4.779 -1.2550  0.5803  0.3297
19671TIP3   OH280503   6.692   0.254  13.459 -0.2190  0.9176  0.6091
19671TIP3    H180504   6.774   0.302  13.471  0.1423  0.2042  0.9968
19671TIP3    H280505   6.685   0.242  13.364  0.1114  0.9969  0.5729
19672TIP3   OH280506   4.412   1.826  17.079 -0.3796  0.3573  0.1482
19672TIP3    H180507   4.339   1.775  17.115  0.1194  0.3416  1.1513
19672TIP3    H280508   4.464   1.762  17.031 -0.7001  0.2569 -0.0739
19673TIP3   OH280509   1.239   4.146  14.326  0.4888 -0.3047  0.1392
19673TIP3    H180510   1.161   4.202  14.318  1.7094  1.4899  0.5899
19673TIP3    H280511   1.231   4.083  14.254 -0.7833  0.6016 -0.5257
19674TIP3   OH280512   3.567   2.342   6.208  0.3245  0.2026  0.1470
19674TIP3    H180513   3.499   2.316   6.146  0.4394  1.5685 -0.5863
19674TIP3    H280514   3.568   2.273   6.274 -3.3480  1.2463  1.4234
19675TIP3   OH280515   3.106   3.263   4.330 -0.6089  0.1171  1.0408
19675TIP3    H180516   3.038   3.201   4.303  0.3720 -0.6044  0.2219
19675TIP3    H280517   3.178   3.208   4.361 -1.0260  0.8961  3.5269
19676TIP3   OH280518   4.531   3.690  12.328  0.0887 -0.4851 -0.4801
19676TIP3    H180519   4.573   3.702  12.243  1.4046  0.7281  0.3317
19676TIP3    H280520   4.439   3.670  12.307 -0.3185  2.7609 -2.1323
19677TIP3   OH280521   0.923   5.435   5.152  0.4814  0.3465  0.1714
19677TIP3    H180522   0.930   5.389   5.235  0.2039  0.6197  0.3466
19677TIP3    H280523   0.881   5.518   5.174 -0.4729  0.0211 -0.3874
19678TIP3   OH280524   5.953   1.969  13.213 -0.2037 -0.4741 -0.1707
19678TIP3    H180525   5.931   1.934  13.128  0.7900  0.0386 -0.6600
19678TIP3    H280526   6.049   1.967  13.216 -0.2270 -0.5151  0.9361
19679TIP3   OH280527   2.222   4.063   4.742 -0.6459  0.4090 -0.2792
19679TIP3    H180528   2.281   4.138   4.735 -2.3752  1.6839 -1.3652
19679TIP3    H280529   2.231   4.017   4.659  1.3045 -1.3165  0.8199
19680TIP3   OH280530   1.357   5.605   1.824  0.9893 -0.5875  0.4688
19680TIP3    H180531   1.432   5.590   1.765  1.6571 -3.5705  1.9789
19680TIP3    H280532   1.390   5.584   1.911 -1.4906 -1.5872  1.2177
19681TIP3   OH280533   0.644   1.358   0.447 -0.0808 -0.1328 -0.0100
19681TIP3    H180534   0.680   1.381   0.532 -0.7906 -1.4550  0.6704
19681TIP3    H280535   0.606   1.270   0.459 -1.1929  0.1230 -1.3743
19682TIP3   OH280536   0.332   3.523  16.364 -0.2266  0.5985 -0.4106
19682TIP3    H180537   0.340   3.494  16.273 -2.1270  1.2224 -0.7924
19682TIP3    H280538   0.417   3.501  16.403  0.7715  0.7266 -2.4336
19683TIP3   OH280539   2.421   6.491   0.426 -0.3361 -0.0697 -0.2842
19683TIP3    H180540   2.477   6.470   0.351  0.1361 -0.4375  0.1680
19683TIP3    H280541   2.481   6.501   0.499 -0.9658 -1.7539  0.4884
19684TIP3   OH280542   4.497   1.844   4.191  0.0845 -0.4473 -0.5750
19684TIP3    H180543   4.568   1.783   4.212 -0.1164 -1.5892 -3.0346
19684TIP3    H280544   4.423   1.787   4.171 -1.2622  0.7303  0.9368
19685TIP3   OH280545   6.385   3.981   3.970 -0.1236  0.4029  0.9616
19685TIP3    H180546   6.465   4.033   3.972  0.9523 -1.1564 -0.5505
19685TIP3    H280547   6.360   3.973   4.062  0.5853  2.1777  1.3361
19686TIP3   OH280548   3.237   5.116   2.754 -0.4360  0.1503  0.2015
19686TIP3    H180549   3.329   5.112   2.780 -0.2951  0.0195 -0.3033
19686TIP3    H280550   3.213   5.026   2.733 -0.0304  0.4740 -1.8146
19687TIP3   OH280551   1.420   6.207  16.647  0.1148 -0.4374 -0.3188
19687TIP3    H180552   1.451   6.123  16.683 -1.2025 -0.6648  0.3472
19687TIP3    H280553   1.492   6.238  16.592  1.6371 -0.7964  1.3818
19688TIP3   OH280554   3.754   3.219  14.920 -0.6411  0.0895  0.2456
19688TIP3    H180555   3.721   3.290  14.864 -3.5958 -1.3674  0.0811
19688TIP3    H280556   3.803   3.163  14.859  0.9817  1.4672  0.2193
19689TIP3   OH280557   0.329   6.386  16.896 -0.0221  0.0207  0.4796
19689TIP3    H180558   0.326   6.383  16.801  1.5501  1.5303  0.3449
19689TIP3    H280559   0.399   6.325  16.920  1.7137  1.9063  0.4299
19690TIP3   OH280560   5.363   4.866  13.279 -0.0145  0.3872  0.1478
19690TIP3    H180561   5.322   4.843  13.362  1.9367 -1.5530  0.6059
19690TIP3    H280562   5.457   4.858  13.295  0.3886 -0.1901 -2.2816
19691TIP3   OH280563   3.576   2.754  14.466  0.3539  0.3125 -0.3038
19691TIP3    H180564   3.541   2.836  14.430 -2.7005 -0.7055  0.2342
19691TIP3    H280565   3.633   2.720  14.397  0.1911  1.9657 -1.2857
19692TIP3   OH280566   5.064   0.958   1.421 -1.3391  0.4128  0.5275
19692TIP3    H180567   4.986   0.909   1.450 -1.7464  0.4606 -0.4752
19692TIP3    H280568   5.031   1.018   1.355 -0.3891  0.2009 -0.1471
19693TIP3   OH280569   0.500   1.626   6.155 -0.0855 -0.4443 -0.1507
19693TIP3    H180570   0.565   1.655   6.091  0.4264  1.4380  1.1728
19693TIP3    H280571   0.545   1.560   6.208  0.7848  0.8796  0.7879
19694TIP3   OH280572   1.177   5.815   4.613 -0.6818 -0.2594 -0.0488
19694TIP3    H180573   1.082   5.819   4.617 -0.7014  2.7662 -2.0559
19694TIP3    H280574   1.207   5.868   4.688 -0.6752  2.1570 -1.6852
19695TIP3   OH280575   5.640   2.130   2.944  0.3721  0.6367  0.6425
19695TIP3    H180576   5.707   2.181   2.988  3.2191 -1.0930 -1.5276
19695TIP3    H280577   5.674   2.040   2.943 -1.6266 -0.1622 -1.1007
19696TIP3   OH280578   2.011   6.019  14.024  0.1097 -0.3699 -0.0935
19696TIP3    H180579   2.065   6.089  14.063 -2.2402  1.5822 -0.1982
19696TIP3    H280580   2.035   6.020  13.931  0.8898 -0.4628  0.1013
19697TIP3   OH280581   0.970   3.624   0.847  0.0249  0.0921  0.0746
19697TIP3    H180582   0.914   3.674   0.907  2.0970  2.8105 -0.1781
19697TIP3    H280583   1.057   3.628   0.886  0.9842 -0.0099 -1.9923
19698TIP3   OH280584   0.083   4.039   0.643 -0.0024 -0.3019  0.0040
19698TIP3    H180585   0.162   4.083   0.612  0.8400 -0.5792  1.6731
19698TIP3    H280586   0.116   3.963   0.691 -1.3405 -1.1393 -0.3788
19699TIP3   OH280587   1.940   5.454  13.651  0.0276 -0.0483  0.1698
19699TIP3    H180588   2.005   5.397  13.692  0.1307  0.0813  0.1869
19699TIP3    H280589   1.933   5.529  13.712  1.6946  1.1507 -1.0463
19700TIP3   OH280590   2.088   0.805   2.978 -0.5128  0.8139  0.2243
19700TIP3    H180591   2.067   0.751   3.054 -1.0855  0.5142 -0.1449
19700TIP3    H280592   2.024   0.876   2.981 -0.6628  0.6922 -0.0907
19701TIP3   OH280593   3.546   4.452  15.506 -0.1416 -0.3807 -0.2184
19701TIP3    H180594   3.603   4.398  15.451 -0.5791 -1.0141 -0.0556
19701TIP3    H280595   3.573   4.542  15.488  0.6192 -0.6562 -0.4611
19702TIP3   OH280596   4.227   4.013  13.920 -0.5398 -0.1590 -0.0188
19702TIP3    H180597   4.226   3.968  13.836 -1.6446  1.2214 -0.7619
19702TIP3    H280598   4.134   4.017  13.946 -0.3229  0.4898  0.6723
19703TIP3   OH280599   0.435   0.101  15.620  0.1061 -0.2261 -0.6620
19703TIP3    H180600   0.502   0.159  15.657  2.2620 -1.7951 -1.9812
19703TIP3    H280601   0.399   0.054  15.696 -1.5270  2.5918  0.3984
19704TIP3   OH280602   6.473   3.172  17.093  0.2847 -0.1048 -0.2521
19704TIP3    H180603   6.407   3.185  17.161  0.7509  0.3663  0.1253
19704TIP3    H280604   6.556   3.185  17.139  0.5660  1.8614 -1.2381
19705TIP3   OH280605   0.521   1.447   1.552  0.0439 -0.0979  0.5975
19705TIP3    H180606   0.614   1.461   1.572  0.3748 -0.5248 -0.6234
19705TIP3    H280607   0.514   1.352   1.539 -1.0398 -0.3888  3.0425
19706TIP3   OH280608   2.740   6.541  14.639  0.0020 -0.1066 -0.1586
19706TIP3    H180609   2.744   6.448  14.659 -0.2918 -0.4390 -1.6312
19706TIP3    H280610   2.682   6.548  14.563 -1.7576  1.5020  1.2831
19707TIP3   OH280611   4.405   2.929   3.241 -0.1203  0.6146  0.3286
19707TIP3    H180612   4.438   2.872   3.171 -1.0530 -0.5898  0.8492
19707TIP3    H280613   4.327   2.970   3.204 -0.5417  0.0749  0.6148
19708TIP3   OH280614   1.346   1.198  11.528 -0.1422  0.3141 -0.3811
19708TIP3    H180615   1.384   1.213  11.442 -0.7857 -0.7590 -0.8558
19708TIP3    H280616   1.269   1.255  11.530 -0.8782 -0.6519 -1.0296
19709TIP3   OH280617   5.441   3.454   3.033 -0.4792 -0.5576  0.4886
19709TIP3    H180618   5.476   3.389   3.094  1.3724  0.1825  0.2469
19709TIP3    H280619   5.447   3.537   3.081 -0.2899 -0.1730 -0.2024
19710TIP3   OH280620   1.753   1.899  12.978  0.1857  0.1048 -0.1550
19710TIP3    H180621   1.809   1.937  12.910 -0.2315 -2.7571 -2.1936
19710TIP3    H280622   1.668   1.888  12.936 -0.4289 -0.5602  1.2387
19711TIP3   OH280623   0.086   3.399  11.339 -0.2155 -0.6274 -0.2372
19711TIP3    H180624   0.102   3.489  11.367  0.6297 -0.9681  0.4124
19711TIP3    H280625   0.171   3.368  11.307 -1.3320  0.0029 -4.0025
19712TIP3   OH280626   4.022   1.118  12.634  0.7686  0.4534 -0.2636
19712TIP3    H180627   4.027   1.124  12.539  1.3542 -0.8623 -0.3298
19712TIP3    H280628   4.114   1.113  12.662  0.5658 -0.5864  0.2555
19713TIP3   OH280629   6.407   4.040   0.923  0.1272  0.4779 -0.2930
19713TIP3    H180630   6.465   4.009   0.992 -0.5920 -0.3558 -0.0609
19713TIP3    H280631   6.374   4.124   0.955  0.0069  0.2215  0.2450
19714TIP3   OH280632   1.702   0.130  11.629 -0.0784  0.7141 -0.1447
19714TIP3    H180633   1.726   0.215  11.592  2.9560 -0.8971 -2.0948
19714TIP3    H280634   1.660   0.084  11.556 -2.3035  0.7239  1.0930
19715TIP3   OH280635   3.810   5.596  16.687  0.2626  0.1169 -0.0516
19715TIP3    H180636   3.851   5.657  16.749  1.7980  0.7350 -1.6328
19715TIP3    H280637   3.878   5.532  16.669 -0.8127 -1.1531  0.3326
19716TIP3   OH280638   6.392   0.032   1.579  0.9251  0.3992 -0.1117
19716TIP3    H180639   6.401  -0.030   1.652  0.2042 -0.3147 -0.6164
19716TIP3    H280640   6.425   0.115   1.613  1.5353 -0.1719  0.7032
19717TIP3   OH280641   1.353   5.466   2.737 -0.6631 -0.0557  0.1873
19717TIP3    H180642   1.305   5.384   2.745  0.1129 -0.4216  1.1901
19717TIP3    H280643   1.442   5.440   2.714 -0.4745  0.5135  0.2552
19718TIP3   OH280644   0.551   2.385  13.006  0.4889  0.0379  0.1789
19718TIP3    H180645   0.526   2.295  13.030  0.7177 -0.0567  0.0578
19718TIP3    H280646   0.645   2.390  13.025  0.3111  0.5017  0.9732
19719TIP3   OH280647   3.644   4.711  13.944  0.2164  0.4528 -0.0771
19719TIP3    H180648   3.607   4.647  13.883 -0.5288 -1.4171  2.2829
19719TIP3    H280649   3.739   4.704  13.932  0.0828  0.1118 -1.0015
19720TIP3   OH280650   3.139   1.861  16.216 -0.1895 -0.3317 -0.0983
19720TIP3    H180651   3.106   1.920  16.284  0.6973  0.8146 -0.6274
19720TIP3    H280652   3.076   1.869  16.144  0.7305  1.1939 -0.7741
19721TIP3   OH280653   2.064   5.451   2.685 -0.4179 -0.1437 -0.7140
19721TIP3    H180654   2.107   5.527   2.725  1.6084 -1.2784 -0.6976
19721TIP3    H280655   1.996   5.489   2.629  1.8426  1.7702 -2.2179
19722TIP3   OH280656   6.153   1.046   0.956 -0.4546 -0.1885 -0.2474
19722TIP3    H180657   6.147   1.141   0.941  0.0311 -0.2743 -1.0020
19722TIP3    H280658   6.240   1.034   0.994 -0.0805 -0.4575 -1.1721
19723TIP3   OH280659   5.900   4.609   5.848 -0.4719 -0.1546 -0.4749
19723TIP3    H180660   5.903   4.610   5.943 -1.5171 -0.9607 -0.4259
19723TIP3    H280661   5.981   4.565   5.822  0.9636  2.1720 -0.0516
19724TIP3   OH280662   6.090   3.589  15.051  0.2899  0.0905  0.4294
19724TIP3    H180663   6.148   3.663  15.068 -1.7980  1.3509  2.1588
19724TIP3    H280664   6.114   3.524  15.118  0.3256  0.2195  0.5399
19725TIP3   OH280665   3.248   6.448  15.734  0.0034  0.0024  0.2854
19725TIP3    H180666   3.164   6.474  15.772  0.0909 -0.0456  0.5202
19725TIP3    H280667   3.242   6.352  15.727 -0.2693  0.0725 -0.4511
19726TIP3   OH280668   5.152   3.040  16.877  0.3709  0.0127  0.0600
19726TIP3    H180669   5.092   3.085  16.937  1.8609 -0.0539  1.6248
19726TIP3    H280670   5.239   3.062  16.909  1.1569 -2.7648 -0.0430
19727TIP3   OH280671   3.418   1.183   3.641 -0.6409  0.0880 -0.7864
19727TIP3    H180672   3.352   1.115   3.653 -0.7879  0.1868 -1.0371
19727TIP3    H280673   3.480   1.146   3.578 -0.1088 -0.2582 -0.0566
19728TIP3   OH280674   6.643   2.842   4.610  0.8467 -0.1516 -0.3955
19728TIP3    H180675   6.660   2.923   4.658  2.7766 -1.0401  0.4594
19728TIP3    H280676   6.559   2.811   4.644  0.0396  1.4864 -0.7871
19729TIP3   OH280677   1.555   1.481   0.592  0.5752  0.5536 -0.4490
19729TIP3    H180678   1.491   1.415   0.621 -0.1100  1.8684  1.0773
19729TIP3    H280679   1.581   1.451   0.505 -1.7149 -0.3339 -0.8807
19730TIP3   OH280680   3.292   1.820   5.857  0.5850 -0.3152 -0.0986
19730TIP3    H180681   3.286   1.846   5.949 -0.0943  1.4531 -0.6314
19730TIP3    H280682   3.270   1.899   5.808 -1.7203 -1.9232 -1.7601
19731TIP3   OH280683   6.353   6.734   6.383  0.3774 -0.4557  0.6415
19731TIP3    H180684   6.297   6.662   6.414  1.3621 -0.8905  1.4563
19731TIP3    H280685   6.417   6.691   6.326  0.2676 -0.0577  0.2214
19732TIP3   OH280686   4.254   4.281  14.686  0.0104 -0.8486 -0.3844
19732TIP3    H180687   4.277   4.285  14.779  2.3266  2.5826 -1.0258
19732TIP3    H280688   4.179   4.340  14.678  0.1292 -0.7496 -0.7598
19733TIP3   OH280689   6.669   2.861  14.076  0.8116  0.5730  0.6012
19733TIP3    H180690   6.671   2.827  13.986  1.4076 -2.1082  1.5848
19733TIP3    H280691   6.576   2.870  14.096  0.6619  0.6014 -0.0860
19734TIP3   OH280692   0.507   5.935   3.654  0.1300  0.6101 -0.8804
19734TIP3    H180693   0.418   5.961   3.675  0.7646  1.9000  0.2934
19734TIP3    H280694   0.501   5.841   3.637 -1.5239  0.7777 -1.2609
19735TIP3   OH280695   2.702   2.884   4.362 -0.7090 -0.0831 -0.0678
19735TIP3    H180696   2.636   2.952   4.347  0.4656  1.1451  0.2114
19735TIP3    H280697   2.721   2.849   4.275 -0.3923  0.8481 -0.3818
19736TIP3   OH280698   6.063   4.151  16.717  0.1191 -0.0924 -0.0262
19736TIP3    H180699   6.129   4.096  16.759  0.9407  0.8139 -0.1355
19736TIP3    H280700   6.056   4.116  16.628  2.2591  1.3610 -0.8057
19737TIP3   OH280701   4.608   4.328  15.721 -0.1090 -0.2036 -0.2730
19737TIP3    H180702   4.655   4.317  15.804  1.7105 -1.1170 -1.3992
19737TIP3    H280703   4.544   4.257  15.720 -0.5434  0.1690  0.6136
19738TIP3   OH280704   0.545   6.286   5.514  0.0828  0.0518 -0.5081
19738TIP3    H180705   0.515   6.238   5.437 -1.5476  2.5875 -1.5171
19738TIP3    H280706   0.608   6.350   5.480  1.3075 -0.5171  0.6358
19739TIP3   OH280707   3.503   0.170  12.698  0.5052 -0.0170 -0.0291
19739TIP3    H180708   3.586   0.124  12.710  0.3673 -0.2387  0.0926
19739TIP3    H280709   3.502   0.194  12.606  1.2417  1.0427  0.2310
19740TIP3   OH280710   5.711   5.637  10.877  0.0844 -0.4394 -0.0368
19740TIP3    H180711   5.705   5.626  10.972 -0.5449 -0.8417 -0.1216
19740TIP3    H280712   5.640   5.698  10.855 -0.4098 -1.1293 -0.3742
19741TIP3   OH280713   5.845   2.211   1.192 -0.8110 -0.0931  0.3137
19741TIP3    H180714   5.925   2.164   1.170 -0.1588  0.9396  0.4237
19741TIP3    H280715   5.875   2.299   1.217 -1.8081 -0.2284  2.0917
19742TIP3   OH280716   0.425   6.431  13.797  0.3364  0.1684 -0.0513
19742TIP3    H180717   0.412   6.493  13.725  1.2600  1.3271  0.7436
19742TIP3    H280718   0.481   6.363  13.760  1.8294  1.3978 -0.1134
19743TIP3   OH280719   0.544   3.220  15.450 -1.4906  0.0703 -0.3092
19743TIP3    H180720   0.619   3.170  15.483 -0.7890  0.4669 -1.2472
19743TIP3    H280721   0.514   3.171  15.374 -0.7202  1.1031 -1.3099
19744TIP3   OH280722   0.912   1.321   4.744 -0.2413  0.0435  0.1871
19744TIP3    H180723   0.906   1.344   4.651  0.0911 -1.3144 -0.1909
19744TIP3    H280724   1.005   1.302   4.757 -0.3238  0.0318  0.7549
19745TIP3   OH280725   0.598   1.136  13.937 -0.1680  0.1756 -0.8821
19745TIP3    H180726   0.536   1.198  13.900 -1.3765 -0.2278  0.4456
19745TIP3    H280727   0.637   1.093  13.861  0.3582  2.2078 -1.8048
19746TIP3   OH280728   4.695   0.908  10.685  0.0860 -0.0271 -0.1641
19746TIP3    H180729   4.687   0.951  10.600  2.5442 -1.0029 -0.9192
19746TIP3    H280730   4.707   0.979  10.747 -3.0647  0.7985 -0.3834
19747TIP3   OH280731   5.237   4.060  15.819 -0.4124  0.0218 -0.6288
19747TIP3    H180732   5.329   4.085  15.828 -0.2781 -0.4994 -0.5012
19747TIP3    H280733   5.224   4.052  15.724 -1.2535  3.4189 -0.8416
19748TIP3   OH280734   2.878   4.772   2.264 -0.0857  0.5666 -0.4222
19748TIP3    H180735   2.902   4.770   2.357  0.1306  2.1124 -0.4384
19748TIP3    H280736   2.818   4.846   2.257 -1.0122 -0.2519 -1.3155
19749TIP3   OH280737   3.645   5.430   3.596  0.2592 -0.5162 -0.3949
19749TIP3    H180738   3.634   5.353   3.540  0.2497 -0.8121  0.0158
19749TIP3    H280739   3.556   5.453   3.623  0.1233  0.4870 -1.6571
19750TIP3   OH280740   1.726   1.678  17.048 -0.0276 -0.7821 -0.2952
19750TIP3    H180741   1.660   1.636  16.994 -1.8155  0.8203  0.5984
19750TIP3    H280742   1.763   1.747  16.992  0.3599 -1.1799 -0.5324
19751TIP3   OH280743   6.419   3.652  11.051 -0.1404  0.0807 -0.5993
19751TIP3    H180744   6.356   3.613  11.111 -2.2921 -0.6589 -3.2352
19751TIP3    H280745   6.389   3.742  11.039 -0.1983 -0.0154 -1.1885
19752TIP3   OH280746   5.641   3.032   2.660 -0.6781  0.1958 -0.6946
19752TIP3    H180747   5.660   3.125   2.674  1.0250 -0.2647  0.2497
19752TIP3    H280748   5.579   3.009   2.729  0.1002  0.2782  0.0413
19753TIP3   OH280749   1.219   4.632  12.623 -0.0512 -0.0398  0.6435
19753TIP3    H180750   1.291   4.644  12.560  0.3615 -1.9488  0.7194
19753TIP3    H280751   1.248   4.679  12.701 -0.1378  1.5364 -0.2498
19754TIP3   OH280752   5.354   1.792  13.499 -0.6677  0.7704 -0.0329
19754TIP3    H180753   5.263   1.769  13.518 -0.1780 -1.1093  0.0979
19754TIP3    H280754   5.390   1.821  13.583 -0.4655 -0.8894  0.4828
19755TIP3   OH280755   5.798   1.274  11.822 -0.9389  0.1124 -0.1269
19755TIP3    H180756   5.834   1.256  11.909  0.6198 -1.1779 -1.0063
19755TIP3    H280757   5.808   1.368  11.811 -1.0262  0.2651  1.0366
19756TIP3   OH280758   3.784   6.237  14.406  0.3585 -0.3687  0.0256
19756TIP3    H180759   3.876   6.210  14.413  0.1881 -1.1212 -0.6965
19756TIP3    H280760   3.780   6.285  14.323  0.7533  2.2903  1.4610
19757TIP3   OH280761   4.298   6.189  11.401 -0.2893  0.4803 -0.0748
19757TIP3    H180762   4.239   6.210  11.329  0.8407  1.8771 -0.6308
19757TIP3    H280763   4.338   6.273  11.424  0.6535 -0.2502  1.0283
19758TIP3   OH280764   5.320   5.528  13.273  0.0698  0.0012  0.1726
19758TIP3    H180765   5.313   5.432  13.269 -0.3263  0.0242  0.3160
19758TIP3    H280766   5.298   5.550  13.363  1.3305  0.1345  0.4504
19759TIP3   OH280767   2.185   6.333   4.937 -0.0359  0.5281 -0.0005
19759TIP3    H180768   2.121   6.280   4.984  0.5500 -1.3466 -1.2689
19759TIP3    H280769   2.137   6.413   4.914 -1.8340 -0.7012 -0.6400
19760TIP3   OH280770   6.693   4.515  16.374  0.4205 -0.1984  0.0701
19760TIP3    H180771   6.642   4.463  16.437  2.1483 -0.3255  1.3768
19760TIP3    H280772   6.627   4.565  16.326 -0.9233 -0.1246  1.9481
19761TIP3   OH280773   2.861   2.374  14.398  0.1135  0.1039  0.1616
19761TIP3    H180774   2.815   2.363  14.481 -1.0656 -2.6456 -0.8267
19761TIP3    H280775   2.953   2.357  14.419 -0.3174 -1.5853  0.7080
19762TIP3   OH280776   5.199   2.462  13.967  0.3640  0.2488  0.2858
19762TIP3    H180777   5.128   2.461  14.031 -0.2232 -0.5323 -0.3688
19762TIP3    H280778   5.155   2.470  13.882  1.0358 -0.5763 -0.1500
19763TIP3   OH280779   5.568   0.944   3.853  0.4416 -0.2698  0.3419
19763TIP3    H180780   5.654   0.973   3.823  1.4777 -0.9624  2.5450
19763TIP3    H280781   5.577   0.849   3.864 -1.1818 -0.6217 -1.2486
19764TIP3   OH280782   6.554   4.198  11.430 -0.3966 -0.9030 -0.6494
19764TIP3    H180783   6.552   4.148  11.512 -0.8924 -2.2889 -1.5030
19764TIP3    H280784   6.537   4.134  11.362  2.1193 -0.1448 -2.0440
19765TIP3   OH280785   6.453   6.709  13.634 -0.4237 -0.1553  0.3594
19765TIP3    H180786   6.401   6.770  13.581 -0.0455  0.3666  0.5938
19765TIP3    H280787   6.464   6.632  13.577  0.7380  0.7514 -0.6677
19766TIP3   OH280788   1.969   2.392  11.757  0.0204 -0.2770 -0.0630
19766TIP3    H180789   2.019   2.380  11.838 -0.1762 -1.5835 -0.1291
19766TIP3    H280790   1.993   2.480  11.727  1.1258 -0.3119  0.6993
19767TIP3   OH280791   0.285   3.416  16.075 -0.0907  0.6113  0.2792
19767TIP3    H180792   0.313   3.507  16.066 -0.1000  0.6827  0.9471
19767TIP3    H280793   0.229   3.401  15.999 -1.4757  1.6849  1.0620
19768TIP3   OH280794   3.629   3.341   2.307  0.8867  0.1979  0.0071
19768TIP3    H180795   3.637   3.307   2.397 -1.3209 -1.2599 -0.3017
19768TIP3    H280796   3.538   3.370   2.301  1.3764  1.5119 -1.3728
19769TIP3   OH280797   5.158   4.423   0.517  0.3780  0.0828 -0.2238
19769TIP3    H180798   5.251   4.404   0.525  0.2313 -0.9155 -0.8765
19769TIP3    H280799   5.121   4.397   0.601  0.4568 -0.9408 -0.4932
19770TIP3   OH280800   3.620   5.943  12.970  0.3262 -0.3960 -0.0636
19770TIP3    H180801   3.708   5.910  12.992 -0.2746 -0.4993  2.3464
19770TIP3    H280802   3.626   6.037  12.984 -0.7861 -0.7590  3.3656
19771TIP3   OH280803   1.765   6.500   2.250 -0.4877  0.0810 -0.3024
19771TIP3    H180804   1.758   6.556   2.327  1.5273 -0.0468 -0.0218
19771TIP3    H280805   1.789   6.560   2.179 -2.3769  0.2067 -0.8665
19772TIP3   OH280806   5.515   4.202  13.192  0.0779 -0.2418 -0.0176
19772TIP3    H180807   5.572   4.128  13.175  0.3421 -0.2538  0.9117
19772TIP3    H280808   5.470   4.180  13.274 -2.0474 -0.7195 -1.2937
19773TIP3   OH280809   4.892   5.262  15.328 -0.5561  0.7413 -0.2139
19773TIP3    H180810   4.927   5.174  15.322 -0.4523  0.7355  0.3727
19773TIP3    H280811   4.936   5.311  15.259 -1.6603 -0.0083 -1.4669
19774TIP3   OH280812   2.632   6.230  14.851 -0.0037 -0.7635  0.1727
19774TIP3    H180813   2.640   6.229  14.756 -2.5028 -1.7295 -0.0709
19774TIP3    H280814   2.635   6.138  14.877  0.1641 -0.5339  0.9800
19775TIP3   OH280815   1.815   6.316  11.974 -0.5255  0.5618 -0.2235
19775TIP3    H180816   1.772   6.235  11.947 -2.7191  0.7369  2.5565
19775TIP3    H280817   1.769   6.385  11.926  0.0832  0.3261 -1.1514
19776TIP3   OH280818   5.574   0.348   0.775 -0.1081 -0.0644  0.1437
19776TIP3    H180819   5.550   0.261   0.741  0.1575  0.5102 -1.5453
19776TIP3    H280820   5.636   0.382   0.712 -1.4828  2.0659 -0.0963
19777TIP3   OH280821   5.620   3.464   6.317 -0.3692  0.4798  0.1792
19777TIP3    H180822   5.540   3.440   6.365  0.2150 -1.4764  0.2101
19777TIP3    H280823   5.608   3.426   6.230  0.0368  1.1687 -0.1823
19778TIP3   OH280824   1.728   0.253  16.486 -0.3044  0.0254 -0.0592
19778TIP3    H180825   1.768   0.334  16.455 -1.6230  0.0259 -1.8226
19778TIP3    H280826   1.706   0.271  16.578  0.5329  1.2304 -0.0848
19779TIP3   OH280827   4.928   5.293  14.153  0.1597 -0.4126  0.2298
19779TIP3    H180828   4.912   5.249  14.237  0.5507 -0.5964  0.2077
19779TIP3    H280829   5.006   5.251  14.118 -1.9769 -2.8214 -1.9142
19780TIP3   OH280830   3.418   4.068  11.781 -0.0775 -0.4981  0.4348
19780TIP3    H180831   3.367   4.080  11.861  0.4602 -0.6911  0.8077
19780TIP3    H280832   3.370   4.117  11.714 -0.1536  0.2390  1.0269
19781TIP3   OH280833   1.653   1.632  11.787 -0.2993 -0.6737 -0.1914
19781TIP3    H180834   1.590   1.565  11.762 -1.4099  0.7426 -1.2480
19781TIP3    H280835   1.702   1.592  11.859 -1.7045 -2.1778 -0.0269
19782TIP3   OH280836   6.167   4.510  11.448 -0.1524  0.0411  0.3245
19782TIP3    H180837   6.073   4.527  11.445 -0.3595 -0.9727  0.9278
19782TIP3    H280838   6.176   4.432  11.503  0.9875 -0.2311 -0.2257
19783TIP3   OH280839   3.057   6.486   4.227  0.5204 -0.1384  0.0818
19783TIP3    H180840   3.070   6.576   4.196 -0.1662 -0.2257 -0.4800
19783TIP3    H280841   3.112   6.432   4.169 -0.1536 -0.2225 -0.4763
19784TIP3   OH280842   0.642   4.033   6.212 -0.0590 -0.1774  0.1913
19784TIP3    H180843   0.682   3.947   6.200  2.5936  0.9887  0.3168
19784TIP3    H280844   0.597   4.026   6.296 -1.4684 -1.9941 -0.6654
19785TIP3   OH280845   6.791   0.563   1.937  0.0830  0.0801  0.0821
19785TIP3    H180846   6.873   0.535   1.896 -0.7195  0.0042 -1.5256
19785TIP3    H280847   6.766   0.642   1.889 -0.6335  0.2711  0.7519
19786TIP3   OH280848   6.540   6.168   3.839 -0.3831 -0.4190  0.2660
19786TIP3    H180849   6.547   6.171   3.744  0.9527 -4.2405  0.1887
19786TIP3    H280850   6.448   6.191   3.857 -0.9177 -0.6904 -1.9658
19787TIP3   OH280851   4.220   3.939  12.359 -0.2636 -0.1182  0.1662
19787TIP3    H180852   4.157   3.884  12.406  2.2817 -2.8186  0.5378
19787TIP3    H280853   4.300   3.933  12.410  1.0865  1.0793 -1.7442
19788TIP3   OH280854   1.308   6.050   2.867  0.1184 -0.2687 -0.3882
19788TIP3    H180855   1.228   6.020   2.822  0.5790 -0.5579 -1.0206
19788TIP3    H280856   1.338   5.973   2.915  1.0289 -0.6937 -1.6186
19789TIP3   OH280857   0.479   5.944  16.265 -0.1742 -0.0998 -0.1007
19789TIP3    H180858   0.426   5.990  16.331 -0.8933 -1.9409  0.6547
19789TIP3    H280859   0.426   5.868  16.240  1.1108 -0.7057 -1.0706
19790TIP3   OH280860   0.861   3.503   6.804 -0.0725 -0.6626 -0.3474
19790TIP3    H180861   0.864   3.512   6.709 -0.0312 -1.8306 -0.4648
19790TIP3    H280862   0.910   3.423   6.822  0.1178 -0.3232  0.6804
19791TIP3   OH280863   1.310   4.233   5.455  0.3186 -0.7693 -0.0089
19791TIP3    H180864   1.339   4.166   5.516  0.8033 -1.3557 -0.8647
19791TIP3    H280865   1.378   4.235   5.387  0.4874  0.8487  0.1993
19792TIP3   OH280866   3.795   1.136   4.792  0.8096  0.0649 -0.0412
19792TIP3    H180867   3.840   1.180   4.864  0.6907  0.2376 -0.0720
19792TIP3    H280868   3.849   1.060   4.773  0.1814 -0.6790  1.0685
19793TIP3   OH280869   0.953   2.440   0.030 -0.3096 -0.0553  0.2515
19793TIP3    H180870   0.980   2.490   0.107  2.1834 -0.7852 -0.1027
19793TIP3    H280871   0.923   2.356   0.065 -2.5865  0.9110  0.6822
19794TIP3   OH280872   1.066   2.735   6.096 -0.2789  0.1845 -0.5341
19794TIP3    H180873   1.075   2.723   6.191 -0.0354  2.3739 -0.2614
19794TIP3    H280874   1.154   2.722   6.062 -0.3350 -0.4350 -0.4547
19795TIP3   OH280875   4.490   0.382   3.686  0.3645 -0.1466  0.0386
19795TIP3    H180876   4.519   0.445   3.620 -0.1581  2.1138  1.9061
19795TIP3    H280877   4.569   0.334   3.710  0.7936 -0.1305 -1.3073
19796TIP3   OH280878   5.535   6.624   5.596  0.2321 -0.2027  0.0697
19796TIP3    H180879   5.497   6.536   5.599  1.4832 -0.7161  1.6078
19796TIP3    H280880   5.526   6.650   5.504 -0.1896 -1.9287 -0.4089
19797TIP3   OH280881   4.992   2.819   2.003 -0.2842 -0.6248 -0.2172
19797TIP3    H180882   5.082   2.830   1.974  0.6046 -2.3443  1.7584
19797TIP3    H280883   4.981   2.884   2.072 -1.1487  0.7958 -1.6651
19798TIP3   OH280884   4.517   4.745  11.878  0.3402  0.0858  0.3971
19798TIP3    H180885   4.521   4.678  11.810 -0.8556 -0.3123  0.6998
19798TIP3    H280886   4.460   4.707  11.945 -0.9171  1.6537  0.2627
19799TIP3   OH280887   5.535   5.734  11.689  0.1199 -0.8475  0.4282
19799TIP3    H180888   5.527   5.747  11.595  0.1667 -0.6364  0.4522
19799TIP3    H280889   5.493   5.650  11.706 -0.3569 -0.6312  0.2932
19800TIP3   OH280890   4.705   1.071   5.630  0.3996  0.0308 -0.1405
19800TIP3    H180891   4.689   1.166   5.627  1.3187  0.1585 -1.2059
19800TIP3    H280892   4.799   1.063   5.645 -0.0106 -0.7301  2.2795
19801TIP3   OH280893   2.573   0.563   0.836  0.1051  0.4693 -0.1124
19801TIP3    H180894   2.607   0.475   0.820 -2.0228 -0.4231  0.1110
19801TIP3    H280895   2.570   0.570   0.932 -1.2921  0.1426 -0.1222
19802TIP3   OH280896   0.491   3.178  13.764  0.3868  0.2138 -0.2032
19802TIP3    H180897   0.526   3.135  13.842 -0.7084 -0.1066  0.1214
19802TIP3    H280898   0.458   3.262  13.796 -1.5763 -0.6161 -0.0084
19803TIP3   OH280899   5.953   1.393   2.018 -0.3176  0.6780 -0.3360
19803TIP3    H180900   5.977   1.355   2.102 -1.1157 -3.2676 -1.7759
19803TIP3    H280901   5.857   1.395   2.019 -0.3150  1.3459 -0.8400
19804TIP3   OH280902   6.269   2.293   4.248  0.8413  0.2279 -0.1276
19804TIP3    H180903   6.288   2.202   4.223 -0.6070 -0.8731  2.5853
19804TIP3    H280904   6.356   2.333   4.258  1.6010 -1.6736  1.3770
19805TIP3   OH280905   5.413   3.677   0.791  0.5233  0.6453 -0.0812
19805TIP3    H180906   5.475   3.650   0.723  0.0326  1.5480 -0.9103
19805TIP3    H280907   5.422   3.772   0.795 -0.3537  0.7215  0.2256
19806TIP3   OH280908   1.476   6.414   2.540 -0.7000 -0.1326 -0.1719
19806TIP3    H180909   1.500   6.336   2.591 -1.0130  0.9672  1.6924
19806TIP3    H280910   1.399   6.387   2.491  0.7121 -1.8021 -1.5615
19807TIP3   OH280911   3.969   0.516  11.122  0.5800  0.9623  0.0459
19807TIP3    H180912   3.893   0.547  11.073  0.0807 -1.6283 -0.9069
19807TIP3    H280913   4.044   0.543  11.070  0.1240 -0.0929 -1.1764
19808TIP3   OH280914   5.504   4.180   0.642 -0.4593  0.4525 -1.2694
19808TIP3    H180915   5.455   4.258   0.614 -2.0046 -0.5386 -1.4088
19808TIP3    H280916   5.438   4.111   0.645  0.7454 -0.6700 -0.3567
19809TIP3   OH280917   1.405   2.549  15.149 -0.0581 -0.5043 -0.0269
19809TIP3    H180918   1.413   2.511  15.237 -0.2056 -0.4111  0.0260
19809TIP3    H280919   1.495   2.559  15.119  0.0830  1.9332  1.1499
19810TIP3   OH280920   0.646   1.359   6.097  0.0388 -0.2620 -0.0204
19810TIP3    H180921   0.742   1.362   6.099  0.0733 -0.7441 -0.5879
19810TIP3    H280922   0.623   1.294   6.163 -0.0278  1.7827  1.9893
19811TIP3   OH280923   0.404   6.543  12.712  0.0797 -0.5562 -0.4000
19811TIP3    H180924   0.368   6.507  12.793  0.8269 -3.4386 -1.2706
19811TIP3    H280925   0.497   6.519  12.714  0.3428  0.2656 -1.6230
19812TIP3   OH280926   1.382   1.148   4.931 -0.3273  0.0744 -0.4048
19812TIP3    H180927   1.424   1.127   5.015 -0.2735 -0.6384 -0.6047
19812TIP3    H280928   1.300   1.099   4.933 -0.2210 -0.1189 -0.8622
19813TIP3   OH280929   3.717   2.765  12.353 -0.1367  0.0727  0.4519
19813TIP3    H180930   3.627   2.767  12.321 -0.4757  0.4337  1.4177
19813TIP3    H280931   3.754   2.686  12.314 -0.5570  0.4549 -0.7727
19814TIP3   OH280932   4.085   5.865  16.128  0.4725  0.7366  0.5554
19814TIP3    H180933   4.019   5.920  16.086  0.9401  1.0944  0.2870
19814TIP3    H280934   4.059   5.776  16.107 -0.4685  0.8347  1.2587
19815TIP3   OH280935   3.624   2.211  14.635 -0.4691  0.6153 -0.0271
19815TIP3    H180936   3.658   2.283  14.687  0.7735  2.2880 -3.0490
19815TIP3    H280937   3.531   2.231  14.623 -0.6644  0.4390  1.1262
19816TIP3   OH280938   2.838   1.033  15.025 -0.7287 -0.2683 -0.0641
19816TIP3    H180939   2.803   1.042  14.936  1.0577 -1.9443 -0.9757
19816TIP3    H280940   2.904   0.964  15.018  0.8050  0.8904  2.1725
19817TIP3   OH280941   4.289   0.518   2.688 -0.1558 -0.2547 -0.7218
19817TIP3    H180942   4.384   0.511   2.700 -0.3309 -0.2646  0.7016
19817TIP3    H280943   4.262   0.588   2.747 -1.3838 -1.9784  0.8222
19818TIP3   OH280944   2.846   2.232  11.451 -0.3202 -0.0548 -0.2601
19818TIP3    H180945   2.929   2.279  11.458 -0.8734  0.9830 -0.4244
19818TIP3    H280946   2.827   2.230  11.357  0.1130 -1.3673 -0.3261
19819TIP3   OH280947   1.826   3.778  13.742  0.3018 -0.1374 -0.1239
19819TIP3    H180948   1.857   3.845  13.802  0.7049  1.6042 -2.2145
19819TIP3    H280949   1.904   3.725  13.723 -0.2316 -1.8803  2.3114
19820TIP3   OH280950   2.901   5.931  16.992  0.6143 -0.0674 -0.4070
19820TIP3    H180951   2.878   5.844  16.960 -2.1021  1.5404 -3.1586
19820TIP3    H280952   2.842   5.945  17.066  2.0076 -1.0623  0.9125
19821TIP3   OH280953   5.652   4.157   0.331  0.5673 -0.7300  0.0791
19821TIP3    H180954   5.669   4.221   0.400  1.3901 -0.9630  0.1046
19821TIP3    H280955   5.592   4.094   0.370  1.0334 -0.8609  0.5894
19822TIP3   OH280956   3.992   4.522   5.629 -0.2816 -0.0507  0.3150
19822TIP3    H180957   4.054   4.481   5.568 -1.0560 -1.6376  0.5590
19822TIP3    H280958   3.948   4.448   5.672 -1.5452  1.0454  0.9584
19823TIP3   OH280959   1.357   1.008  13.444 -0.4041  0.4040 -0.1834
19823TIP3    H180960   1.444   0.979  13.419 -0.3253  1.0290 -0.6306
19823TIP3    H280961   1.356   1.102  13.425 -0.1483  1.0323  2.6144
19824TIP3   OH280962   1.608   3.455   1.188 -0.5833 -0.5681 -0.4240
19824TIP3    H180963   1.674   3.416   1.246  0.4079  1.6303 -0.0253
19824TIP3    H280964   1.580   3.534   1.233 -1.6944 -0.1792 -1.7666
19825TIP3   OH280965   0.863   6.387   6.084 -0.0932 -0.6045  0.1632
19825TIP3    H180966   0.941   6.387   6.027 -0.8082 -0.2372 -0.8370
19825TIP3    H280967   0.790   6.400   6.023 -0.9646 -1.3010  1.0547
19826TIP3   OH280968   2.472   3.188   5.970 -0.2357 -0.1705 -0.0383
19826TIP3    H180969   2.542   3.180   6.033 -1.3496 -1.8437  1.0152
19826TIP3    H280970   2.512   3.232   5.895  1.0795  1.8995  1.8149
19827TIP3   OH280971   3.715   0.392  14.626 -0.6225  0.2842 -0.1676
19827TIP3    H180972   3.757   0.449  14.562 -0.3543 -0.2189 -0.4443
19827TIP3    H280973   3.713   0.306  14.584 -2.0668  0.3253 -0.2186
19828TIP3   OH280974   2.835   2.707   0.075  0.2858 -0.6780 -0.3420
19828TIP3    H180975   2.807   2.759  -0.000 -1.6758  0.3884  1.0952
19828TIP3    H280976   2.875   2.770   0.134 -0.1987 -1.1510  0.4911
19829TIP3   OH280977   5.403   6.150   5.370 -0.4864  0.6815 -0.6857
19829TIP3    H180978   5.443   6.118   5.451  1.0220 -1.4252 -2.1975
19829TIP3    H280979   5.309   6.147   5.387 -0.1911  0.1718  0.9589
19830TIP3   OH280980   0.181   1.916  14.116 -0.3427  0.2409  0.1810
19830TIP3    H180981   0.172   1.887  14.025  0.3920  0.4676  0.0341
19830TIP3    H280982   0.114   1.984  14.127 -0.6650 -0.0330 -0.0859
19831TIP3   OH280983   1.756   3.357  11.794 -0.1041 -0.5563  0.4557
19831TIP3    H180984   1.669   3.333  11.762 -0.3112 -0.5313  0.9903
19831TIP3    H280985   1.769   3.304  11.873  0.7180 -1.1764 -0.0845
19832TIP3   OH280986   1.111   5.000  12.803  0.7066 -0.2606 -0.1298
19832TIP3    H180987   1.177   4.990  12.734  0.9141 -0.4585  0.0961
19832TIP3    H280988   1.144   5.072  12.857 -0.4411  1.2152 -1.3639
19833TIP3   OH280989   0.935   1.654   2.119  0.0729 -0.7270 -0.0106
19833TIP3    H180990   0.888   1.588   2.068 -1.7580  0.4683  0.0898
19833TIP3    H280991   0.878   1.673   2.193  1.3634 -0.2741  0.8802
19834TIP3   OH280992   5.574   1.774  15.125 -0.2296  0.4163  0.0512
19834TIP3    H180993   5.670   1.776  15.124 -0.2167 -0.1206 -0.0361
19834TIP3    H280994   5.552   1.745  15.214 -0.3219  0.8664  0.1781
19835TIP3   OH280995   6.659   0.598   2.705 -0.0952  0.3016  0.7506
19835TIP3    H180996   6.708   0.655   2.764 -0.0250 -0.0428  1.0275
19835TIP3    H280997   6.575   0.642   2.692 -0.0861  0.4051  1.0577
19836TIP3   OH280998   4.023   6.030  16.549  0.4594  0.1428  0.6146
19836TIP3    H180999   4.052   5.954  16.499 -0.7231  1.1655 -1.7441
19836TIP3    H281000   4.101   6.085  16.557  0.6819 -0.0741 -0.0721
19837TIP3   OH281001   2.212   3.437   0.770 -0.1803 -0.1308  0.0823
19837TIP3    H181002   2.275   3.463   0.837 -0.4185 -0.2902  0.3659
19837TIP3    H281003   2.133   3.485   0.791  0.4214  1.5611 -1.3999
19838TIP3   OH281004   0.597   3.223   5.584 -0.2625 -0.2341 -0.2517
19838TIP3    H181005   0.687   3.240   5.557 -0.1186 -0.4789  0.0656
19838TIP3    H281006   0.562   3.164   5.517 -0.4735  0.5696 -0.8569
19839TIP3   OH281007   5.504   1.633   6.206 -0.4088  0.0885  0.1461
19839TIP3    H181008   5.489   1.546   6.242  0.8955  0.0308  0.5927
19839TIP3    H281009   5.489   1.692   6.279  0.3221  0.1115  0.2847
19840TIP3   OH281010   3.416   5.871  16.706  0.3730 -0.6921 -0.7979
19840TIP3    H181011   3.462   5.791  16.731 -0.5644 -1.3853 -1.2273
19840TIP3    H281012   3.369   5.898  16.785  1.9432  0.3340 -0.1913
19841TIP3   OH281013   3.311   4.791   0.163 -0.4438 -0.1583  0.0306
19841TIP3    H181014   3.342   4.742   0.239 -0.2591  0.5448  0.4114
19841TIP3    H281015   3.382   4.852   0.142 -0.1669 -0.8942 -1.2031
19842TIP3   OH281016   6.180   3.335  14.917 -0.3487 -0.2186  0.0912
19842TIP3    H181017   6.095   3.314  14.877 -0.2213  1.2204 -0.9898
19842TIP3    H281018   6.160   3.403  14.981  0.0583  0.5633 -0.5958
19843TIP3   OH281019   5.637   4.283   3.131  0.3761  0.0221 -0.1430
19843TIP3    H181020   5.725   4.310   3.106  1.3401 -0.9707  2.1159
19843TIP3    H281021   5.589   4.365   3.144  1.8305  0.5991  1.6275
19844TIP3   OH281022   3.775   4.560   2.558 -0.1534  0.2461  0.2267
19844TIP3    H181023   3.784   4.591   2.468  2.8194 -0.7317  0.1230
19844TIP3    H281024   3.685   4.529   2.564 -0.6186  1.0635 -2.1778
19845TIP3   OH281025   4.143   1.671   1.701 -0.1753 -0.4515  0.6924
19845TIP3    H181026   4.102   1.722   1.631  1.3596 -2.1816 -1.5016
19845TIP3    H281027   4.126   1.580   1.678  1.2707 -1.0795  2.0393
19846TIP3   OH281028   4.663   2.825   4.807  0.0958 -0.3496  0.0227
19846TIP3    H181029   4.601   2.763   4.843 -0.8676  0.0400 -0.9507
19846TIP3    H281030   4.666   2.806   4.713  1.9679 -0.8220  0.1494
19847TIP3   OH281031   0.808   1.048  13.337 -0.0346 -0.1756  0.1958
19847TIP3    H181032   0.744   1.037  13.267  2.8755  1.3692 -2.8414
19847TIP3    H281033   0.875   0.982  13.320  1.8102  1.6356  0.1866
19848TIP3   OH281034   4.098   5.451   0.573 -0.3705 -0.0513  0.0626
19848TIP3    H181035   4.005   5.436   0.592 -0.7501  0.6271 -1.1671
19848TIP3    H281036   4.112   5.412   0.487  0.2651  0.6338 -0.1539
19849TIP3   OH281037   0.153   1.554  17.178 -0.0275 -0.2119  0.0181
19849TIP3    H181038   0.150   1.576  17.271 -0.4055  0.1026 -0.0711
19849TIP3    H281039   0.071   1.507  17.162 -1.0247  1.7137 -0.6623
19850TIP3   OH281040   6.707   2.967  14.799  0.8853  0.1008  0.4184
19850TIP3    H181041   6.628   3.003  14.758  0.2161 -0.5064  1.1739
19850TIP3    H281042   6.682   2.946  14.888  1.4086 -1.7045  0.1834
19851TIP3   OH281043   2.461   3.376   2.914 -0.3091 -0.3737  0.3127
19851TIP3    H181044   2.476   3.456   2.964 -0.2151 -1.1996  1.6259
19851TIP3    H281045   2.525   3.380   2.843 -1.0563  1.2470 -0.2933
19852TIP3   OH281046   2.726   3.940  13.237 -0.1100  0.0885 -1.0261
19852TIP3    H181047   2.759   3.969  13.152 -1.6642  3.0191 -0.7016
19852TIP3    H281048   2.714   3.846  13.227  2.9064 -0.1630 -2.9227
19853TIP3   OH281049   6.639   2.758  14.514  0.1569 -0.2387 -0.2760
19853TIP3    H181050   6.656   2.738  14.422  1.0109 -0.9736  0.0383
19853TIP3    H281051   6.723   2.746  14.557  0.2384  2.0209  0.2878
19854TIP3   OH281052   6.630   1.107  16.959 -0.0569 -0.2729 -0.2125
19854TIP3    H181053   6.550   1.057  16.976 -0.4182  0.5567  0.5337
19854TIP3    H281054   6.617   1.141  16.870 -2.3231  3.1633  1.3507
19855TIP3   OH281055   4.437   2.054   5.393  0.1270 -0.3325 -1.0326
19855TIP3    H181056   4.404   2.140   5.419 -1.6029 -1.5092  0.8350
19855TIP3    H281057   4.530   2.056   5.414 -0.0728  0.7917 -0.2336
19856TIP3   OH281058   4.853   1.854   5.588 -0.3520 -0.2042  0.1951
19856TIP3    H181059   4.825   1.854   5.497  1.5183  1.0389 -0.3905
19856TIP3    H281060   4.772   1.842   5.638 -1.2268 -2.1374 -1.6457
19857TIP3   OH281061   2.649   3.951   1.421 -0.5815  0.5014 -0.0528
19857TIP3    H181062   2.635   3.862   1.387  0.2306 -0.2983  1.6082
19857TIP3    H281063   2.621   3.945   1.513  1.1436  1.4795  0.5605
19858TIP3   OH281064   3.833   1.837  17.280  0.4730 -0.3713  0.0018
19858TIP3    H181065   3.887   1.849  17.358  0.6785 -1.8157  0.0805
19858TIP3    H281066   3.889   1.866  17.208 -0.2269  2.3548  0.5024
19859TIP3   OH281067   4.805   3.015   2.891 -0.1153  0.0318 -0.3120
19859TIP3    H181068   4.733   3.076   2.908 -1.2464 -1.5444  0.7145
19859TIP3    H281069   4.882   3.058   2.928 -1.0564  0.4457  1.2124
19860TIP3   OH281070   4.190   1.196  17.180 -0.4263 -0.0610 -0.9731
19860TIP3    H181071   4.214   1.172  17.090  0.4768 -1.1804 -0.4414
19860TIP3    H281072   4.273   1.220  17.221 -0.5883 -1.1591  0.0394
19861TIP3   OH281073   0.511   1.150  16.836 -0.0637 -0.3695 -0.1437
19861TIP3    H181074   0.489   1.197  16.916  0.9993 -0.3212  0.1253
19861TIP3    H281075   0.591   1.192  16.804  1.0696 -2.1440  0.2492
19862TIP3   OH281076   4.072   2.738  13.545  0.5466 -0.2219 -0.2880
19862TIP3    H181077   4.146   2.688  13.579 -0.6043 -0.7671  1.4466
19862TIP3    H281078   4.091   2.828  13.571 -0.6453 -0.7237  2.4490
19863TIP3   OH281079   4.619   5.979  14.776 -0.5820  0.0592  0.3241
19863TIP3    H181080   4.555   5.968  14.846  0.8851  2.2738  2.0659
19863TIP3    H281081   4.598   6.063  14.736 -0.8838 -0.7939 -1.3693
19864TIP3   OH281082   4.027   6.295  15.781 -0.2364 -0.4287 -0.1802
19864TIP3    H181083   3.990   6.255  15.860 -1.2136 -1.1439 -0.9913
19864TIP3    H281084   4.082   6.227  15.743 -0.9467 -0.5988 -0.9136
19865TIP3   OH281085   0.548   1.532   3.150 -0.7293 -0.1894  0.2112
19865TIP3    H181086   0.578   1.535   3.059 -0.9593 -0.2669  0.1322
19865TIP3    H281087   0.557   1.440   3.175  0.2555 -0.0093  0.5816
19866TIP3   OH281088   1.083   4.262   0.457 -0.4875 -0.2867  0.0225
19866TIP3    H181089   1.122   4.245   0.370 -1.1834 -0.9472 -0.1621
19866TIP3    H281090   0.996   4.295   0.438 -0.1635  0.8182  0.4519
19867TIP3   OH281091   2.330   4.553   3.995 -0.5593  1.1594 -0.4002
19867TIP3    H181092   2.394   4.610   4.037 -1.6373  1.4711  0.8480
19867TIP3    H281093   2.252   4.560   4.050 -1.1389 -0.4703 -0.9962
19868TIP3   OH281094   2.134   6.365   1.401 -0.5451 -1.0408 -0.1077
19868TIP3    H181095   2.173   6.431   1.343  2.2838 -2.2893  0.3172
19868TIP3    H281096   2.133   6.406   1.487 -1.3454 -0.5535 -0.3410
19869TIP3   OH281097   3.334   4.747  16.128 -0.6830 -0.5238  0.5754
19869TIP3    H181098   3.347   4.654  16.147  1.6852 -0.8470 -2.2306
19869TIP3    H281099   3.403   4.791  16.178  0.0222 -0.5545 -0.3682
19870TIP3   OH281100   4.221   2.736  16.286  0.7406  0.1391 -0.0399
19870TIP3    H181101   4.186   2.647  16.273 -0.1691  0.5158 -0.2116
19870TIP3    H281102   4.183   2.787  16.216 -0.9398  1.2759  1.6451
19871TIP3   OH281103   2.658   2.644   1.021 -0.3009  0.3955 -0.2698
19871TIP3    H181104   2.643   2.597   1.103 -1.6117 -0.7672 -1.1524
19871TIP3    H281105   2.749   2.623   0.997  0.0514  0.6640  0.8254
19872TIP3   OH281106   3.852   3.378   0.996  0.3670  0.4266  0.2538
19872TIP3    H181107   3.888   3.329   0.923  0.8797  0.2753  0.6045
19872TIP3    H281108   3.811   3.312   1.052 -1.1385  0.6797 -0.5239
19873TIP3   OH281109   2.071   4.180  12.960  0.2666 -0.2425  0.0323
19873TIP3    H181110   2.164   4.170  12.977 -0.0812 -1.6287  1.2400
19873TIP3    H281111   2.062   4.162  12.866  1.2438  0.2159 -0.1543
19874TIP3   OH281112   3.757   3.205  10.842  0.3215 -0.3538  0.1913
19874TIP3    H181113   3.820   3.166  10.782  0.7119  0.1175  0.2966
19874TIP3    H281114   3.683   3.228  10.786 -0.0669 -1.5578  0.1833
19875TIP3   OH281115   5.452   5.279   5.093  0.5786 -0.2398  0.0195
19875TIP3    H181116   5.446   5.374   5.097  0.9327 -0.2795  1.6338
19875TIP3    H281117   5.517   5.256   5.159 -0.1729 -1.6632  0.2867
19876TIP3   OH281118   2.471   2.828   3.388 -0.3292 -0.1494 -0.2858
19876TIP3    H181119   2.390   2.854   3.432 -0.2633  0.6882 -0.6552
19876TIP3    H281120   2.445   2.814   3.297 -0.3646 -1.4003 -0.0982
19877TIP3   OH281121   3.067   4.880  10.943  0.0612 -0.8118  0.4062
19877TIP3    H181122   2.976   4.890  10.972 -0.0111 -1.9335  0.6105
19877TIP3    H281123   3.060   4.871  10.848 -0.1763 -2.2716  0.5520
19878TIP3   OH281124   6.793   5.424   3.532  0.0632  0.8305 -0.1478
19878TIP3    H181125   6.780   5.469   3.616  0.2674  0.3576  0.1360
19878TIP3    H281126   6.738   5.473   3.471 -1.3427  0.2003  0.5974
19879TIP3   OH281127   4.824   1.073  13.728 -0.4920  0.1883  0.1429
19879TIP3    H181128   4.812   0.985  13.691 -2.4073  0.5430 -0.1414
19879TIP3    H281129   4.745   1.121  13.701  0.9795  2.2868 -0.5220
19880TIP3   OH281130   0.649   5.700   2.955  0.2275  0.0792  0.3076
19880TIP3    H181131   0.612   5.741   3.033 -2.1994  1.3071 -1.4034
19880TIP3    H281132   0.722   5.757   2.930 -0.5106  1.0323  0.3069
19881TIP3   OH281133   5.323   3.046   4.912  0.5293 -0.2593  0.3707
19881TIP3    H181134   5.288   3.115   4.968  0.7986 -1.4776  2.0634
19881TIP3    H281135   5.408   3.024   4.950 -0.2401 -2.6191  0.8191
19882TIP3   OH281136   6.447   1.614   5.809  0.0861 -0.0142 -0.4267
19882TIP3    H181137   6.473   1.673   5.739  2.2796 -0.3864  0.0369
19882TIP3    H281138   6.424   1.532   5.764 -0.7957  0.4692 -0.8771
19883TIP3   OH281139   4.319   1.322  13.716  0.2094 -0.0488  0.3004
19883TIP3    H181140   4.390   1.267  13.683 -1.6075 -1.6896 -0.9164
19883TIP3    H281141   4.310   1.297  13.808  0.4792 -0.6068  0.1756
19884TIP3   OH281142   2.650   0.776   3.993  0.2716 -0.8616  0.2591
19884TIP3    H181143   2.560   0.777   4.027 -0.2283 -1.1341 -0.9987
19884TIP3    H281144   2.674   0.869   3.987 -0.5548 -0.7012 -0.9378
19885TIP3   OH281145   4.510   6.223  14.675 -0.7202  0.2878 -0.0223
19885TIP3    H181146   4.465   6.262  14.600  1.3768  0.4776 -1.2038
19885TIP3    H281147   4.583   6.282  14.692  1.5450 -2.2412 -0.8014
19886TIP3   OH281148   3.207   5.679  11.402  0.3909  0.3806 -0.0599
19886TIP3    H181149   3.275   5.611  11.401  1.2205  1.2028 -1.5143
19886TIP3    H281150   3.244   5.749  11.456  1.6434  1.7099 -2.5280
19887TIP3   OH281151   6.322   6.542   4.237 -0.2073 -0.0218  0.2912
19887TIP3    H181152   6.381   6.468   4.252 -0.9628 -0.8011 -0.5058
19887TIP3    H281153   6.309   6.580   4.324  0.8037 -0.3478  0.5980
19888TIP3   OH281154   3.950   4.669  13.430 -0.1545  0.2569  0.0369
19888TIP3    H181155   4.031   4.702  13.391  0.3008  0.8886  1.4791
19888TIP3    H281156   3.953   4.574  13.418  1.3270  0.1685  1.0632
19889TIP3   OH281157   5.135   0.208   0.605 -0.1083  0.3233  0.5527
19889TIP3    H181158   5.121   0.116   0.581  3.0410 -0.0580 -0.0761
19889TIP3    H281159   5.061   0.254   0.567 -1.8336 -1.9634  1.0061
19890TIP3   OH281160   5.463   4.004   3.487  0.3796 -0.4984 -0.3086
19890TIP3    H181161   5.531   4.050   3.537  0.3626 -1.5299  0.7053
19890TIP3    H281162   5.482   4.025   3.396  0.3646  1.4997  0.1320
19891TIP3   OH281163   1.613   1.528   5.873 -0.0070 -0.1482 -0.7149
19891TIP3    H181164   1.658   1.475   5.939 -1.4855  0.2025  0.5972
19891TIP3    H281165   1.559   1.589   5.923 -0.9498  0.3084 -2.2493
19892TIP3   OH281166   5.389   4.973   0.368 -0.1698 -0.1137  0.3105
19892TIP3    H181167   5.321   4.917   0.332  1.0883  0.9386 -3.9980
19892TIP3    H281168   5.343   5.051   0.398 -1.3911 -1.4982  2.1061
19893TIP3   OH281169   4.137   6.644   0.641  0.0674  0.5686 -0.0525
19893TIP3    H181170   4.129   6.664   0.734 -0.6433  0.2479 -0.0422
19893TIP3    H281171   4.231   6.653   0.622  0.9152 -3.7093  1.6536
19894TIP3   OH281172   1.343   0.582   3.966  0.2436  0.2125 -0.4444
19894TIP3    H181173   1.316   0.674   3.958 -1.1617 -0.3404 -2.7046
19894TIP3    H281174   1.280   0.544   4.027  0.5630  0.6610  0.1640
19895TIP3   OH281175   2.851   5.152   1.172 -0.6578  0.6169  0.0132
19895TIP3    H181176   2.856   5.098   1.251 -0.4324 -0.8491 -0.9792
19895TIP3    H281177   2.760   5.181   1.168 -1.1236 -0.8367 -0.1700
19896TIP3   OH281178   1.535   6.720   3.419 -0.6375  0.1652  0.1379
19896TIP3    H181179   1.495   6.751   3.338 -0.1110 -0.3097 -0.3081
19896TIP3    H281180   1.598   6.787   3.443  0.0155 -0.2323 -0.4594
19897TIP3   OH281181   0.484   3.313  16.762  0.2255  0.3436 -0.1483
19897TIP3    H181182   0.510   3.373  16.691  1.2106 -0.6084 -0.6053
19897TIP3    H281183   0.406   3.270  16.729  0.4221  0.2337 -0.4759
19898TIP3   OH281184   5.681   0.744   5.457 -0.3296 -0.0693  0.4088
19898TIP3    H181185   5.719   0.831   5.443  0.1814  0.0376  2.2900
19898TIP3    H281186   5.756   0.688   5.478 -0.9748 -0.2824  2.2202
19899TIP3   OH281187   3.361   4.070   0.339  0.3817 -0.3876 -0.5619
19899TIP3    H181188   3.266   4.074   0.351  0.3871  0.9449 -0.8701
19899TIP3    H281189   3.395   4.143   0.390  0.8597  1.8390 -3.8774
19900TIP3   OH281190   5.178   5.484  16.525 -0.1569  0.0014  0.3955
19900TIP3    H181191   5.255   5.460  16.473  1.2469  1.5921  1.6528
19900TIP3    H281192   5.118   5.524  16.462  1.3284  1.4967 -0.1108
19901TIP3   OH281193   2.645   3.103  14.922  0.1996 -0.3010 -0.2031
19901TIP3    H181194   2.676   3.061  14.842 -0.0716  2.4682 -1.8265
19901TIP3    H281195   2.558   3.065  14.936  0.3729 -1.0364 -1.0600
19902TIP3   OH281196   6.179   3.970  10.145 -0.0363 -0.8287  0.1092
19902TIP3    H181197   6.106   4.012  10.101 -0.5522 -0.5497  1.2234
19902TIP3    H281198   6.173   3.878  10.119  0.8448 -0.3331 -1.9833
19903TIP3   OH281199   1.491   4.042   5.017 -0.3736 -0.5074 -0.5210
19903TIP3    H181200   1.525   3.995   5.093  0.2739 -0.1690 -0.5978
19903TIP3    H281201   1.540   4.125   5.016 -1.0252 -0.1227 -0.7763
19904TIP3   OH281202   6.405   6.293  10.968  0.7383  0.4052 -0.5929
19904TIP3    H181203   6.346   6.318  11.039 -1.2986  0.5673 -2.3152
19904TIP3    H281204   6.406   6.197  10.971  0.8008  0.4122 -0.2739
19905TIP3   OH281205   4.227   0.938   1.331  0.4992 -0.4963  0.2596
19905TIP3    H181206   4.270   0.901   1.409 -0.6691 -1.9534  0.2376
19905TIP3    H281207   4.275   0.900   1.257  0.6037 -0.3491  0.2513
19906TIP3   OH281208   4.124   4.116   0.077 -0.3309  0.1123 -0.1802
19906TIP3    H181209   4.054   4.087   0.018 -0.1154  0.2059 -0.4879
19906TIP3    H281210   4.161   4.035   0.112  0.1658  0.0104 -0.9128
19907TIP3   OH281211   4.308   3.773  13.740 -0.2660  0.1653 -0.5500
19907TIP3    H181212   4.233   3.723  13.771 -0.3538  0.5644 -0.1053
19907TIP3    H281213   4.338   3.726  13.662 -1.3474  0.3394 -1.0901
19908TIP3   OH281214   4.927   4.836  12.488  0.2090  0.8367  0.5123
19908TIP3    H181215   4.871   4.773  12.534  0.3981 -0.8337 -1.4826
19908TIP3    H281216   4.868   4.880  12.427  0.7384  0.1697 -0.4980
19909TIP3   OH281217   3.190   0.984  16.566  0.3189 -0.1650 -0.3385
19909TIP3    H181218   3.138   0.957  16.491 -1.0159  0.6739  0.2502
19909TIP3    H281219   3.125   1.013  16.631  1.5737  3.8674 -0.7303
19910TIP3   OH281220   3.509   5.705  12.082  0.4920  0.3139  0.0367
19910TIP3    H181221   3.429   5.751  12.057  1.4149  1.2881 -1.1847
19910TIP3    H281222   3.499   5.617  12.045  0.2725  0.6496 -0.7113
19911TIP3   OH281223   2.878   6.806  11.812  0.3587  0.0170 -0.1865
19911TIP3    H181224   2.829   6.759  11.880 -1.4036 -0.1732 -1.5592
19911TIP3    H281225   2.888   6.742  11.742 -0.9488  1.2959 -1.5613
19912TIP3   OH281226   3.580   6.588  11.979  0.0833 -0.3378  0.8618
19912TIP3    H181227   3.520   6.518  11.954  0.9300 -1.5455  2.1190
19912TIP3    H281228   3.553   6.664  11.927 -1.3033 -1.4010  0.0248
19913TIP3   OH281229   5.763   5.818   0.748 -0.0605 -0.1176  0.5577
19913TIP3    H181230   5.828   5.838   0.815  1.4795 -1.1359 -0.5991
19913TIP3    H281231   5.734   5.904   0.717  2.2366  0.3819 -0.3152
19914TIP3   OH281232   2.398   6.042   4.323  0.0007  0.4983 -0.0756
19914TIP3    H181233   2.325   5.980   4.325  2.2241 -2.1840  1.0553
19914TIP3    H281234   2.436   6.037   4.410  2.5080  0.5984 -1.1269
19915TIP3   OH281235   5.358   2.011   5.150 -0.0264  0.2769 -0.2959
19915TIP3    H181236   5.370   1.919   5.125  0.7978 -0.0323  1.1336
19915TIP3    H281237   5.443   2.036   5.187 -0.1888  1.6831 -0.8654
19916TIP3   OH281238   0.643   4.127   5.951 -0.7179 -0.1672  0.0522
19916TIP3    H181239   0.696   4.202   5.977  1.6629 -1.5851 -0.5131
19916TIP3    H281240   0.636   4.073   6.030 -0.8924 -0.2196  0.0016
19917TIP3   OH281241   3.321   4.793   1.450  0.1585 -0.0025  0.0185
19917TIP3    H181242   3.240   4.841   1.466  0.3863  0.6565 -0.7667
19917TIP3    H281243   3.296   4.724   1.388  0.3911  0.7889 -0.9608
19918TIP3   OH281244   2.604   3.844   0.357  1.0636  0.5236  0.3581
19918TIP3    H181245   2.573   3.753   0.358 -1.7371  1.4291  0.4860
19918TIP3    H281246   2.670   3.846   0.288  0.9827 -1.5446  0.1931
19919TIP3   OH281247   5.369   4.033  15.172 -0.1584 -0.7450  0.4364
19919TIP3    H181248   5.313   3.968  15.215  0.1768 -0.8751  0.6785
19919TIP3    H281249   5.318   4.062  15.096 -1.8069  1.2272  2.2199
19920TIP3   OH281250   5.915   4.743   0.861 -0.0250  0.3432 -0.2734
19920TIP3    H181251   5.990   4.777   0.910  0.3681  0.8867 -1.2284
19920TIP3    H281252   5.953   4.679   0.801 -0.9446 -3.0503  2.5989
19921TIP3   OH281253   1.427   5.224  12.071  0.2729  0.1466  0.4040
19921TIP3    H181254   1.456   5.183  12.153  1.3839 -2.7793 -1.3599
19921TIP3    H281255   1.338   5.193  12.059  0.7239 -0.8972 -0.3592
19922TIP3   OH281256   3.170   3.419  13.685 -0.8207  0.2615 -0.2550
19922TIP3    H181257   3.076   3.414  13.704 -0.8190 -0.4842 -0.3954
19922TIP3    H281258   3.186   3.342  13.630 -0.2177  0.6463 -0.6247
19923TIP3   OH281259   1.546   1.932  15.598  0.7274  0.3892 -0.8044
19923TIP3    H181260   1.554   1.853  15.544  1.4775 -0.1164  0.0341
19923TIP3    H281261   1.578   1.905  15.684  1.6142  1.7898 -0.6860
19924TIP3   OH281262   6.594   5.572   6.356  0.1031 -0.2562  0.0609
19924TIP3    H181263   6.671   5.597   6.409  0.3306  2.0248 -1.3010
19924TIP3    H281264   6.585   5.477   6.371  2.2022 -0.2689  1.5139
19925TIP3   OH281265   6.802   0.365   2.748 -0.1813 -0.4032 -0.2731
19925TIP3    H181266   6.735   0.435   2.748 -0.8421 -1.0123  0.9538
19925TIP3    H281267   6.771   0.303   2.682 -0.3348 -0.2293 -0.3674
19926TIP3   OH281268   3.481   6.446   3.968  1.1638 -0.5788  0.0288
19926TIP3    H181269   3.409   6.438   3.905  0.6601 -2.2213  0.7842
19926TIP3    H281270   3.560   6.431   3.917  0.8971  0.1319 -0.6016
19927TIP3   OH281271   1.213   3.948  17.009 -0.3140 -0.1034 -0.3750
19927TIP3    H181272   1.121   3.928  16.991 -0.6841  0.1469  1.2556
19927TIP3    H281273   1.237   3.888  17.080  0.3838  0.8243  0.1715
19928TIP3   OH281274   0.613   4.329   6.697  0.2513 -0.0955  0.8796
19928TIP3    H181275   0.581   4.254   6.747  0.5380 -1.3815 -0.8120
19928TIP3    H281276   0.687   4.362   6.747  0.3685 -1.1835  1.4286
19929TIP3   OH281277   0.299   6.090   0.989 -0.2495  0.4106  0.2835
19929TIP3    H181278   0.349   6.128   0.917 -0.6351  1.3938  0.5271
19929TIP3    H281279   0.226   6.046   0.945  1.5744 -2.2931 -0.1780
19930TIP3   OH281280   1.716   4.717   4.236  0.0264 -0.1772 -0.0062
19930TIP3    H181281   1.662   4.697   4.160 -0.6498  0.1204  0.3943
19930TIP3    H281282   1.704   4.811   4.250  1.1042  0.0045 -0.2716
19931TIP3   OH281283   2.649   3.554  14.355 -0.1755  0.7141 -0.2490
19931TIP3    H181284   2.672   3.471  14.396 -0.6716 -0.3514 -2.0859
19931TIP3    H281285   2.724   3.575  14.299  0.7565  2.4576  1.5911
19932TIP3   OH281286   3.931   0.449  14.045  0.3604 -0.5111  0.1544
19932TIP3    H181287   3.966   0.391  14.112  1.8407  0.7007  0.4478
19932TIP3    H281288   3.963   0.536  14.068  0.1205  0.0685 -1.6007
19933TIP3   OH281289   5.435   1.376   6.232  0.2883  0.1909  0.4791
19933TIP3    H181290   5.482   1.379   6.149  0.0158  0.9044  0.3560
19933TIP3    H281291   5.428   1.282   6.252 -1.1178 -0.0501 -1.1268
19934TIP3   OH281292   5.269   4.567  16.567  0.0127 -1.4719 -0.3367
19934TIP3    H181293   5.340   4.630  16.556 -0.5796 -1.0030 -1.4384
19934TIP3    H281294   5.300   4.509  16.637  1.9986 -1.9757 -1.5796
19935TIP3   OH281295   3.396   2.562   0.086  0.0776  0.3532 -0.4542
19935TIP3    H181296   3.421   2.474   0.057 -2.4578 -0.5463 -0.0224
19935TIP3    H281297   3.464   2.586   0.149  0.2015 -1.7644  0.2843
19936TIP3   OH281298   4.607   6.623   0.669  0.6325  0.0743  0.4078
19936TIP3    H181299   4.659   6.680   0.613 -0.2795  0.0286 -0.4963
19936TIP3    H281300   4.625   6.535   0.638 -0.3993  0.0934 -0.2853
19937TIP3   OH281301   5.601   2.644   1.937  0.1012 -0.0053  0.4548
19937TIP3    H181302   5.562   2.682   1.858  0.9513 -0.9167 -0.4109
19937TIP3    H281303   5.680   2.696   1.952  1.1847 -1.3024 -0.6448
19938TIP3   OH281304   1.490   2.206  17.100  0.2106  0.0533  0.3874
19938TIP3    H181305   1.455   2.289  17.066 -0.7913 -0.7665 -0.6223
19938TIP3    H281306   1.580   2.203  17.067  0.1415  0.5880  0.1424
19939TIP3   OH281307   3.404   5.300  16.076  0.3765 -0.3324  0.1661
19939TIP3    H181308   3.326   5.244  16.081  0.3135 -0.1491  1.5183
19939TIP3    H281309   3.388   5.357  16.001 -1.9041  1.3090  1.8378
19940TIP3   OH281310   1.866   2.753  10.684 -0.6926 -0.2260  0.1207
19940TIP3    H181311   1.856   2.828  10.743 -1.3501 -0.0948 -0.1456
19940TIP3    H281312   1.777   2.718  10.676 -0.3120 -1.3255  0.6263
19941TIP3   OH281313   5.885   3.357  16.667 -0.0127  0.0120 -0.1928
19941TIP3    H181314   5.954   3.308  16.622  0.1652 -0.0958  0.1940
19941TIP3    H281315   5.804   3.331  16.624  0.1283 -0.2908 -0.2733
19942TIP3   OH281316   2.383   3.521   5.784  0.0343 -0.2911 -0.5877
19942TIP3    H181317   2.410   3.554   5.699  1.2913  2.5188  0.8326
19942TIP3    H281318   2.461   3.481   5.821  0.3636  1.3645  0.5469
19943TIP3   OH281319   4.166   2.328   4.921  1.1035 -0.2019 -0.3762
19943TIP3    H181320   4.233   2.382   4.880 -0.2776  1.4931 -0.4367
19943TIP3    H281321   4.102   2.313   4.852  0.5308 -0.3265  0.1790
19944TIP3   OH281322   3.875   4.901  10.911 -0.2487 -0.4880 -0.1956
19944TIP3    H181323   3.874   4.805  10.910  1.0928 -0.5067 -0.6486
19944TIP3    H281324   3.832   4.926  10.829  1.8155 -0.7622 -1.4233
19945TIP3   OH281325   3.401   0.330  17.202  0.1470  0.0629 -0.1496
19945TIP3    H181326   3.350   0.282  17.136 -0.1483 -0.7641  0.6793
19945TIP3    H281327   3.377   0.422  17.187  0.7538 -0.0167 -1.7755
19946TIP3   OH281328   2.007   3.001   0.973 -0.4922 -0.3626  0.0955
19946TIP3    H181329   1.980   2.915   1.004  1.0884 -0.7082  0.5792
19946TIP3    H281330   1.926   3.051   0.966 -1.2570 -1.3821  1.3876
19947TIP3   OH281331   6.706   3.323  13.594 -0.5903  0.1523 -0.7228
19947TIP3    H181332   6.635   3.381  13.620  1.2955  2.1355  0.1311
19947TIP3    H281333   6.664   3.255  13.542 -3.1630  1.0495  0.1207
19948TIP3   OH281334   0.032   6.436  12.075 -0.2538  0.4413  0.3259
19948TIP3    H181335  -0.033   6.431  12.005 -0.5867  1.5310  0.5518
19948TIP3    H281336   0.012   6.518  12.121 -1.7942 -1.6027  3.4528
19949TIP3   OH281337   3.423   5.235  12.467  0.2874  0.1627 -0.3803
19949TIP3    H181338   3.499   5.209  12.518 -0.4747  0.7969  1.0910
19949TIP3    H281339   3.456   5.306  12.411  0.9141  0.0357 -0.1838
19950TIP3   OH281340   5.681   6.001  12.746 -0.3341 -0.0102  0.3635
19950TIP3    H181341   5.608   6.054  12.778 -1.5265 -1.3279 -0.1123
19950TIP3    H281342   5.749   6.064  12.722 -1.8626  1.3144 -0.5474
19951TIP3   OH281343   0.586   0.293   0.640  0.0468 -0.8676 -0.1156
19951TIP3    H181344   0.499   0.296   0.601 -1.1649 -0.1442  2.5321
19951TIP3    H281345   0.600   0.200   0.659 -0.6572 -0.8498  0.5160
19952TIP3   OH281346   5.476   4.251  14.894  0.5546 -0.1707 -0.3361
19952TIP3    H181347   5.409   4.218  14.834 -2.5805  1.9434  1.8206
19952TIP3    H281348   5.518   4.322  14.846 -0.1252 -0.2045 -0.9977
19953TIP3   OH281349   2.818   3.931  15.323 -0.5581 -0.1232  0.0567
19953TIP3    H181350   2.836   3.869  15.252  2.1174  0.8385 -0.1618
19953TIP3    H281351   2.788   4.011  15.278 -0.1049  0.0660  0.0912
19954TIP3   OH281352   4.193   4.243   4.527 -0.1391  0.6336  0.4968
19954TIP3    H181353   4.279   4.209   4.551  0.0844 -1.3930 -2.7295
19954TIP3    H281354   4.208   4.335   4.508  0.3968  1.3469  4.0866
19955TIP3   OH281355   4.964   2.428  15.677  0.3171 -0.2896 -0.0895
19955TIP3    H181356   5.021   2.380  15.737 -1.0929 -1.5833  0.2637
19955TIP3    H281357   4.897   2.467  15.733 -0.2829 -0.4461 -0.6891
19956TIP3   OH281358   0.839   0.030   1.824  0.1674 -0.5877  0.1808
19956TIP3    H181359   0.798  -0.041   1.874  0.4034 -0.0137  1.2022
19956TIP3    H281360   0.873  -0.013   1.746 -2.1272 -1.1259 -0.5676
19957TIP3   OH281361   5.780   3.028  15.622 -0.4774 -0.0683  0.6518
19957TIP3    H181362   5.849   3.066  15.568 -1.4513 -0.6627 -1.0642
19957TIP3    H281363   5.702   3.079  15.600 -1.1192 -1.0307  0.6892
19958TIP3   OH281364   1.514   3.207  11.717 -0.5618  0.5517 -0.5903
19958TIP3    H181365   1.458   3.259  11.660 -0.1711  1.5020 -0.1184
19958TIP3    H281366   1.467   3.124  11.727 -1.2944  0.8848 -1.1813
19959TIP3   OH281367   4.640   1.713   3.711  0.1381 -0.0394 -0.1061
19959TIP3    H181368   4.700   1.645   3.680 -0.5828 -0.6757 -0.1195
19959TIP3    H281369   4.574   1.718   3.642  0.8852  1.5786 -0.7213
19960TIP3   OH281370   4.552   3.005   2.481 -0.5981 -0.0256 -0.2008
19960TIP3    H181371   4.537   2.959   2.563  0.0120  0.7943  0.3732
19960TIP3    H281372   4.547   3.098   2.504 -0.3544  0.2107 -1.0768
19961TIP3   OH281373   4.779   0.913   5.420 -0.3412  0.6255 -0.2467
19961TIP3    H181374   4.746   0.951   5.338  0.1690 -0.9491 -1.2143
19961TIP3    H281375   4.744   0.969   5.488  0.1527  2.6564 -1.6086
19962TIP3   OH281376   2.066   0.914  10.992 -0.7092  0.7108 -0.1609
19962TIP3    H181377   2.147   0.958  10.964 -0.4964 -0.5516 -1.6282
19962TIP3    H281378   2.058   0.934  11.085  1.0539  1.2227 -0.1049
19963TIP3   OH281379   5.326   4.368   1.445 -0.3954  0.2756 -0.2661
19963TIP3    H181380   5.404   4.417   1.416 -1.3265  1.9733  0.0397
19963TIP3    H281381   5.352   4.277   1.438  2.4608  0.8335  2.0880
19964TIP3   OH281382   4.871   1.144   3.226 -0.1258 -0.5593 -0.0067
19964TIP3    H181383   4.884   1.178   3.137 -0.7116  0.0468  0.1317
19964TIP3    H281384   4.833   1.218   3.274 -0.1012 -0.9820  0.6660
19965TIP3   OH281385   2.445   1.961  11.917 -0.3783 -0.7427 -0.1137
19965TIP3    H181386   2.486   2.025  11.858  1.0378 -0.3042  1.3071
19965TIP3    H281387   2.421   1.888  11.861  0.3098 -0.0230 -1.3625
19966TIP3   OH281388   5.308   3.610  14.891  0.1574  0.0890  0.2035
19966TIP3    H181389   5.396   3.617  14.928  0.7046 -1.7578 -0.6821
19966TIP3    H281390   5.311   3.533  14.834 -1.8156  0.4501 -0.4660
19967TIP3   OH281391   3.682   1.257  12.153 -0.7172 -0.6174 -0.5123
19967TIP3    H181392   3.669   1.272  12.059  1.1025  1.3631 -0.4825
19967TIP3    H281393   3.743   1.325  12.180 -2.3807 -0.2428  2.4510
19968TIP3   OH281394   3.223   0.329  15.033  0.1461 -0.1550 -0.1001
19968TIP3    H181395   3.268   0.247  15.049  0.8125 -0.2167 -2.1277
19968TIP3    H281396   3.130   0.307  15.039  0.3488 -0.3845  2.4180
19969TIP3   OH281397   2.573   4.661  11.248 -0.5817  0.0101 -0.4232
19969TIP3    H181398   2.619   4.684  11.329 -0.5620  0.3098 -0.5209
19969TIP3    H281399   2.524   4.740  11.225 -1.0793 -0.2775 -0.3663
19970TIP3   OH281400   0.982   1.853  15.856 -0.2503 -0.4896 -0.4456
19970TIP3    H181401   0.888   1.850  15.840 -0.3446 -1.9489  0.2999
19970TIP3    H281402   1.022   1.854  15.769 -1.0038  5.0315 -0.9577
19971TIP3   OH281403   4.501   3.266  17.205  0.3202 -0.4258 -0.5535
19971TIP3    H181404   4.587   3.240  17.173  0.4350 -3.2203  1.7639
19971TIP3    H281405   4.504   3.247  17.299 -2.3463  0.7390 -0.1917
19972TIP3   OH281406   2.992   5.713   4.494 -0.2575  0.4505 -0.4896
19972TIP3    H181407   3.073   5.675   4.529 -0.0406  2.0080  0.7851
19972TIP3    H281408   2.948   5.641   4.450  0.2701 -1.2047  1.6307
19973TIP3   OH281409   2.911   1.750   0.109 -0.0567  0.1387 -0.4132
19973TIP3    H181410   2.976   1.798   0.162  0.9959 -0.9824 -0.6650
19973TIP3    H281411   2.865   1.695   0.173 -1.7018  1.9386 -0.0261
19974TIP3   OH281412   3.791   1.589  10.869  0.1708 -0.0785 -0.4407
19974TIP3    H181413   3.761   1.500  10.851 -0.3956 -0.1335  0.7500
19974TIP3    H281414   3.756   1.641  10.797 -1.6417 -0.3773  0.1937
19975TIP3   OH281415   5.931   2.002   3.665 -0.2756 -0.5695  0.7396
19975TIP3    H181416   5.932   1.999   3.570  0.9208 -0.2521  0.7445
19975TIP3    H281417   5.990   2.073   3.688  1.0525 -1.9691  1.7721
19976TIP3   OH281418   2.833   5.885   0.554 -0.0990  0.1127 -0.4650
19976TIP3    H181419   2.768   5.927   0.611  0.2449 -0.8447  0.6447
19976TIP3    H281420   2.845   5.798   0.592  0.4682 -0.3761 -1.7502
19977TIP3   OH281421   5.216   3.536   2.649 -0.0519  0.6373 -0.2522
19977TIP3    H181422   5.198   3.534   2.555  0.5588 -1.5713 -0.3586
19977TIP3    H281423   5.311   3.535   2.655 -0.1005 -0.7287  0.3916
19978TIP3   OH281424   6.531   2.319   5.283  1.2978 -0.0894 -0.5186
19978TIP3    H181425   6.472   2.252   5.317 -0.5173  1.1258 -1.2168
19978TIP3    H281426   6.607   2.270   5.251 -0.1754 -1.8424 -1.3923
19979TIP3   OH281427   3.499   5.175   2.862 -0.2093 -0.1786  0.2718
19979TIP3    H181428   3.568   5.186   2.797 -1.2087  1.4709 -0.5402
19979TIP3    H281429   3.495   5.259   2.907 -1.7673 -0.2085  0.2119
19980TIP3   OH281430   0.994   1.859  14.770 -0.2388  0.0452  0.4503
19980TIP3    H181431   1.073   1.864  14.715  1.0468 -0.1409  2.2455
19980TIP3    H281432   0.963   1.949  14.777 -0.1036  0.1405 -0.1034
19981TIP3   OH281433   3.824   0.807  13.195  0.7618 -0.0149  0.3085
19981TIP3    H181434   3.766   0.739  13.162  3.0299 -1.1077 -1.5517
19981TIP3    H281435   3.891   0.760  13.244  0.5687  1.1745  1.7752
19982TIP3   OH281436   1.743   5.500   5.724  0.4099  0.0775 -0.4139
19982TIP3    H181437   1.831   5.532   5.748  0.7228 -0.8649 -0.2705
19982TIP3    H281438   1.686   5.576   5.736  1.2389  0.7530 -0.6888
19983TIP3   OH281439   2.527   2.712   0.025  0.3184  0.3036  0.1445
19983TIP3    H181440   2.542   2.636  -0.033  2.4924 -1.1368  2.4753
19983TIP3    H281441   2.433   2.713   0.039  0.0680 -0.9402 -1.2857
19984TIP3   OH281442   3.285   1.842   0.326 -0.5152 -0.0054  0.1796
19984TIP3    H181443   3.195   1.848   0.294 -0.6124  2.7335  0.8297
19984TIP3    H281444   3.277   1.817   0.418 -0.6261  0.3332  0.2626
19985TIP3   OH281445   1.711   3.275   2.472 -0.0021  0.1266 -0.9290
19985TIP3    H181446   1.641   3.310   2.418  0.9643 -0.3506 -2.5482
19985TIP3    H281447   1.703   3.320   2.556 -1.0970  1.4063 -1.7124
19986TIP3   OH281448   0.299   1.220   7.117 -0.0270 -0.6362 -0.0886
19986TIP3    H181449   0.316   1.186   7.205  2.1819  0.1751 -0.1598
19986TIP3    H281450   0.341   1.306   7.117  0.1524 -0.7138 -2.0120
19987TIP3   OH281451   0.485   5.876   5.081  0.1556 -0.2465  0.0911
19987TIP3    H181452   0.537   5.830   5.016  0.0697 -1.0110  0.5591
19987TIP3    H281453   0.395   5.849   5.064 -0.1638  1.4052 -0.9947
19988TIP3   OH281454   0.305   5.019  13.684  0.0078  0.3201  0.4032
19988TIP3    H181455   0.291   4.990  13.774 -1.2576  1.0739  0.4509
19988TIP3    H281456   0.288   5.113  13.686 -0.5781  0.2416 -0.7382
19989TIP3   OH281457   5.235   1.048  16.506 -0.0650  0.6473 -0.1390
19989TIP3    H181458   5.188   1.053  16.422  0.4324  0.0275 -0.4638
19989TIP3    H281459   5.179   1.094  16.568  0.0731  2.0634 -1.0336
19990TIP3   OH281460   5.279   2.229   5.856  0.1785 -0.1805 -0.3097
19990TIP3    H181461   5.233   2.252   5.937  0.1994 -1.6533  0.1257
19990TIP3    H281462   5.294   2.313   5.813 -0.7133  0.5304  0.7389
19991TIP3   OH281463   3.322   6.660   1.546 -0.4085 -0.0807  0.3630
19991TIP3    H181464   3.381   6.584   1.547  0.0404  0.1664 -2.4796
19991TIP3    H281465   3.270   6.649   1.466 -0.3516  2.5830 -0.0971
19992TIP3   OH281466   5.799   6.813  12.069  0.3684  0.2954  0.2599
19992TIP3    H181467   5.816   6.789  12.160  0.6512  0.7577  0.3281
19992TIP3    H281468   5.838   6.899  12.058  0.1203  0.3506 -0.2334
19993TIP3   OH281469   2.432   2.534   7.075 -0.0225  0.7611 -0.1044
19993TIP3    H181470   2.348   2.488   7.082 -1.0093  2.4542 -0.5301
19993TIP3    H281471   2.414   2.622   7.107  1.5430  1.2143 -0.4218
19994TIP3   OH281472   2.397   3.989  15.452 -0.0661 -0.0723 -0.1912
19994TIP3    H181473   2.461   4.006  15.521 -1.4136 -1.5662  1.4993
19994TIP3    H281474   2.423   4.046  15.380  0.1910  3.0966  2.2990
19995TIP3   OH281475   6.143   1.965   6.066 -0.1754 -0.6600  0.8461
19995TIP3    H181476   6.221   1.954   6.120  0.2243  2.3680  1.0032
19995TIP3    H281477   6.143   2.058   6.043 -1.9515 -1.2873 -1.9322
19996TIP3   OH281478   5.778   0.066  15.319  0.2640 -0.0575 -0.3542
19996TIP3    H181479   5.765  -0.029  15.323 -1.7686  0.2678  1.3271
19996TIP3    H281480   5.854   0.082  15.376 -1.2055 -0.3879  1.7531
19997TIP3   OH281481   5.237   6.766  15.567  0.2821  0.1444 -0.1813
19997TIP3    H181482   5.331   6.752  15.582  0.4477  0.2972 -1.0840
19997TIP3    H281483   5.203   6.790  15.653  1.1305  0.3944  0.0899
19998TIP3   OH281484   6.043   2.348  10.629  0.5485  0.9078  0.8039
19998TIP3    H181485   5.968   2.402  10.656 -2.3081  0.5472 -5.5906
19998TIP3    H281486   6.011   2.258  10.638  1.6467  0.5887  1.6408
19999TIP3   OH281487   2.101   2.169   0.509  0.4857  0.0191 -0.0207
19999TIP3    H181488   2.111   2.078   0.481 -1.1024 -0.0433 -0.4291
19999TIP3    H281489   2.084   2.217   0.428 -0.8618  0.3287  0.4251
20000TIP3   OH281490   3.803   0.246   4.603 -0.6585  0.4369 -0.0437
20000TIP3    H181491   3.764   0.170   4.561 -0.9080  0.3622  0.3164
20000TIP3    H281492   3.868   0.278   4.540  0.2898 -0.7842  0.2893
20001TIP3   OH281493   1.572   1.629  14.040  0.2027 -0.2432 -0.0006
20001TIP3    H181494   1.491   1.658  13.998  1.3273  0.5369 -1.6228
20001TIP3    H281495   1.634   1.700  14.027  0.9998 -0.5825  1.7597
20002TIP3   OH281496   0.292   5.141  13.925  0.4915  0.0426  0.2235
20002TIP3    H181497   0.245   5.219  13.953 -0.7962  0.0196 -1.7342
20002TIP3    H281498   0.382   5.171  13.909  0.2398  0.9112  0.4219
20003TIP3   OH281499   3.424   1.416   4.326 -0.0631 -0.1075  0.1134
20003TIP3    H181500   3.409   1.322   4.336 -0.4647 -0.0115  0.4119
20003TIP3    H281501   3.500   1.434   4.382  0.3203 -0.3463 -0.3355
20004TIP3   OH281502   5.550   1.203   5.921  0.1280  0.7669  0.2160
20004TIP3    H181503   5.541   1.298   5.919  0.0452  0.7418 -0.7101
20004TIP3    H281504   5.639   1.186   5.889 -0.1225  0.4943 -0.3381
20005TIP3   OH281505   2.520   6.780   0.340 -0.3793 -0.5998 -0.6110
20005TIP3    H181506   2.596   6.750   0.290 -0.8141 -2.2379 -0.3199
20005TIP3    H281507   2.484   6.852   0.288  1.3712  0.2183 -0.7383
20006TIP3   OH281508   3.696   1.801   4.878 -0.4018 -0.4722  0.1070
20006TIP3    H181509   3.772   1.747   4.857 -0.3813  0.2560 -1.7582
20006TIP3    H281510   3.687   1.794   4.973  2.1954 -0.2737  0.3764
20007TIP3   OH281511   2.622   1.260  11.674  0.4039 -0.4110  0.3262
20007TIP3    H181512   2.646   1.272  11.766 -0.0816  0.3782  0.3548
20007TIP3    H281513   2.541   1.311  11.664  0.7459 -0.0663 -0.6695
20008TIP3   OH281514   5.465   4.147   1.396  0.2125 -0.1912  0.1389
20008TIP3    H181515   5.437   4.059   1.423  1.2100 -0.6694 -0.3565
20008TIP3    H281516   5.530   4.172   1.462 -0.0101  0.1446  0.2316
20009TIP3   OH281517   4.493   5.384  15.951 -0.9079 -0.2819 -0.2923
20009TIP3    H181518   4.499   5.288  15.960  0.5641 -0.0179  2.0751
20009TIP3    H281519   4.417   5.408  16.002 -1.5374 -0.2157 -1.2541
20010TIP3   OH281520   5.347   2.460  12.493  0.3901 -0.1420  0.1658
20010TIP3    H181521   5.341   2.509  12.411 -0.2123  2.5496  1.7526
20010TIP3    H281522   5.428   2.492  12.534  0.5998 -1.3305  0.7069
20011TIP3   OH281523   4.162   3.204  14.050 -0.6296  0.0013  0.1443
20011TIP3    H181524   4.137   3.192  14.141 -1.0211  0.5661  0.1090
20011TIP3    H281525   4.223   3.132  14.032 -0.6747 -0.1972  0.8021
20012TIP3   OH281526   1.325   4.730  13.530  0.2283  0.2532  0.0158
20012TIP3    H181527   1.390   4.712  13.598  0.8105  1.0264 -0.3203
20012TIP3    H281528   1.373   4.722  13.448 -0.5398 -0.9407 -0.3187
20013TIP3   OH281529   3.226   1.095   0.065 -0.1025  0.3362 -1.0665
20013TIP3    H181530   3.228   1.072   0.158  0.3162  1.1994 -0.8552
20013TIP3    H281531   3.297   1.158   0.055 -0.5884  0.7645 -1.8368
20014TIP3   OH281532   0.080   3.538   1.314 -0.6740 -0.4682 -0.0123
20014TIP3    H181533   0.158   3.573   1.272 -0.8848  0.1980  0.1571
20014TIP3    H281534   0.083   3.444   1.294 -0.0192 -0.3891 -0.3017
20015TIP3   OH281535   4.950   3.539   4.727 -0.3821 -0.4175 -0.1733
20015TIP3    H181536   5.003   3.595   4.670 -0.1856 -0.2370  0.1832
20015TIP3    H281537   5.015   3.488   4.776 -0.5627 -0.9981 -0.5414
20016TIP3   OH281538   4.818   4.696   1.623  0.1924 -0.7215  0.3115
20016TIP3    H181539   4.842   4.698   1.715 -0.1390 -0.8161  0.4017
20016TIP3    H281540   4.729   4.733   1.621  0.4860 -0.0194 -0.0610
20017TIP3   OH281541   5.422   4.333   4.982 -0.1286  0.5135  0.3894
20017TIP3    H181542   5.518   4.330   4.990  0.0504  0.3182 -1.5827
20017TIP3    H281543   5.396   4.241   4.974 -0.5765  0.5080  1.8302
20018TIP3   OH281544   6.462   2.660  14.711 -0.0095  0.2726 -0.2051
20018TIP3    H181545   6.483   2.695  14.798  0.0315  0.0116 -0.1095
20018TIP3    H281546   6.519   2.707  14.651  0.2142  0.2002 -0.0485
20019TIP3   OH281547   2.778   1.761  15.443 -0.0739 -0.4320 -0.4117
20019TIP3    H181548   2.836   1.688  15.423  0.2479 -0.5640  0.9194
20019TIP3    H281549   2.769   1.809  15.361  1.8997 -0.4243 -0.6493
20020TIP3   OH281550   2.058   2.114  15.983  0.2815 -0.4270  0.3604
20020TIP3    H181551   2.070   2.021  16.000  0.1301 -0.6786 -0.8349
20020TIP3    H281552   2.065   2.122  15.887  0.6945  0.8441  0.4829
20021TIP3   OH281553   3.975   6.678   6.149  0.3687  0.2528 -0.0969
20021TIP3    H181554   3.985   6.664   6.055  0.4384  0.6708 -0.1494
20021TIP3    H281555   3.961   6.772   6.158 -1.6714 -0.0576  0.1394
20022TIP3   OH281556   2.321   5.313  14.685  0.7354  0.3940  0.0527
20022TIP3    H181557   2.271   5.232  14.688  0.8430  0.2578 -1.7942
20022TIP3    H281558   2.402   5.290  14.641 -0.2250  2.0085 -2.6593
20023TIP3   OH281559   0.684   5.653  14.497  0.1420  0.4312  0.4835
20023TIP3    H181560   0.597   5.618  14.518  0.3095  0.6475  1.5540
20023TIP3    H281561   0.666   5.732  14.447 -0.2752  0.4384  0.6400
20024TIP3   OH281562   3.058   3.839  17.075  0.1449  0.3536 -0.3638
20024TIP3    H181563   3.006   3.760  17.087 -0.6657  0.6756 -1.6758
20024TIP3    H281564   3.094   3.858  17.162 -1.0978 -0.4473  0.3248
20025TIP3   OH281565   3.649   2.421  15.498  0.4683 -0.4401 -0.4037
20025TIP3    H181566   3.697   2.500  15.524  1.6199 -1.0622 -0.5925
20025TIP3    H281567   3.582   2.452  15.437 -0.4310  0.6597  1.1135
20026TIP3   OH281568   0.192   4.572  15.702 -0.6375  0.0519 -0.0837
20026TIP3    H181569   0.118   4.546  15.758 -1.2410 -1.2852 -1.4585
20026TIP3    H281570   0.154   4.583  15.615  0.2863  2.1731 -0.2316
20027TIP3   OH281571   0.884   2.681   1.527  0.0340 -0.3936  0.0800
20027TIP3    H181572   0.872   2.668   1.621 -1.2767  1.5583  0.2006
20027TIP3    H281573   0.799   2.661   1.489  0.5787 -1.2498 -0.7142
20028TIP3   OH281574   1.096   4.525   3.040 -0.3594  0.1187 -0.1511
20028TIP3    H181575   1.017   4.511   2.989 -2.4511 -0.2941  3.1155
20028TIP3    H281576   1.130   4.437   3.057  0.9049  0.2926 -1.5730
20029TIP3   OH281577   5.899   4.081   6.375 -0.8232  0.4602 -0.1987
20029TIP3    H181578   5.816   4.107   6.416 -3.1381 -2.4850 -2.8081
20029TIP3    H281579   5.913   3.991   6.404  0.7233  0.4542 -0.9221
20030TIP3   OH281580   4.162   0.763  12.561  0.4810  0.3727  0.5769
20030TIP3    H181581   4.123   0.753  12.648  2.1214 -2.6744  1.0492
20030TIP3    H281582   4.116   0.698  12.507  2.3977 -0.7939  0.2828
20031TIP3   OH281583   5.159   5.469  17.071  0.4437 -0.1119 -1.0877
20031TIP3    H181584   5.117   5.424  17.144  0.5093 -0.3938 -1.2234
20031TIP3    H281585   5.088   5.518  17.029  0.1707 -0.9135 -1.5620
20032TIP3   OH281586   2.757   6.612  11.982 -0.3293  0.3050 -0.1996
20032TIP3    H181587   2.771   6.622  12.076 -2.9158  0.8447  0.1545
20032TIP3    H281588   2.738   6.519  11.969  0.0615  0.2241 -0.2250
20033TIP3   OH281589   0.009   2.818   5.944 -0.1239 -0.4842  0.3911
20033TIP3    H181590  -0.046   2.880   5.896  1.3650 -0.5328 -1.4193
20033TIP3    H281591  -0.034   2.733   5.931 -0.3934 -0.3162  0.1860
20034TIP3   OH281592   1.590   4.225  12.433 -0.1291 -0.2384 -0.5421
20034TIP3    H181593   1.519   4.160  12.430 -1.7519  1.4232  1.0614
20034TIP3    H281594   1.572   4.282  12.359  0.7276 -1.0234 -1.3601
20035TIP3   OH281595   5.930   2.460  12.196 -0.0882  0.3658  0.4757
20035TIP3    H181596   5.952   2.546  12.160 -1.5187  0.6191  0.1466
20035TIP3    H281597   5.969   2.459  12.283 -1.5546  2.0727  1.2027
20036TIP3   OH281598   6.238   5.153   2.905 -0.0263  0.2379  0.0615
20036TIP3    H181599   6.158   5.171   2.954 -0.9205 -0.2800 -1.1764
20036TIP3    H281600   6.255   5.233   2.856  0.9094  0.7829  1.2489
20037TIP3   OH281601   1.201   5.417  15.950 -0.0532  0.4387  0.1844
20037TIP3    H181602   1.177   5.345  16.008  0.4595 -1.5063 -1.9330
20037TIP3    H281603   1.119   5.460  15.930 -1.0330 -2.2109 -1.8857
20038TIP3   OH281604   2.060   1.599  12.824 -0.2704 -0.2352 -0.3203
20038TIP3    H181605   2.141   1.646  12.847 -0.7484  0.8798 -0.9017
20038TIP3    H281606   2.091   1.516  12.789  0.6179  0.0155 -0.1636
20039TIP3   OH281607   2.415   4.759  14.625 -0.1441  0.0472  0.4170
20039TIP3    H181608   2.323   4.733  14.632 -0.8127  1.9783 -0.9002
20039TIP3    H281609   2.412   4.850  14.596  2.2125 -1.0135 -3.4950
20040TIP3   OH281610   5.335   3.598  12.819  0.0002 -0.2211  0.1597
20040TIP3    H181611   5.249   3.623  12.852 -0.1842 -0.1849 -0.3334
20040TIP3    H281612   5.355   3.516  12.863  0.0984  0.2178  0.9282
20041TIP3   OH281613   5.338   5.909  14.893 -0.0391 -0.6650 -0.3016
20041TIP3    H181614   5.414   5.870  14.849  0.9804  0.4900  0.4078
20041TIP3    H281615   5.358   6.002  14.897 -1.0397 -0.4902  0.8306
20042TIP3   OH281616   4.837   2.680  15.377  0.2057 -0.0661  0.5066
20042TIP3    H181617   4.803   2.630  15.451 -1.7593  1.2375  0.5229
20042TIP3    H281618   4.759   2.711  15.331  1.4041  0.2214 -1.3778
20043TIP3   OH281619   6.751   4.956  16.051  0.1865  0.7038 -0.4612
20043TIP3    H181620   6.768   4.929  16.141  1.7487 -0.9911 -1.2297
20043TIP3    H281621   6.656   4.967  16.046  0.0542  0.4350  1.2665
20044TIP3   OH281622   1.821   6.287   1.459 -0.0786 -0.0310  0.0906
20044TIP3    H181623   1.754   6.351   1.483  0.4228  0.5561 -0.0554
20044TIP3    H281624   1.889   6.339   1.415  0.9886 -0.4547  1.2202
20045TIP3   OH281625   1.225   6.245   4.968  0.2699 -0.6975  0.4645
20045TIP3    H181626   1.217   6.296   4.887  0.7303 -0.3090  0.6635
20045TIP3    H281627   1.160   6.175   4.959 -0.1311 -0.2730  0.0424
20046TIP3   OH281628   3.847   6.110   0.471 -0.2360  0.1147 -0.2935
20046TIP3    H181629   3.913   6.136   0.535 -0.9836 -0.8495  0.8998
20046TIP3    H281630   3.873   6.022   0.444 -1.5239 -0.6492  0.8858
20047TIP3   OH281631   6.750   0.889  10.672 -0.2053 -0.0522 -0.0984
20047TIP3    H181632   6.682   0.822  10.685 -1.4587  1.0963 -0.7056
20047TIP3    H281633   6.816   0.845  10.620 -0.8379 -0.9506 -0.1654
20048TIP3   OH281634   4.908   2.356   0.196  0.1984  0.2302  0.2796
20048TIP3    H181635   4.986   2.377   0.144 -1.1299  0.5582 -1.6265
20048TIP3    H281636   4.835   2.361   0.133 -1.1997 -1.4278  1.7146
20049TIP3   OH281637   2.070   3.933   2.953 -0.1637 -0.0556 -0.5834
20049TIP3    H181638   2.129   3.866   2.988  1.0589  0.5706 -1.4199
20049TIP3    H281639   2.076   3.923   2.858 -0.3042  0.9517 -0.7003
20050TIP3   OH281640   6.507   3.732  11.871  0.1827  0.9098  0.3371
20050TIP3    H181641   6.469   3.662  11.925  0.0634  0.9654  0.3248
20050TIP3    H281642   6.433   3.787  11.848 -0.0921 -0.1680 -1.4640
20051TIP3   OH281643   1.508   6.749   1.772  0.3193 -0.3676 -0.3840
20051TIP3    H181644   1.561   6.677   1.737  0.3869 -0.4148 -0.1877
20051TIP3    H281645   1.530   6.825   1.718  2.2122  0.1447  1.0574
20052TIP3   OH281646   6.802   5.994   4.394 -0.7228  0.4854 -0.0649
20052TIP3    H181647   6.789   6.088   4.400 -0.2194  0.4886  1.1055
20052TIP3    H281648   6.892   5.983   4.365  0.3075  0.3546  3.0033
20053TIP3   OH281649   2.987   6.193   1.913  0.3674  0.4187 -0.3626
20053TIP3    H181650   2.949   6.121   1.864  0.0761  1.9284 -2.4345
20053TIP3    H281651   3.081   6.177   1.912  0.2772 -0.0846 -0.5939
20054TIP3   OH281652   5.833   1.814   5.454 -0.2465 -0.2481  0.1550
20054TIP3    H181653   5.743   1.781   5.459 -0.7337  0.4607 -2.9982
20054TIP3    H281654   5.883   1.741   5.416 -0.1761  0.5213 -1.2730
20055TIP3   OH281655   4.728   5.497  15.426 -0.0051 -0.3271  0.2280
20055TIP3    H181656   4.807   5.448  15.404  0.1598 -1.0414  2.2841
20055TIP3    H281657   4.667   5.432  15.459 -1.3387  0.2754 -1.0280
20056TIP3   OH281658   5.265   0.245   0.879 -0.5729 -0.4251  0.4546
20056TIP3    H181659   5.252   0.225   0.787  0.2363  1.6098 -0.1325
20056TIP3    H281660   5.333   0.313   0.879 -0.9135 -0.0563  2.5105
20057TIP3   OH281661   4.717   5.338   3.399 -0.2002  0.2441 -0.0726
20057TIP3    H181662   4.656   5.385   3.342 -1.4391  0.5438  1.4620
20057TIP3    H281663   4.742   5.401   3.466  1.3173 -0.0743 -0.3100
20058TIP3   OH281664   2.620   2.841   3.931 -0.0798 -0.6637  0.1606
20058TIP3    H181665   2.540   2.793   3.951 -0.8814 -0.0571 -1.4754
20058TIP3    H281666   2.682   2.814   3.998 -2.0887 -0.0774  2.3448
20059TIP3   OH281667   2.400   2.570   6.589 -0.0670 -0.3450 -0.2952
20059TIP3    H181668   2.427   2.593   6.678  0.2915  1.5545 -0.8614
20059TIP3    H281669   2.439   2.638   6.534 -2.7145  0.2006 -1.5756
20060TIP3   OH281670   6.530   3.255  15.524 -0.2840  0.1666  0.2888
20060TIP3    H181671   6.597   3.206  15.572 -1.8571 -0.5390  1.8284
20060TIP3    H281672   6.447   3.220  15.556 -1.4073  1.3316 -1.2565
20061TIP3   OH281673   1.777   5.907   2.432 -0.2345  0.0845 -0.3583
20061TIP3    H181674   1.764   5.941   2.344 -0.5469 -0.2662 -0.4511
20061TIP3    H281675   1.691   5.872   2.457  0.2752 -1.3795 -0.5967
20062TIP3   OH281676   6.413   3.850  10.819  0.1784 -0.0964 -0.6958
20062TIP3    H181677   6.372   3.764  10.818 -0.9603  0.4387 -1.3639
20062TIP3    H281678   6.402   3.884  10.730  0.2231  0.9107 -0.3329
20063TIP3   OH281679   4.290   1.188  15.427  0.1174 -0.0012  0.0099
20063TIP3    H181680   4.272   1.116  15.489  1.0402  0.0496  0.3502
20063TIP3    H281681   4.238   1.261  15.460 -0.7557 -0.4759 -0.2819
20064TIP3   OH281682   3.778   2.867  16.862 -0.1712  0.3863 -0.6487
20064TIP3    H181683   3.773   2.962  16.863  1.5046  0.5070 -1.7412
20064TIP3    H281684   3.726   2.839  16.938 -0.8709  2.1370 -0.4590
20065TIP3   OH281685   4.904   6.195  13.176 -0.1358  0.5365 -0.3250
20065TIP3    H181686   4.982   6.176  13.125 -0.6357  0.1100 -0.9390
20065TIP3    H281687   4.831   6.183  13.115 -0.6887  0.8352  0.2629
20066TIP3   OH281688   2.845   6.161  16.060  0.0797 -0.0778  0.4610
20066TIP3    H181689   2.764   6.119  16.089  0.3273 -0.7771  0.1679
20066TIP3    H281690   2.853   6.240  16.113 -0.5001 -0.3047  0.8796
20067TIP3   OH281691   1.769   2.663   3.068  0.6921 -0.3884 -0.2617
20067TIP3    H181692   1.796   2.745   3.110 -0.4339 -0.6823  1.0653
20067TIP3    H281693   1.816   2.662   2.985  0.7766  1.5715 -0.2558
20068TIP3   OH281694   3.180   3.055  17.094 -0.0839 -0.1502 -0.1455
20068TIP3    H181695   3.196   3.066  17.000  0.2135  2.2645  0.1585
20068TIP3    H281696   3.085   3.054  17.102 -0.1161  1.1957 -0.3175
20069TIP3   OH281697   3.979   4.744   1.629  0.0821 -0.0019  0.2052
20069TIP3    H181698   4.063   4.715   1.593  0.5222 -0.1594  1.3247
20069TIP3    H281699   3.977   4.707   1.717 -0.4208  1.3678  0.7881
20070TIP3   OH281700   2.059   4.755   0.968  0.1825  0.5859 -0.3620
20070TIP3    H181701   2.131   4.769   0.907  2.1708 -1.9549  1.2642
20070TIP3    H281702   2.072   4.820   1.037  1.4987 -0.4320  0.3761
20071TIP3   OH281703   0.127   0.457  14.035  0.8235 -0.0422 -0.0346
20071TIP3    H181704   0.125   0.400  13.959 -1.6534 -0.1428  0.0773
20071TIP3    H281705   0.107   0.545  14.001 -1.2381 -0.2464  0.6080
20072TIP3   OH281706   5.451   2.544   3.059  0.1857 -0.5847  0.0303
20072TIP3    H181707   5.424   2.503   2.977  1.4174 -0.6935 -0.3278
20072TIP3    H281708   5.504   2.478   3.103 -0.9025 -0.7168  1.1674
20073TIP3   OH281709   5.847   5.143   2.469  0.1001 -0.5517 -0.4331
20073TIP3    H181710   5.845   5.048   2.482  0.6362 -0.3752  1.0148
20073TIP3    H281711   5.892   5.177   2.546  0.4889  0.8315 -1.2535
20074TIP3   OH281712   2.102   2.155   1.702  0.0919 -0.4096  0.5554
20074TIP3    H181713   2.165   2.119   1.765  0.2637  0.0155  0.6305
20074TIP3    H281714   2.136   2.130   1.617 -0.8415 -2.1152  0.6766
20075TIP3   OH281715   4.412   3.936  10.790 -0.2214 -0.0906 -0.1714
20075TIP3    H181716   4.323   3.914  10.816 -0.4023 -0.1990 -0.8617
20075TIP3    H281717   4.403   3.976  10.703  0.3307  0.5872  0.0800
20076TIP3   OH281718   6.793   4.817   3.211  0.5497 -0.0268  0.3234
20076TIP3    H181719   6.752   4.856   3.287 -1.8153 -1.8033  0.0284
20076TIP3    H281720   6.760   4.868   3.137  1.3936  0.5430  0.3382
20077TIP3   OH281721   5.836   4.698  14.161  0.1080  0.1200  0.5766
20077TIP3    H181722   5.746   4.727  14.174  0.1004 -0.3479  1.5915
20077TIP3    H281723   5.889   4.772  14.189  0.0378  0.6820 -0.7438
20078TIP3   OH281724   5.822   2.118  16.441 -0.4028 -0.5597 -0.3698
20078TIP3    H181725   5.889   2.082  16.498 -1.4149  0.4375  1.5082
20078TIP3    H281726   5.811   2.208  16.471 -2.6571 -0.7484 -0.5088
20079TIP3   OH281727   6.422   1.562   1.786  0.1347 -0.1632 -0.1710
20079TIP3    H181728   6.383   1.640   1.827  0.1873  0.7572 -1.8443
20079TIP3    H281729   6.370   1.489   1.820 -0.6687  0.6993  0.4972
20080TIP3   OH281730   0.958   2.079   4.370 -0.5157  0.7257  0.4145
20080TIP3    H181731   0.934   2.171   4.366  0.0228  1.1087  3.9178
20080TIP3    H281732   0.876   2.034   4.393 -0.7714  0.3248 -1.2535
20081TIP3   OH281733   5.779   1.359   0.370  0.0432 -0.4571  0.2026
20081TIP3    H181734   5.724   1.282   0.361 -1.2138  0.3677  0.7022
20081TIP3    H281735   5.838   1.356   0.295 -0.0348 -1.8659  0.1952
20082TIP3   OH281736   6.699   2.564   5.206 -0.0624  0.0365 -0.2488
20082TIP3    H181737   6.650   2.483   5.189  0.9241 -0.7453  0.5866
20082TIP3    H281738   6.648   2.610   5.272 -0.1593 -0.3265 -0.0714
20083TIP3   OH281739   3.809   4.374  14.013  0.0169 -0.4430  0.7773
20083TIP3    H181740   3.775   4.324  14.087  1.9664 -0.1633  1.8843
20083TIP3    H281741   3.802   4.315  13.938 -2.2765 -0.6176  1.0728
20084TIP3   OH281742   2.753   2.501  16.754  0.1123 -0.0811  0.6120
20084TIP3    H181743   2.697   2.509  16.677  1.3752  0.2510 -0.2910
20084TIP3    H281744   2.716   2.562  16.818 -0.3658  0.3694 -0.0953
20085TIP3   OH281745   5.323   3.759   5.569  0.1722  0.2990  0.1022
20085TIP3    H181746   5.251   3.707   5.533 -2.6333  2.2735  2.6938
20085TIP3    H281747   5.320   3.842   5.521  0.9241  0.2908  0.0305
20086TIP3   OH281748   0.344   2.580   0.515  0.2543  0.1756  0.2046
20086TIP3    H181749   0.310   2.596   0.603 -0.2768  1.6144 -0.2451
20086TIP3    H281750   0.439   2.586   0.525  0.2313 -0.3978  0.8102
20087TIP3   OH281751   5.338   4.251   3.664 -0.0468 -0.0973  0.2898
20087TIP3    H181752   5.316   4.304   3.741 -1.8405  0.9415 -0.8901
20087TIP3    H281753   5.268   4.185   3.660  0.9075 -1.1196  0.4376
20088TIP3   OH281754   5.381   5.285   3.903 -0.5613 -0.2678 -0.3381
20088TIP3    H181755   5.373   5.373   3.939 -1.1376  0.1124 -1.3707
20088TIP3    H281756   5.452   5.245   3.953 -0.2377  0.8128  0.0808
20089TIP3   OH281757   6.546   6.439  12.249  0.4268 -0.3285  0.1422
20089TIP3    H181758   6.455   6.420  12.227  0.6384 -0.1916 -0.8663
20089TIP3    H281759   6.554   6.414  12.341 -0.2383 -1.7572 -0.1706
20090TIP3   OH281760   4.026   2.185   4.343  0.1357 -0.1676  0.2177
20090TIP3    H181761   4.088   2.205   4.412 -0.2643 -1.1357  0.8659
20090TIP3    H281762   3.982   2.268   4.325 -0.3584 -0.0852  1.7294
20091TIP3   OH281763   5.271   2.255  14.159 -0.1131 -0.3024 -0.2636
20091TIP3    H181764   5.235   2.172  14.128  0.8084 -0.4919 -0.8697
20091TIP3    H281765   5.254   2.317  14.088 -0.2299 -0.1272 -0.0838
20092TIP3   OH281766   6.174   6.816  12.895 -0.4447 -0.1969  0.1962
20092TIP3    H181767   6.124   6.895  12.876  1.1108  0.6402 -0.6057
20092TIP3    H281768   6.237   6.810  12.822  2.1317  0.0794  2.3158
20093TIP3   OH281769   4.308   5.696  10.699 -0.1595 -0.2840 -0.1961
20093TIP3    H181770   4.393   5.712  10.659  1.3082 -1.1387  2.4514
20093TIP3    H281771   4.244   5.723  10.633  2.1622  0.8060 -2.0409
20094TIP3   OH281772   5.024   4.263  11.073 -0.0475  0.1660  0.3743
20094TIP3    H181773   5.114   4.260  11.041  0.7387  2.2022  2.2740
20094TIP3    H281774   5.032   4.252  11.168 -1.7428  0.8605  0.6220
20095TIP3   OH281775   5.875   1.424  12.941  0.1600  0.4743  0.1718
20095TIP3    H181776   5.847   1.357  12.878  0.4510 -0.0356  0.5807
20095TIP3    H281777   5.935   1.480  12.892  1.3185 -0.6170  0.3088
20096TIP3   OH281778   1.534   1.215  15.832  0.1645 -0.6187 -0.3850
20096TIP3    H181779   1.518   1.124  15.806 -2.5770 -0.4485  0.5522
20096TIP3    H281780   1.450   1.258  15.821  1.0657  1.4603  0.6443
20097TIP3   OH281781   5.206   0.509  10.566  0.4160 -0.1938  0.7321
20097TIP3    H181782   5.238   0.457  10.492  1.3415  0.6084  0.5633
20097TIP3    H281783   5.274   0.501  10.632  0.7153  1.0717  0.5871
20098TIP3   OH281784   2.616   6.512  16.156 -0.1943  0.1267  0.1373
20098TIP3    H181785   2.705   6.479  16.173  0.7546  1.4645 -2.0238
20098TIP3    H281786   2.569   6.437  16.121 -0.1064 -0.7411  1.8196
20099TIP3   OH281787   5.074   3.969   4.617 -0.2765 -0.5600 -0.1828
20099TIP3    H181788   5.091   3.915   4.694 -2.7763 -2.2506 -0.7355
20099TIP3    H281789   5.131   3.933   4.549  2.0294  1.0219  0.8623
20100TIP3   OH281790   2.301   5.170  12.094  0.2610  0.4022 -0.4700
20100TIP3    H181791   2.219   5.123  12.075 -0.1497  1.0006 -0.1925
20100TIP3    H281792   2.369   5.113  12.060 -0.2249 -0.4654 -0.0048
20101TIP3   OH281793   2.112   4.418   4.452 -0.3473 -0.0424 -0.2280
20101TIP3    H181794   2.058   4.346   4.419 -1.6632  0.6020  0.4831
20101TIP3    H281795   2.056   4.495   4.446  0.2049  0.5008  1.2584
20102TIP3   OH281796   1.157   6.681  13.955 -0.0964 -0.3728 -0.0179
20102TIP3    H181797   1.106   6.711  13.880  1.9143  0.8211 -0.9500
20102TIP3    H281798   1.194   6.597  13.928 -1.0933 -0.9591  0.4393
20103TIP3   OH281799   2.331   2.523  13.263  0.7078 -0.5180  0.6840
20103TIP3    H181800   2.297   2.612  13.267  2.1355  0.0388  0.5413
20103TIP3    H281801   2.376   2.510  13.347 -0.9335 -1.7062  1.4158
20104TIP3   OH281802   1.053   1.541  11.381  0.2694  0.2216  0.0497
20104TIP3    H181803   0.996   1.467  11.361  1.6651 -0.4835 -1.3740
20104TIP3    H281804   1.004   1.591  11.447 -1.6528 -0.7718 -0.5739
20105TIP3   OH281805   4.596   4.506  10.913  0.1291 -0.4008  0.5281
20105TIP3    H181806   4.524   4.487  10.973 -0.1711 -2.8569 -0.5506
20105TIP3    H281807   4.623   4.420  10.880  1.2405  0.7717 -1.7452
20106TIP3   OH281808   0.862   0.544   1.693  0.3025 -0.4654 -0.4743
20106TIP3    H181809   0.957   0.544   1.693  0.3054 -1.1573  0.6364
20106TIP3    H281810   0.838   0.451   1.692 -0.3545 -0.3303  1.0837
20107TIP3   OH281811   3.560   1.343  12.935  0.0329 -0.4304 -0.0568
20107TIP3    H181812   3.600   1.429  12.944  0.0070 -0.4286  0.0439
20107TIP3    H281813   3.635   1.283  12.925  0.0932 -0.5056  0.7874
20108TIP3   OH281814   2.108   1.017   1.614  0.2122 -0.1223 -0.0908
20108TIP3    H181815   2.093   0.926   1.640 -0.9709 -0.6698 -2.5879
20108TIP3    H281816   2.070   1.068   1.685 -2.6126 -1.5782 -0.4942
20109TIP3   OH281817   0.181   3.168   4.773  0.6518  0.1017  0.1267
20109TIP3    H181818   0.158   3.170   4.681  1.0042 -0.4670  0.0238
20109TIP3    H281819   0.146   3.250   4.809 -0.4797 -0.2121 -0.2665
20110TIP3   OH281820   2.709   6.480  15.885 -0.0222  0.0105 -0.5118
20110TIP3    H181821   2.703   6.415  15.954  1.1152 -0.6819 -1.0514
20110TIP3    H281822   2.618   6.494  15.858 -0.4323 -0.0291  0.8125
20111TIP3   OH281823   1.751   2.937  16.885 -0.7834 -0.1355  0.2399
20111TIP3    H181824   1.739   2.882  16.808 -1.9179 -0.3443  0.5630
20111TIP3    H281825   1.724   3.025  16.856 -0.1024  0.0162  0.0666
20112TIP3   OH281826   0.249   0.269   1.255  0.2251 -0.2448  0.0905
20112TIP3    H181827   0.312   0.222   1.310  2.2057  1.1034 -0.9955
20112TIP3    H281828   0.232   0.210   1.182  2.2311  0.4459 -0.9525
20113TIP3   OH281829   3.034   4.592  10.983  0.1414  0.3332 -0.1964
20113TIP3    H181830   2.966   4.567  10.920 -0.8210 -0.4733  1.1407
20113TIP3    H281831   3.049   4.685  10.966  0.2214  0.0255 -1.9118
20114TIP3   OH281832   5.084   4.822  12.727  0.5505 -0.3360  0.3707
20114TIP3    H181833   5.017   4.807  12.661  1.1351  1.9968 -0.7878
20114TIP3    H281834   5.136   4.742  12.727 -0.5492 -1.0624 -0.7075
20115TIP3   OH281835   5.860   6.235   4.948  0.7264 -0.0324  0.1645
20115TIP3    H181836   5.771   6.242   4.982  0.8006  2.4416 -0.0299
20115TIP3    H281837   5.916   6.259   5.023  1.1619 -0.3269 -0.0627
20116TIP3   OH281838   5.887   6.075   0.428  0.6782  0.0420 -0.0392
20116TIP3    H181839   5.809   6.101   0.379 -0.6406  0.4449  2.2025
20116TIP3    H281840   5.921   5.999   0.380 -1.9934 -1.1072 -0.1876
20117TIP3   OH281841   4.964   5.320   3.254 -0.0098  0.1450 -0.8060
20117TIP3    H181842   4.899   5.297   3.320 -0.7265 -0.3349 -1.6737
20117TIP3    H281843   4.951   5.414   3.239 -1.0446 -0.1066 -1.5515
20118TIP3   OH281844   2.879   0.735   3.376  0.0804 -0.2351 -0.2812
20118TIP3    H181845   2.929   0.664   3.337 -0.3559  0.2504 -1.7713
20118TIP3    H281846   2.824   0.693   3.442 -0.4811 -1.3468 -1.4361
20119TIP3   OH281847   0.629   1.613   2.711  0.1515  0.4976  0.1705
20119TIP3    H181848   0.556   1.673   2.723  1.6714  2.7191 -1.2647
20119TIP3    H281849   0.620   1.581   2.621 -0.6504 -1.4721  0.9245
20120TIP3   OH281850   1.565   4.018  14.710  0.6009 -0.2633 -0.4884
20120TIP3    H181851   1.493   3.954  14.712  0.2370  0.1425 -0.5896
20120TIP3    H281852   1.585   4.027  14.617  0.7079 -0.2911 -0.4675
20121TIP3   OH281853   3.318   1.474  13.537 -0.5922 -0.1576 -0.4558
20121TIP3    H181854   3.232   1.485  13.577 -0.4029 -0.9357  0.1767
20121TIP3    H281855   3.307   1.506  13.447 -1.1628  1.0662  0.0466
20122TIP3   OH281856   2.643   0.844  14.895  0.2504 -0.2445  0.5924
20122TIP3    H181857   2.705   0.872  14.962  1.3744 -1.1868 -0.0327
20122TIP3    H281858   2.632   0.921  14.839  0.4047  0.1042  1.0382
20123TIP3   OH281859   1.538   0.292  14.180  0.2607 -0.2000 -0.3028
20123TIP3    H181860   1.577   0.321  14.097 -2.6961  0.5233 -1.5087
20123TIP3    H281861   1.536   0.371  14.234 -2.4960  0.6305 -1.4876
20124TIP3   OH281862   6.231   3.285  11.261  0.5205 -0.2747 -0.0447
20124TIP3    H181863   6.281   3.209  11.232 -0.3359 -0.8325 -0.0384
20124TIP3    H281864   6.250   3.291  11.355 -0.2302 -1.0950  0.1635
20125TIP3   OH281865   1.045   2.787  16.787 -0.0076 -0.0422 -0.3471
20125TIP3    H181866   1.017   2.822  16.702 -0.8593 -1.3728 -0.6236
20125TIP3    H281867   1.141   2.790  16.783 -0.0441  1.7168 -0.5729
20126TIP3   OH281868   1.953   1.714  13.820  0.5551  0.2373  0.4991
20126TIP3    H181869   2.009   1.750  13.888  1.3769  2.0879 -1.1076
20126TIP3    H281870   1.985   1.624  13.808  2.0161  0.7115  0.8146
20127TIP3   OH281871   0.319   1.594   0.554  0.2498 -0.4867 -0.0252
20127TIP3    H181872   0.306   1.531   0.483  1.8710 -0.6599 -0.1899
20127TIP3    H281873   0.253   1.661   0.540 -1.3540 -2.0382  0.0207
20128TIP3   OH281874   6.282   1.217  11.650  0.4121  0.0357 -0.6910
20128TIP3    H181875   6.349   1.168  11.697  1.4113  0.2292 -1.8862
20128TIP3    H281876   6.296   1.308  11.676 -0.1212 -0.0547 -0.0695
20129TIP3   OH281877   4.219   1.534  15.510  0.0157 -0.4023  0.2210
20129TIP3    H181878   4.292   1.511  15.568 -0.0542 -0.9627  0.0922
20129TIP3    H281879   4.261   1.578  15.436  0.2488 -0.8817  0.0608
20130TIP3   OH281880   6.131   6.127  13.938 -0.3136 -0.5186 -0.3297
20130TIP3    H181881   6.219   6.121  13.900 -0.4234  0.1761 -0.7216
20130TIP3    H281882   6.124   6.219  13.965 -1.5268 -0.1381 -1.8416
20131TIP3   OH281883   5.149   2.758   0.612  0.3971  0.2896 -0.0723
20131TIP3    H181884   5.094   2.683   0.589  1.0044 -0.0434 -0.4694
20131TIP3    H281885   5.180   2.791   0.528 -0.2695  1.2957  0.0759
20132TIP3   OH281886   0.036   1.972  11.655 -0.1950 -0.5418  0.4091
20132TIP3    H181887   0.009   1.962  11.747  1.4127 -1.9157  0.7585
20132TIP3    H281888  -0.013   1.905  11.608 -2.2898  1.2461 -0.0504
20133TIP3   OH281889   3.985   2.131  13.271  0.4141 -0.2472  0.2307
20133TIP3    H181890   3.902   2.082  13.275  0.9634 -1.1847  0.4296
20133TIP3    H281891   4.051   2.064  13.251  1.4335  0.1226  2.2675
20134TIP3   OH281892   5.252   2.690  15.488  0.6688 -0.2800  0.0301
20134TIP3    H181893   5.306   2.611  15.493 -0.0102 -0.9012 -1.7382
20134TIP3    H281894   5.282   2.734  15.408  1.4644  1.5979  1.3244
20135TIP3   OH281895   6.032   2.651  12.910 -0.4516  0.2607  0.2005
20135TIP3    H181896   6.113   2.675  12.866  0.8233  0.2217  2.4453
20135TIP3    H281897   6.043   2.558  12.931 -0.4121  0.6158  1.8400
20136TIP3   OH281898   5.244   3.284  10.926  0.1112  0.0129  0.0263
20136TIP3    H181899   5.193   3.326  10.856  1.5559  1.7953 -0.0050
20136TIP3    H281900   5.290   3.213  10.882 -1.1306 -0.6244 -0.2587
20137TIP3   OH281901   4.530   4.630  14.637 -0.0316 -0.0002 -0.6322
20137TIP3    H181902   4.509   4.546  14.678  1.9669  0.3749  1.1909
20137TIP3    H281903   4.507   4.696  14.702 -0.9612  0.8586 -1.8023
20138TIP3   OH281904   1.404   2.007   6.357  0.2471 -0.6137 -0.1175
20138TIP3    H181905   1.386   2.037   6.267 -0.7295 -2.8714 -0.7213
20138TIP3    H281906   1.357   2.069   6.412  0.2141  0.3528 -1.2029
20139TIP3   OH281907   3.220   5.473   1.444  0.0491  0.0442  0.0879
20139TIP3    H181908   3.261   5.459   1.359  0.1828 -1.3593  0.3838
20139TIP3    H281909   3.148   5.534   1.425 -1.4908 -2.1685 -1.4821
20140TIP3   OH281910   0.508   6.156  16.080 -0.0919  0.6888 -0.6634
20140TIP3    H181911   0.562   6.146  16.001 -1.6154  0.8755 -1.7573
20140TIP3    H281912   0.535   6.084  16.137  0.7811  0.3463 -1.4891
20141TIP3   OH281913   5.878   5.125  16.247  0.0262 -0.0471  0.0930
20141TIP3    H181914   5.841   5.113  16.160 -0.5148 -2.2452  0.6097
20141TIP3    H281915   5.816   5.183  16.292 -1.8354 -2.2029  0.3423
20142TIP3   OH281916   4.034   1.003   5.155  0.3065 -0.0827 -0.1362
20142TIP3    H181917   3.966   0.940   5.178  0.7008 -0.2329  0.6222
20142TIP3    H281918   4.022   1.075   5.217  0.5537  0.0943 -0.2921
20143TIP3   OH281919   1.770   2.574   0.348 -0.2773  0.0052 -0.3684
20143TIP3    H181920   1.682   2.537   0.352 -0.6079  0.9578  1.3446
20143TIP3    H281921   1.785   2.590   0.254 -0.5368 -3.3618 -1.0791
20144TIP3   OH281922   6.326   4.515  14.364  0.3470  0.6912  0.5255
20144TIP3    H181923   6.378   4.549  14.292 -0.7446 -0.3400 -0.7695
20144TIP3    H281924   6.384   4.454  14.410  0.2990 -0.4806 -0.9257
20145TIP3   OH281925   0.262   4.871   4.441  0.3249  0.1307 -0.0222
20145TIP3    H181926   0.213   4.789   4.440 -1.1434  0.9861  0.1085
20145TIP3    H281927   0.302   4.874   4.528  0.4550 -0.4837 -0.0600
20146TIP3   OH281928   3.952   1.338   2.449  0.8483  0.2871  0.3388
20146TIP3    H181929   3.951   1.337   2.354  1.1801 -0.0195  0.3391
20146TIP3    H281930   3.904   1.418   2.473 -0.6131 -0.4569 -0.0521
20147TIP3   OH281931   1.538   0.644   2.459 -0.1534  0.3843 -0.2035
20147TIP3    H181932   1.583   0.691   2.529  1.6457 -0.6877 -0.6432
20147TIP3    H281933   1.561   0.692   2.380 -1.8830  1.3670 -0.1524
20148TIP3   OH281934   3.111   3.695  15.809  0.4168 -0.3894 -0.3968
20148TIP3    H181935   3.022   3.726  15.824  0.3970  0.4738 -2.0820
20148TIP3    H281936   3.137   3.653  15.891 -1.4355 -0.4112  0.1964
20149TIP3   OH281937   0.671   3.978  13.365 -0.1935 -0.1050  0.1697
20149TIP3    H181938   0.603   3.979  13.298 -0.6242  0.0562  0.6052
20149TIP3    H281939   0.633   3.928  13.437  0.3924 -0.5629  0.1597
20150TIP3   OH281940   2.064   3.275  12.495  0.1360  0.2346 -0.4666
20150TIP3    H181941   1.979   3.259  12.455  0.0351 -2.6398  0.7783
20150TIP3    H281942   2.126   3.231  12.437  0.5658  0.7287 -0.3779
20151TIP3   OH281943   6.580   4.696   1.523  0.9379 -0.2259  0.0283
20151TIP3    H181944   6.647   4.704   1.455  0.0634  1.2398 -0.6815
20151TIP3    H281945   6.545   4.607   1.513  0.5217  0.1251 -1.7158
20152TIP3   OH281946   1.996   0.864  12.822 -0.5599  0.1132  0.1811
20152TIP3    H181947   2.054   0.884  12.748  0.5582 -0.3572  0.9080
20152TIP3    H281948   2.010   0.936  12.883  0.4124 -0.7378  1.0091
20153TIP3   OH281949   5.477   3.523   2.757  0.0871  0.3319 -0.0914
20153TIP3    H181950   5.481   3.518   2.852  0.2691  0.7151 -0.0785
20153TIP3    H281951   5.547   3.584   2.733 -0.0862  0.3906 -0.4520
20154TIP3   OH281952   4.079   3.696  15.962 -0.0411  0.0293  0.1107
20154TIP3    H181953   4.048   3.652  16.041 -0.9966  1.0089  0.3011
20154TIP3    H281954   4.027   3.657  15.891  0.8606 -0.8946 -0.0538
20155TIP3   OH281955   1.967   5.074   3.230  0.4402 -0.5031  0.4623
20155TIP3    H181956   1.900   5.132   3.193 -0.6905 -1.2555  1.2841
20155TIP3    H281957   1.922   5.027   3.301  2.1310 -0.2262  1.7692
20156TIP3   OH281958   2.676   2.651  17.003 -0.1999 -0.1611  0.1540
20156TIP3    H181959   2.622   2.578  17.033  1.2995 -1.3749 -0.0660
20156TIP3    H281960   2.613   2.711  16.963 -1.4774 -1.2708  0.4384
20157TIP3   OH281961   1.615   1.200  14.036  0.0924 -0.5182  0.3033
20157TIP3    H181962   1.554   1.238  14.100  0.5399 -1.2738  1.1835
20157TIP3    H281963   1.561   1.188  13.958 -0.0039  2.1286 -0.0777
20158TIP3   OH281964   0.408   3.377  14.508  0.5650  0.1116  0.0050
20158TIP3    H181965   0.351   3.307  14.539 -0.0977  1.2467  1.4001
20158TIP3    H281966   0.374   3.399  14.421 -0.5446  0.1346  0.4387
20159TIP3   OH281967   0.535   5.052  16.137  0.1425 -0.1763  0.3644
20159TIP3    H181968   0.524   4.967  16.181 -3.2021 -0.7297 -1.4144
20159TIP3    H281969   0.531   5.031  16.044 -0.2981  1.8932 -0.0928
20160TIP3   OH281970   5.519   4.249  12.011  0.4515 -0.0971 -0.0629
20160TIP3    H181971   5.551   4.174  12.060  1.7619  1.8135  2.0931
20160TIP3    H281972   5.585   4.264  11.943 -0.2645 -1.3930 -1.0795
20161TIP3   OH281973   5.422   3.455   6.536 -0.0556  0.3834 -0.1472
20161TIP3    H181974   5.448   3.519   6.602 -2.1745 -1.3058  2.4253
20161TIP3    H281975   5.342   3.491   6.498  0.0125  0.3357 -0.3405
20162TIP3   OH281976   0.206   2.604   0.280 -0.0742  0.3851  0.2742
20162TIP3    H181977   0.251   2.586   0.197 -0.6715 -0.2167  0.0775
20162TIP3    H281978   0.268   2.577   0.347 -0.0293 -0.1844  0.0057
20163TIP3   OH281979   3.647   4.012   5.139  0.3621  0.1903 -0.1572
20163TIP3    H181980   3.642   4.108   5.143 -0.1570  0.2295 -1.6340
20163TIP3    H281981   3.574   3.986   5.084 -1.3324 -1.2917  2.6576
20164TIP3   OH281982   0.196   2.951  12.980  0.4354  0.6851 -0.3964
20164TIP3    H181983   0.159   3.038  12.992 -2.3434 -0.2965 -1.6152
20164TIP3    H281984   0.123   2.897  12.951  1.5513 -2.6277  2.5900
20165TIP3   OH281985   2.777   3.379  13.646  0.1989  0.4560  1.0973
20165TIP3    H181986   2.715   3.439  13.603  0.0427 -0.4274  0.0681
20165TIP3    H281987   2.850   3.373  13.585  1.0019  0.9635  2.0054
20166TIP3   OH281988   5.286   4.431   3.876  0.0637 -0.2539  0.0899
20166TIP3    H181989   5.344   4.374   3.927  1.1211  1.5351  0.9571
20166TIP3    H281990   5.206   4.437   3.929  0.1234 -0.5933  0.2172
20167TIP3   OH281991   6.649   2.870   1.010 -0.4916 -0.0988 -0.4590
20167TIP3    H181992   6.606   2.785   1.015 -0.9784  0.1312 -0.6266
20167TIP3    H281993   6.742   2.850   1.009 -0.5849 -0.5775  0.4772
20168TIP3   OH281994   5.025   4.475   5.391  0.0377 -0.3287 -0.4755
20168TIP3    H181995   5.031   4.423   5.472 -0.2522 -1.1670 -0.9824
20168TIP3    H281996   4.996   4.561   5.420 -3.4015 -1.5445 -0.0201
20169TIP3   OH281997   2.222   5.713  12.155 -0.6003 -0.5179 -0.6169
20169TIP3    H181998   2.277   5.690  12.081 -1.3685 -0.2888 -1.2640
20169TIP3    H281999   2.269   5.679  12.231  1.4715  1.4913 -0.9476
20170TIP3   OH282000   3.283   6.525  12.480 -0.2384  0.3209  0.1875
20170TIP3    H182001   3.312   6.613  12.455 -2.3732  0.8025 -0.7216
20170TIP3    H282002   3.230   6.495  12.406  1.0728 -2.0547  0.1646
20171TIP3   OH282003   6.218   0.866   4.018  1.0335  0.2278 -0.5173
20171TIP3    H182004   6.300   0.906   3.990  1.8820 -1.5350 -0.6117
20171TIP3    H282005   6.242   0.777   4.044 -0.4016  0.5033  1.9133
20172TIP3   OH282006   5.212   3.981   5.388 -0.1470  0.3501  0.4585
20172TIP3    H182007   5.121   4.006   5.403 -0.2209 -1.2320  2.9219
20172TIP3    H282008   5.263   4.054   5.422 -0.4606 -0.3683  2.5401
20173TIP3   OH282009   1.620   0.005  12.056  0.2357  0.0161 -0.5205
20173TIP3    H182010   1.660   0.026  12.141  2.1836 -2.4057 -0.7714
20173TIP3    H282011   1.695  -0.013  11.998 -1.1349 -2.4941 -1.6001
20174TIP3   OH282012   6.541   4.183   4.617 -0.2326 -0.2322 -0.1229
20174TIP3    H182013   6.556   4.273   4.647  0.9601 -0.9676  1.5952
20174TIP3    H282014   6.623   4.158   4.574 -0.1571 -0.8653  0.3844
20175TIP3   OH282015   1.126   2.538  15.188 -0.0693 -0.5982  0.1814
20175TIP3    H182016   1.113   2.445  15.205  0.0984 -1.0800 -2.2147
20175TIP3    H282017   1.218   2.546  15.165  0.0961  0.2971  1.0879
20176TIP3   OH282018   1.719   2.214  15.110 -0.6244  0.0662  0.8154
20176TIP3    H182019   1.650   2.226  15.175 -1.9720 -1.3437 -0.2965
20176TIP3    H282020   1.709   2.290  15.052 -3.3161 -1.6503 -1.1085
20177TIP3   OH282021   4.140   0.776  16.617 -0.5614  0.4421 -0.7517
20177TIP3    H182022   4.084   0.854  16.624 -0.4243  0.4693  0.2196
20177TIP3    H282023   4.126   0.744  16.529  1.6322  3.2968 -2.2239
20178TIP3   OH282024   0.858   5.550  11.655 -0.7846  0.0180 -0.1893
20178TIP3    H182025   0.803   5.472  11.658  2.4031 -2.3681 -0.4521
20178TIP3    H282026   0.868   5.569  11.562  0.3332 -0.7335 -0.2402
20179TIP3   OH282027   2.857   2.680  15.229  0.3691 -0.1922 -0.5533
20179TIP3    H182028   2.845   2.769  15.262  0.1810 -0.1444 -0.7491
20179TIP3    H282029   2.817   2.624  15.296  1.6542 -0.2171  0.2173
20180TIP3   OH282030   5.843   2.210   2.287 -0.1281 -0.3943 -0.4355
20180TIP3    H182031   5.889   2.126   2.277  0.8871  0.2294 -1.1488
20180TIP3    H282032   5.835   2.222   2.382  1.3698 -0.4402 -0.2854
20181TIP3   OH282033   6.253   2.137  10.745 -0.2130  0.0648  0.1640
20181TIP3    H182034   6.165   2.103  10.730  0.3037 -0.8054 -0.9819
20181TIP3    H282035   6.274   2.187  10.666  0.0401  0.9005  0.7491
20182TIP3   OH282036   5.755   3.668   4.317  0.7386 -0.1091  0.6196
20182TIP3    H182037   5.734   3.575   4.304  1.2566 -0.3990  1.8374
20182TIP3    H282038   5.688   3.715   4.267 -0.7293 -1.0984  1.6330
20183TIP3   OH282039   3.368   2.059  15.082 -0.0581 -0.0158  0.1583
20183TIP3    H182040   3.455   2.097  15.091  0.8777 -1.9729 -0.3991
20183TIP3    H282041   3.351   2.059  14.988  0.2671 -1.6080  0.0806
20184TIP3   OH282042   4.094   5.164   1.521 -0.3536 -0.1553 -0.4958
20184TIP3    H182043   4.098   5.119   1.437 -0.4595  0.6196 -0.9239
20184TIP3    H282044   4.011   5.137   1.559  0.3466 -1.6174 -0.0044
20185TIP3   OH282045   3.284   5.094  15.854  0.3315 -0.2430  0.4967
20185TIP3    H182046   3.325   5.178  15.834 -0.8496  0.1893 -0.1238
20185TIP3    H282047   3.228   5.113  15.930 -0.0405 -0.4320  0.2711
20186TIP3   OH282048   2.513   6.673  12.462 -0.1721  0.6172  0.5968
20186TIP3    H182049   2.522   6.717  12.547 -1.1942  1.8000  0.1105
20186TIP3    H282050   2.422   6.644  12.460  0.4563 -1.4340  0.8519
20187TIP3   OH282051   4.909   2.064   1.016 -0.5310 -0.6642  0.1180
20187TIP3    H182052   4.892   1.975   1.048 -1.1240 -0.1785  1.1874
20187TIP3    H282053   4.833   2.115   1.046  0.4099  0.4777  0.5996
20188TIP3   OH282054   2.465   5.396  17.014  0.1528  0.6043 -0.2143
20188TIP3    H182055   2.496   5.319  17.061  1.3922  0.7690 -0.7388
20188TIP3    H282056   2.423   5.450  17.081  0.4968  0.1101  0.4009
20189TIP3   OH282057   4.617   3.373   4.440 -0.2401 -0.4457 -0.2569
20189TIP3    H182058   4.529   3.385   4.475 -1.0082 -0.1150 -2.2581
20189TIP3    H282059   4.609   3.392   4.347  2.1210  0.3618 -0.3341
20190TIP3   OH282060   5.693   0.536   3.317 -0.4814 -0.3872  0.2515
20190TIP3    H182061   5.633   0.463   3.336  0.5880 -0.5464  3.3189
20190TIP3    H282062   5.681   0.596   3.390  0.2714  1.4794 -1.1216
20191TIP3   OH282063   5.694   4.902   3.413 -0.5167 -0.1285  0.3012
20191TIP3    H182064   5.660   4.828   3.464  1.1198 -0.2179  1.3206
20191TIP3    H282065   5.624   4.967   3.416 -0.6492 -0.3093  2.3316
20192TIP3   OH282066   2.237   4.593   0.635  0.4535  0.0610  0.1681
20192TIP3    H182067   2.274   4.507   0.617 -0.2007 -0.0145 -0.8603
20192TIP3    H282068   2.273   4.617   0.720  1.1364 -0.9522  0.1765
20193TIP3   OH282069   5.968   4.239  15.716 -0.2420 -0.0890  0.7857
20193TIP3    H182070   5.977   4.166  15.779 -1.8647 -1.6210 -0.7195
20193TIP3    H282071   5.963   4.196  15.631 -0.8877  1.8331 -0.1539
20194TIP3   OH282072   1.574   2.612  13.455 -0.0017 -0.1927  0.1780
20194TIP3    H182073   1.578   2.683  13.392 -0.0047 -0.8081 -0.5277
20194TIP3    H282074   1.590   2.653  13.540  2.5064  0.2805 -0.4870
20195TIP3   OH282075   5.176   5.182   0.489  0.2296  0.6110  0.6239
20195TIP3    H182076   5.170   5.247   0.559 -0.6232  1.5706 -0.3243
20195TIP3    H282077   5.148   5.100   0.529 -1.1761  1.3427  1.1671
20196TIP3   OH282078   1.421   4.406  17.202  0.1286  0.5947 -0.3925
20196TIP3    H182079   1.378   4.464  17.264  0.5989  0.5694 -0.0387
20196TIP3    H282080   1.497   4.455  17.171  2.2358 -0.9305  2.1507
20197TIP3   OH282081   2.946   4.452   0.676  0.0366 -0.7658  0.8152
20197TIP3    H182082   2.968   4.486   0.763  0.5826 -0.2492  0.4765
20197TIP3    H282083   3.017   4.482   0.620  0.2276 -1.9809  0.3939
20198TIP3   OH282084   3.788   4.907  15.387  0.4088  0.0642 -0.1629
20198TIP3    H182085   3.855   4.871  15.329 -2.0835 -3.1207 -1.2026
20198TIP3    H282086   3.798   4.857  15.469 -0.1716  0.1211 -0.0535
20199TIP3   OH282087   0.742   4.461   1.113 -0.3292  0.1515  0.1958
20199TIP3    H182088   0.789   4.379   1.097 -0.9253 -0.2931  0.7075
20199TIP3    H282089   0.798   4.510   1.173  0.2614  0.3343 -0.4947
20200TIP3   OH282090   1.894   0.516   0.702 -0.5889 -0.5204 -0.0161
20200TIP3    H182091   1.919   0.439   0.650 -0.6250 -0.1459 -0.5909
20200TIP3    H282092   1.871   0.582   0.637 -0.4949  0.0001  0.4826
20201TIP3   OH282093   2.043   0.243   1.295  0.3145  0.8392 -0.1890
20201TIP3    H182094   2.053   0.227   1.389 -1.1840  0.2871 -0.1145
20201TIP3    H282095   2.133   0.254   1.263  0.8138  1.5276  1.3871
20202TIP3   OH282096   5.039   3.002   4.075  0.3984 -0.0642 -0.6710
20202TIP3    H182097   5.124   2.992   4.119  0.2766  0.9731 -0.1883
20202TIP3    H282098   4.975   3.004   4.147  0.0887  0.5143 -0.9584
20203TIP3   OH282099   1.330   0.433   2.430 -0.1323 -0.1605  0.4324
20203TIP3    H182100   1.411   0.482   2.416  0.3250 -0.4728  1.9540
20203TIP3    H282101   1.330   0.366   2.361 -0.2969  1.3467 -1.0848
20204TIP3   OH282102   2.606   1.701  12.526 -0.1567 -0.3485 -0.1666
20204TIP3    H182103   2.531   1.665  12.572 -1.2458 -0.7376 -2.1980
20204TIP3    H282104   2.574   1.720  12.438  2.2272 -0.9423 -1.2115
20205TIP3   OH282105   2.083   1.170   5.811 -0.3082  0.0099  0.1306
20205TIP3    H182106   2.038   1.200   5.890  1.3454  0.2836  0.9940
20205TIP3    H282107   2.174   1.198   5.823  0.3793 -1.6809 -0.9727
20206TIP3   OH282108   5.807   4.037  14.624 -0.0684  0.6296 -0.3518
20206TIP3    H182109   5.804   4.129  14.650 -1.1842  0.7643 -0.9031
20206TIP3    H282110   5.884   4.030  14.567 -0.2527  1.3257 -0.6884
20207TIP3   OH282111   6.532   3.041  10.710  0.0148  0.0729 -0.4461
20207TIP3    H182112   6.532   2.985  10.632 -0.7307 -0.4939 -0.0484
20207TIP3    H282113   6.454   3.095  10.700  0.1083  0.2397 -0.2668
20208TIP3   OH282114   4.845   0.299  16.976  0.3994 -0.1157 -0.3464
20208TIP3    H182115   4.792   0.219  16.979 -0.2191  0.2147 -2.2965
20208TIP3    H282116   4.793   0.360  16.924  0.6168  1.7613  1.5693
20209TIP3   OH282117   6.491   1.607   1.424 -0.4091 -0.0560  0.1035
20209TIP3    H182118   6.562   1.609   1.488  0.4603 -2.2243 -0.7166
20209TIP3    H282119   6.424   1.552   1.465 -1.5019  1.7468  0.7537
20210TIP3   OH282120   6.735   0.662  12.935  0.5017 -0.0011  0.3426
20210TIP3    H182121   6.648   0.635  12.906 -0.0805  0.9428  1.1868
20210TIP3    H282122   6.747   0.615  13.018  0.2148  0.9284  0.9222
20211TIP3   OH282123   5.079   0.973   2.856 -0.4527  0.2939  0.0808
20211TIP3    H182124   5.075   1.053   2.909 -0.1205 -0.5989  1.4766
20211TIP3    H282125   5.158   0.983   2.803 -0.6940  1.1176 -0.1340
20212TIP3   OH282126   5.344   3.539  13.216 -0.0754  0.3713 -0.2451
20212TIP3    H182127   5.426   3.547  13.168  0.1564  1.1706  0.2842
20212TIP3    H282128   5.294   3.474  13.166  2.7104 -3.6772  1.9340
20213TIP3   OH282129   1.912   6.122  11.704 -0.1245  0.0412  0.6861
20213TIP3    H182130   1.845   6.100  11.769 -1.0549  1.0657  0.1070
20213TIP3    H282131   1.963   6.042  11.693 -1.1774 -0.7203  1.2385
20214TIP3   OH282132   1.344   1.458   5.462  0.1048  0.0553  0.1107
20214TIP3    H182133   1.399   1.387   5.497 -0.5445 -0.0891  0.8667
20214TIP3    H282134   1.357   1.530   5.523  0.9882  0.6966 -0.8215
20215TIP3   OH282135   1.266   1.036  13.170  0.3211  0.4000 -0.0669
20215TIP3    H182136   1.342   1.080  13.131  1.7477 -1.3340  0.6948
20215TIP3    H282137   1.276   1.049  13.264 -1.9212  2.6499 -0.0755
20216TIP3   OH282138   5.802   4.134  13.449  0.2155  0.2963  0.2497
20216TIP3    H182139   5.744   4.178  13.387  1.2234  0.1638 -0.7934
20216TIP3    H282140   5.855   4.075  13.396  0.8256 -0.1091  1.2816
20217TIP3   OH282141   5.737   4.235   4.589  0.4010  0.0161  0.0628
20217TIP3    H182142   5.722   4.266   4.678 -0.0466  2.4813 -0.8331
20217TIP3    H282143   5.832   4.243   4.576  0.5986 -1.2396  0.5993
20218TIP3   OH282144   6.748   5.307  17.250 -0.0240  0.0895 -0.5046
20218TIP3    H182145   6.760   5.307  17.155 -2.5150  0.2160 -0.8753
20218TIP3    H282146   6.773   5.396  17.277 -0.0612  0.3048 -1.1683
20219TIP3   OH282147   0.602   0.336   6.555  0.1260  0.1483 -0.1099
20219TIP3    H182148   0.551   0.260   6.526  2.1018 -1.1167 -0.3610
20219TIP3    H282149   0.547   0.378   6.621 -1.6554 -0.6187 -1.0562
20220TIP3   OH282150   2.200   0.362  15.808 -0.3485 -0.6987  0.6431
20220TIP3    H182151   2.203   0.457  15.809 -0.2356 -0.6746 -1.2421
20220TIP3    H282152   2.106   0.341  15.803 -0.2541 -0.6463 -1.4868
20221TIP3   OH282153   0.158   0.492   5.626  0.6272 -0.4344 -0.1161
20221TIP3    H182154   0.233   0.481   5.568  1.8569  2.1811  0.8915
20221TIP3    H282155   0.107   0.562   5.585  0.3353 -0.1263  0.7775
20222TIP3   OH282156   2.602   0.603  13.327  0.3611  0.0764 -0.4977
20222TIP3    H182157   2.543   0.570  13.394  2.5230  0.4038  1.6309
20222TIP3    H282158   2.559   0.582  13.244 -0.5208 -3.8444  0.8882
20223TIP3   OH282159   2.428   2.367   5.839  0.0707  0.1863 -0.3602
20223TIP3    H182160   2.379   2.427   5.895 -2.8822 -2.0660 -0.4156
20223TIP3    H282161   2.491   2.325   5.898 -0.3626  0.6803  0.4608
20224TIP3   OH282162   3.591   2.387   1.777  0.8896  0.0391 -0.0661
20224TIP3    H182163   3.615   2.469   1.820 -0.0603 -2.0871  4.8006
20224TIP3    H282164   3.673   2.352   1.743  1.8827  1.1990  1.0897
20225TIP3   OH282165   6.743   2.325  11.500  0.1294 -0.2151  0.0938
20225TIP3    H182166   6.649   2.323  11.478 -0.3331  0.9075  1.8877
20225TIP3    H282167   6.745   2.323  11.596  1.9856 -1.3012  0.0558
20226TIP3   OH282168   6.326   6.004   1.571 -0.4495  0.0764 -0.6785
20226TIP3    H182169   6.344   6.093   1.542  1.5153 -0.6539 -1.7850
20226TIP3    H282170   6.235   5.988   1.544 -1.1615  2.0526  0.4136
20227TIP3   OH282171   0.170   6.323  12.626  0.4078 -0.3804 -0.3026
20227TIP3    H182172   0.129   6.323  12.713 -1.2977 -0.0843 -1.0875
20227TIP3    H282173   0.257   6.285  12.641 -0.3811 -1.6518  1.2935
20228TIP3   OH282174   3.234   6.092  15.138  0.5255 -0.3782 -0.4349
20228TIP3    H182175   3.159   6.038  15.111  0.4075 -0.9424  0.9766
20228TIP3    H282176   3.256   6.142  15.060 -1.0169 -0.5638 -1.0171
20229TIP3   OH282177   0.913   4.549   5.933 -0.6306  0.5548  0.3923
20229TIP3    H182178   0.975   4.510   5.994 -1.2831  0.0733  0.7599
20229TIP3    H282179   0.966   4.577   5.859  0.1374  0.9173  1.0659
20230TIP3   OH282180   0.497   3.435   4.248  0.6013  0.2440  0.1249
20230TIP3    H182181   0.422   3.434   4.307 -0.0893  2.1303 -0.6607
20230TIP3    H282182   0.545   3.355   4.269 -0.6851 -0.1228  1.8419
20231TIP3   OH282183   4.178   3.465   0.308  0.0237  0.2956 -0.6433
20231TIP3    H182184   4.085   3.483   0.293  0.5910  2.8085 -1.3946
20231TIP3    H282185   4.205   3.412   0.233 -0.2906  1.4876 -1.6142
20232TIP3   OH282186   0.965   2.195  11.576 -0.1976  1.0877 -0.2235
20232TIP3    H182187   1.024   2.203  11.501  0.3470  0.8577  0.1798
20232TIP3    H282188   0.887   2.152  11.540  0.6557 -0.3861 -0.3588
20233TIP3   OH282189   6.179   4.390   3.056  0.1196 -0.3513 -0.1366
20233TIP3    H182190   6.217   4.318   3.005  0.2371  1.0150 -2.0590
20233TIP3    H282191   6.247   4.415   3.118  1.2358  0.0665 -1.4949
20234TIP3   OH282192   3.943   1.549   4.338 -0.2291  0.2167 -0.0041
20234TIP3    H182193   3.962   1.512   4.251  0.0131  1.7441 -0.6185
20234TIP3    H282194   3.932   1.642   4.322  1.0919  0.7126  1.8285
20235TIP3   OH282195   3.911   0.290  13.563  0.0607  0.0968 -0.5613
20235TIP3    H182196   3.849   0.217  13.561 -1.4605  1.3550 -0.2721
20235TIP3    H282197   3.908   0.327  13.475 -0.3321  0.7479 -0.2796
20236TIP3   OH282198   6.567   2.108   3.778  0.0388 -0.0741  0.0665
20236TIP3    H182199   6.490   2.078   3.729  0.0981 -2.2249  1.2251
20236TIP3    H282200   6.604   2.177   3.723 -1.4684 -0.5072 -1.5751
20237TIP3   OH282201   5.297   3.398  14.724  0.2370  0.2100  0.7818
20237TIP3    H182202   5.275   3.307  14.746 -0.9007  0.6312  1.3693
20237TIP3    H282203   5.358   3.390  14.650 -0.6728 -0.9974  0.1524
20238TIP3   OH282204   5.097   4.446   3.091  0.4251  0.4281 -0.0225
20238TIP3    H182205   5.042   4.398   3.153  1.9551  0.2531  1.2306
20238TIP3    H282206   5.116   4.529   3.136  1.3138  0.4134 -0.3674
20239TIP3   OH282207   4.416   2.462   3.402  0.2955  0.3214  0.4475
20239TIP3    H182208   4.461   2.509   3.472 -1.2213  3.3774 -0.5589
20239TIP3    H282209   4.443   2.507   3.322 -0.3119 -1.2771 -0.6780
20240TIP3   OH282210   5.636   6.677   3.073  0.6837 -0.0887  0.1254
20240TIP3    H182211   5.729   6.674   3.051  1.0111 -1.5027  1.5882
20240TIP3    H282212   5.629   6.749   3.136  0.7633  0.1515 -0.1425
20241TIP3   OH282213   5.752   3.664   5.785 -0.6601 -0.1355 -0.0754
20241TIP3    H182214   5.797   3.747   5.772  0.7758 -0.8459  0.1734
20241TIP3    H282215   5.674   3.669   5.730 -0.8429  1.5539  0.3029
20242TIP3   OH282216   6.368   0.138  15.642  0.8962  0.1554 -0.0294
20242TIP3    H182217   6.447   0.120  15.694  1.5516 -0.8395 -1.3425
20242TIP3    H282218   6.393   0.115  15.553 -0.9684 -0.3519 -0.4251
20243TIP3   OH282219   5.123   6.103  13.057  0.2293  0.3492  0.4661
20243TIP3    H182220   5.107   6.136  12.969  0.4561 -2.5183 -0.7249
20243TIP3    H282221   5.186   6.165  13.095  0.1483  1.6126 -1.3916
20244TIP3   OH282222   5.079   2.910   6.176 -0.4723 -0.4059  0.4181
20244TIP3    H182223   5.165   2.943   6.150 -0.8400  0.5642  0.4085
20244TIP3    H282224   5.086   2.897   6.271 -0.6550  0.7438  0.5979
20245TIP3   OH282225   3.444   2.406  11.104  0.0836  0.0459 -0.0089
20245TIP3    H182226   3.474   2.494  11.127 -0.0811 -0.0539  0.6070
20245TIP3    H282227   3.393   2.418  11.024  0.0966  0.5055  0.0508
20246TIP3   OH282228   0.153   5.838  16.026 -0.4115 -0.5777  0.1344
20246TIP3    H182229   0.089   5.785  16.073  1.4080 -0.6125  2.6960
20246TIP3    H282230   0.237   5.812  16.064  0.8208  1.7677 -0.8909
20247TIP3   OH282231   4.556   5.878  14.452  0.4488  0.1817  0.2100
20247TIP3    H182232   4.531   5.870  14.360  1.1800  0.2676 -0.0031
20247TIP3    H282233   4.477   5.910  14.496  0.2868  0.7795 -0.5033
20248TIP3   OH282234   2.515   2.131  11.709 -0.3968 -0.0933 -0.6656
20248TIP3    H182235   2.557   2.069  11.649  0.7207 -0.5111  0.5150
20248TIP3    H282236   2.582   2.198  11.724 -1.2822  0.9255 -1.2271
20249TIP3   OH282237   3.842   3.464  11.720 -0.4334  0.0900  0.0208
20249TIP3    H182238   3.804   3.413  11.792  0.0098  0.8353  0.8062
20249TIP3    H282239   3.913   3.409  11.687 -0.3738 -0.0839  0.4332
20250TIP3   OH282240   4.453   2.118   1.898  0.6391  0.4031 -0.0566
20250TIP3    H182241   4.442   2.033   1.855  0.2485  0.8538 -0.8553
20250TIP3    H282242   4.485   2.096   1.985 -1.0120 -0.6533  0.3078
20251TIP3   OH282243   0.594   1.609   2.099  0.1769 -0.4356 -0.0378
20251TIP3    H182244   0.639   1.655   2.171 -0.7254  0.1897  0.1265
20251TIP3    H282245   0.573   1.523   2.136 -2.0576  0.5698  1.1452
20252TIP3   OH282246   5.269   5.975   6.157 -0.6569 -0.8624 -0.2337
20252TIP3    H182247   5.245   5.911   6.224 -0.2818  1.1366  1.8619
20252TIP3    H282248   5.338   5.932   6.106  0.8810 -1.4598  2.2878
20253TIP3   OH282249   5.840   0.941   1.912  0.1774  0.0159 -0.0134
20253TIP3    H182250   5.844   1.027   1.870 -1.3126 -0.5198 -1.3192
20253TIP3    H282251   5.812   0.960   2.002  0.2280  0.9255 -0.1815
20254TIP3   OH282252   5.976   4.940   6.576  0.1659 -0.3135  0.0573
20254TIP3    H182253   6.041   4.885   6.532 -2.3829 -1.9779 -1.7096
20254TIP3    H282254   5.922   4.878   6.625 -1.2276  0.8687  0.0372
20255TIP3   OH282255   0.734   4.394   3.343 -0.1282 -0.1877  0.1685
20255TIP3    H182256   0.723   4.370   3.435  1.7004  0.6265  0.6161
20255TIP3    H282257   0.829   4.390   3.329 -0.4473 -0.9650 -1.8584
20256TIP3   OH282258   4.416   2.693  12.059 -0.5873  0.3079  1.3095
20256TIP3    H182259   4.329   2.656  12.042 -1.1147  1.6970  0.9038
20256TIP3    H282260   4.436   2.743  11.979  0.6761 -0.1762  1.3160
20257TIP3   OH282261   2.840   2.794   2.314  0.7467  0.7096  0.2482
20257TIP3    H182262   2.849   2.762   2.224  0.2497 -0.6635  0.6713
20257TIP3    H282263   2.782   2.869   2.307 -3.2727 -2.2736  0.0051
20258TIP3   OH282264   5.229   1.581  15.982 -0.4723  0.3048 -0.3148
20258TIP3    H182265   5.219   1.649  16.049 -2.7462  0.4477 -0.7824
20258TIP3    H282266   5.177   1.507  16.014  1.3519 -0.9571 -0.1947
20259TIP3   OH282267   3.504   3.718  14.778 -0.2203  0.6728  0.2631
20259TIP3    H182268   3.558   3.645  14.748 -2.0357 -1.1800  1.3460
20259TIP3    H282269   3.566   3.786  14.802  1.5710 -0.9701  0.3521
20260TIP3   OH282270   0.423   2.810   4.746  0.4733  0.3686  0.2901
20260TIP3    H182271   0.410   2.899   4.779 -0.0075  0.0311  1.0194
20260TIP3    H282272   0.346   2.794   4.691  1.2034  0.8775 -0.8933
20261TIP3   OH282273   4.803   0.082   3.178  0.2920  0.8441  0.0225
20261TIP3    H182274   4.880   0.096   3.121 -0.2883  0.0077 -0.9941
20261TIP3    H282275   4.730   0.120   3.129 -0.3609 -0.6735 -0.2231
20262TIP3   OH282276   6.063   3.297  12.877  0.0975  0.4609  0.1264
20262TIP3    H182277   6.073   3.359  12.804 -0.8015  1.3194  0.7225
20262TIP3    H282278   6.001   3.232  12.845  2.3971 -1.1909 -1.1646
20263TIP3   OH282279   4.395   4.323   0.993  0.0507  0.3414 -0.2259
20263TIP3    H182280   4.305   4.353   0.986  0.4469  1.4496 -0.7844
20263TIP3    H282281   4.407   4.265   0.917 -0.1735  0.2269 -0.1746
20264TIP3   OH282282   5.334   1.097  13.369 -0.1159 -0.5073  0.3848
20264TIP3    H182283   5.285   1.179  13.359  1.0147 -0.0165 -1.3057
20264TIP3    H282284   5.365   1.099  13.459  2.2641  2.2893 -0.4255
20265LIG     O182285   4.814   5.381  16.562  0.4796  0.3368  1.0051
20265LIG     O282286   5.135   5.096  16.746 -0.6113 -0.1820 -0.3074
20265LIG     N182287   5.118   5.109  16.516 -0.0143 -0.1007 -0.0102
20265LIG     N282288   4.872   5.237  16.287  1.1592  0.2986  0.6411
20265LIG     N382289   4.992   5.253  16.651 -0.0204  0.1001  0.2691
20265LIG     N482290   5.042   5.088  16.284  0.1407  0.5536  0.6127
20265LIG     C182291   4.923   5.230  16.420  0.3527 -0.1457  0.2937
20265LIG     C282292   5.030   5.135  16.411  0.1245  0.2919  0.0102
20265LIG     C382293   4.899   5.291  16.541  0.3143  0.4446 -0.1102
20265LIG     C482294   5.084   5.148  16.644 -0.3226 -0.0037  1.1876
20265LIG     C582295   4.941   5.141  16.213  0.4713  0.1897 -0.2168
20265LIG     C682296   5.225   5.010  16.508 -0.0074  0.5013 -0.3298
20265LIG     C782297   4.756   5.316  16.235 -0.0321 -0.4803  0.0487
20265LIG     C882298   4.982   5.325  16.784  0.3251  0.2426 -0.1855
20265LIG     H182299   4.937   5.129  16.105  0.5876  0.1016 -0.2098
20265LIG     H282300   5.306   5.064  16.454  0.7817 -0.7351 -0.3958
20265LIG     H382301   5.193   4.934  16.434 -0.8868  1.4474 -0.9382
20265LIG     H482302   5.272   4.965  16.598 -0.5968 -0.6037 -0.5651
20265LIG     H582303   4.752   5.317  16.124 -0.1413  0.6687  0.0567
20265LIG     H682304   4.750   5.422  16.266 -0.5096 -0.9525  1.6457
20265LIG     H782305   4.665   5.267  16.276 -0.2932 -0.1347 -0.1178
20265LIG     H882306   4.980   5.435  16.772 -0.1366  0.3033  0.3989
20265LIG     H982307   5.068   5.305  16.853  0.2940 -0.2041 -0.2764
20265LIG    H1082308   4.890   5.297  16.839  0.0542 -0.0759 -0.8020
   6.82013   6.82013  17.29240
